116
 energy: -22.928462979736 gnorm: 0.366743517206 xtb: 6.6.1 (8d0f1dd)
C           -2.04904038242535        0.13428553817079       -1.25509468891374
C           -1.95016934118003        1.01947567468976       -0.17153652747607
C           -0.79017541543152        0.97807555462222        0.69603549748870
C            0.18146133908615       -0.10887119747995        0.59268381642803
C            0.05215564043065       -0.90911698102759       -0.57127360031663
C           -1.05519879774327       -0.86380534928378       -1.44050909516937
C           -0.65860813012909        1.93017505554366        1.77416897370328
C            0.05273640392876        1.37387601768522        2.94271648025124
C            0.87516604836743        0.23313313887633        2.81658819174284
N            0.90522425853022       -0.43084002005039        1.63687450561114
C           -1.17293468023044        3.29158320425260        2.01540722999016
C           -1.30304658577979        3.76996387048428        3.35248474802258
N           -0.72849169812994        3.19369361654804        4.49679526921937
C            0.01637255637568        1.99547185739634        4.25930974257441
C            0.77232931699263        1.36108130374607        5.31327818136006
C            1.65273947223795        0.33781757167334        5.16294698797860
C            1.61972945357376       -0.19061529914428        3.91842529415028
C           -1.42211609325979        4.24302981292686        0.93438156295121
C           -2.08534220715874        5.42139002871915        1.12523826472844
C           -2.35734082226978        5.75753077112583        2.51824213540271
C           -1.92370623694770        4.99419663555401        3.52690078251037
O           -0.93411614462262        3.92166833990743       -0.31948518917613
O           -2.86456663770990        2.03101983176072        0.11529016045217
C           -1.08924515072342       -1.81440234452205       -2.63013411839786
C           -3.27271565087663        6.88009525787478        2.72904896676483
H            0.72368884684763       -1.71236976140499       -0.64570783686033
H           -2.97312607582655        0.03545306809541       -1.77641806945952
H            2.29334116955985       -0.98629120221566        3.69499309128104
H            0.61765256082121        1.97175912936560        6.24026943602859
H           -2.21381840725258        5.27325090540157        4.56642513493116
H           -2.30419511267211        6.02363976458804        0.30731965281434
O           -0.56650241009200       -2.93679828414677       -2.61332930395765
O           -1.67671947853669       -1.22786955876373       -3.69422791623972
C           -1.66205849513552       -2.19076440756753       -4.76239370096125
C            2.61925689235988       -0.14346463714725        6.13285025219821
O            3.75166736318011       -0.51406791310558        5.89433931658823
O            2.09900903817487       -0.24527350463708        7.44625416169518
C            3.02767063772033       -0.74988801206921        8.31968796251696
O           -4.05311398429345        7.14387477254294        1.84989040593683
O           -3.27673250340248        7.41587884654294        3.95438799855169
C           -4.15812438216471        8.45572685724656        4.09561705948192
C           -0.80536428099238        4.86043938913585       -1.29260596137934
C           -3.64237830806359        2.62905187958378       -0.88463309572575
H           -5.05671628455547        7.98248712172228        4.51459200281634
H           -4.21986821261798        8.97170787470229        3.13589668354363
H           -3.66991879554399        9.13432482108383        4.83029534693358
H            3.44272356859383       -1.62510403574244        7.79013013975781
H            2.51506278233452       -1.04847511003745        9.27290263674116
H            3.69632675405090        0.03268521764763        8.51550389621264
H           -4.63399135361871        2.14140202760340       -0.79591112553751
H           -3.27257919389479        2.49558359944360       -1.87913631204009
H           -3.63215025446616        3.70998769380643       -0.59215269078192
H           -1.24159315530658        5.84157966608064       -1.00292672161531
H           -1.08681979918185        4.52225925735153       -2.31214343442770
H            0.27947093487305        5.17324723969389       -1.31993894292756
H           -0.63120106600499       -2.47437636711109       -5.10629336277696
H           -2.28586780031183       -1.95153871168746       -5.58119564850845
H           -2.14116082681143       -3.07165922757410       -4.27095927184226
C            0.47327847374827       -4.10503482375339        3.28874786127175
C            0.15066365477283       -2.99244058392329        4.12346172982191
C           -1.10376037469442       -2.44297374179446        3.94164932625162
C           -1.85882850896157       -2.69963195924283        2.82271428423978
C           -1.46456712424714       -3.72675312684861        1.93138753709793
C           -0.33570836423560       -4.42903151956512        2.24245348066285
C           -1.68690275984835       -1.58944246378928        4.88718680076157
C           -2.61224465828626       -0.61649849392852        4.38447091231470
C           -3.25432990804509       -0.89472744772142        3.14143009167165
N           -2.99211028620321       -2.03722541447872        2.46859901684698
C           -1.36099041118069       -1.37151029329459        6.25441150131466
C           -1.59725734882043       -0.08235003251818        6.88908611309717
N           -2.42487652499439        0.82319961229076        6.35478568248521
C           -2.96398980661751        0.52934047166438        5.11037963008347
C           -3.71916837551739        1.56885457829585        4.51045475990905
C           -4.18437723238957        1.35536845257829        3.25581437477543
C           -4.02373381537596        0.13236316225070        2.61956480435576
C           -1.01977608885492       -2.50609181844841        7.12143457690625
C           -0.46072166509639       -2.25088740908224        8.36543981374874
C           -0.47230926420545       -0.94812316785882        8.86308475981579
C           -1.18730991977001        0.07927949884128        8.26405421626151
O           -1.14790090376390       -3.75500501611817        6.60018596722211
O            1.08156571072028       -2.52134459057267        5.06276836918874
C            0.13158863249184       -5.46777126626767        1.37165898058559
C            0.15739159863408       -0.68317051344012       10.18505740261395
H           -2.05406366717298       -3.88884420102773        1.05987977742300
H            1.42870401848624       -4.65147513807319        3.31982035000969
H           -4.41490604146828        0.00387029811530        1.58076311282118
H           -3.86338875588798        2.53653009255425        5.03971205323914
H           -1.33439738968366        0.98878439976216        8.83422956120238
H            0.02197896146540       -3.08613001765427        8.94105364144929
O            1.20590954043506       -6.10351526263248        1.45929901523884
O           -0.83256065141872       -5.82257811616743        0.37201028224486
C           -0.27180946261584       -6.46081863795280       -0.74484613901099
C           -4.90729133828847        2.40427705783517        2.48391920709525
O           -5.45093284742171        2.07920114666372        1.43487351472820
O           -4.93024166214033        3.69900940334584        3.03487636965070
C           -5.77198590692216        4.53615927999415        2.27987300652095
O            0.81296298673641       -1.45790865410758       10.79466964608320
O           -0.15176624747337        0.57755830954372       10.67803798012143
C            0.42136193214084        0.68646184734475       11.86738410275800
C           -1.67544849441232       -4.65675560009177        7.59620519967708
C            2.20608219246931       -3.21360471993291        5.29325982056247
H            0.09745680655910       -0.06135244883143       12.58929686470374
H            0.06711932654211        1.66733883565839       12.26970823139477
H            1.50297850225376        0.71016629438574       11.71432339933546
H           -6.75608143935557        4.10638157476798        2.17142325721484
H           -5.39122877782380        4.68491155632342        1.26561029589118
H           -5.89308817555307        5.49983123974265        2.82709979080233
H            2.09025986394933       -4.31717831834734        5.67833141871779
H            2.86100419316960       -2.68629406734239        6.05504845572600
H            2.91578886132346       -3.34590502145876        4.45864634494345
H           -2.25103901312874       -5.40794045412145        7.08886127472593
H           -2.41249480177136       -4.20088192902807        8.27449454935338
H           -0.90172699906703       -5.29219500686962        7.98288416449210
H           -1.05063442547505       -7.11921584713873       -1.17450214067515
H            0.54288994404727       -7.09317639696196       -0.41674427419091
H            0.22193729042780       -5.81563328490660       -1.47246921522340
116
 energy: -22.829736352065 gnorm: 0.407082333486 xtb: 6.6.1 (8d0f1dd)
C           -1.95866598878073       -0.16871536618359       -1.22557258567945
C           -2.03864306464913        0.63897811411071       -0.08777793148692
C           -0.95537240218253        0.67311108993269        0.88830891593680
C            0.04977994675934       -0.29447094769682        0.69714434614883
C            0.09866938778441       -1.11641408479258       -0.36794578564690
C           -0.80507543963647       -1.01702257767696       -1.39287061012301
C           -0.84950814693671        1.63623112148682        1.95045828404952
C           -0.14014321776891        1.15857240559762        3.07104291950723
C            0.74685994274995        0.07370195642031        2.89443501319165
N            0.86474253124304       -0.57427635455936        1.78654296513832
C           -1.43378637693249        2.99250106452442        1.97925863836217
C           -1.59905673957805        3.62728443877587        3.23833152666272
N           -1.00873766196323        3.13169200990904        4.34961022362629
C           -0.19854792212029        1.98263918749060        4.21868181083595
C            0.61481180541914        1.56996336738259        5.35967445721078
C            1.47119700620776        0.46488421641411        5.20009481422181
C            1.51160892995334       -0.18497951230695        3.99132205902438
C           -1.54253050921315        3.80305748776441        0.81167736965742
C           -2.02669306919181        5.15181834286463        0.86347031448011
C           -2.28022460543330        5.71974020092681        2.05885827623040
C           -2.02038519860732        5.00422148156586        3.28006564366756
O           -1.01391269182454        3.21175819771334       -0.27955767088775
O           -3.18866905619216        1.39726412755868        0.18087689987333
C           -0.64270619355060       -1.88188390521960       -2.57889689609172
C           -3.06652244369024        7.00468236397338        2.02412743390567
H            0.88768682042189       -1.80738031403593       -0.56545873098692
H           -2.83863139782743       -0.24279209117508       -1.85113833694003
H            2.26172826475180       -1.06259712621698        3.80164559923479
H            0.71688430277082        2.21961683508600        6.24145628929202
H           -2.41843426661238        5.39916233708033        4.17985903860424
H           -2.08341168842924        5.76177478591801       -0.09730120114265
O            0.38053444276123       -2.54827403526730       -2.85426880691104
O           -1.88422720079507       -1.94416083825744       -3.23689597682711
C           -1.74267179313130       -2.96497572496536       -4.10215837434127
C            2.53775805313067        0.19202566083008        6.20008192792840
O            3.40886340872505       -0.59309645786274        5.98330241309957
O            2.40059413082535        1.01042486965766        7.31697697708486
C            3.08495874695870        0.63177216730172        8.42534104613204
O           -3.43950658121919        7.44017176390072        0.94215899400132
O           -3.57344339894686        7.48148886984883        3.25004834326006
C           -4.04176578212053        8.76183501940259        2.89990330922366
C           -0.57068502408307        4.00223737839324       -1.36967526476456
C           -4.30749690153959        1.62477428576589       -0.71520409911957
H           -4.80298690863332        8.78011841688998        3.63779891445144
H           -4.33507921246132        8.66511816577976        1.82195302880694
H           -3.39207046389743        9.61806670638304        3.17643441325052
H            2.45253102260584        0.21374143362924        9.27713627045889
H            3.51382727705106        1.49269981162709        8.85861449323208
H            3.89505731082768       -0.03760629788601        8.09234770507962
H           -4.16345502417212        1.09268688879723       -1.64695231529940
H           -4.40284093910961        2.70883147748682       -0.79903783617850
H           -5.23993634753341        1.21603567908706       -0.31755783798302
H           -1.45707170234074        4.23660651621650       -2.06471169946250
H            0.24060624447232        3.55666575739470       -1.98039696769676
H           -0.21635898308656        4.92025918102796       -0.88577713064687
H           -2.29307354233989       -2.79647864164151       -4.93020754714258
H           -2.14417029632000       -3.73632593716279       -3.60041502567853
H           -0.80961865030076       -3.39320525601480       -4.31877634875666
C            0.61333270357895       -3.76410701621475        3.14258767418622
C            0.13760513514596       -3.05267247228064        4.21674050107708
C           -1.21629156934662       -2.45240968325949        4.07044318838609
C           -1.90312745285577       -2.52037266045389        2.77304785111528
C           -1.34582908075732       -3.23686056941079        1.64345380822002
C           -0.03359035044839       -3.78869400282374        1.85117047813461
C           -1.82945174884096       -1.62711892059781        5.09468901161466
C           -2.75459340683831       -0.71521438866531        4.62794364320575
C           -3.36989748765247       -0.79941611387257        3.30539753381265
N           -2.90757156029691       -1.75729073848207        2.42544950358981
C           -1.53602676112009       -1.49757352754112        6.49210589628499
C           -1.46106463593379       -0.25635083374191        7.09927292773504
N           -2.15124585940115        0.74766030128198        6.56031832930275
C           -2.87596802736271        0.44180163946113        5.39948972825569
C           -3.67986069003748        1.38925856983521        4.82422714381223
C           -4.21707587736520        1.47403679824742        3.51724491535990
C           -3.96504769803880        0.33871539843182        2.77818319629594
C           -1.15737490197732       -2.64886744219935        7.24064230684646
C           -0.62413630238542       -2.44130374824992        8.45975996085180
C           -0.31905925367047       -1.17455925487105        8.94541611552415
C           -0.82911605128861       -0.03589843667648        8.28642368139467
O           -1.34739316564963       -3.93704149219756        6.76670101152955
O            0.83139137063583       -2.90686962708530        5.39978587942613
C            0.38901540462114       -4.58109282179515        0.61026387280759
C            0.11028799197034       -1.16432459825450       10.39266999113874
H           -2.02858942731147       -3.73974628454512        1.01691767281830
H            1.44969915423217       -4.45275535515413        3.08223078411036
H           -4.55749679519899        0.30630762927909        1.80297346464787
H           -3.78552639490353        2.33202813219456        5.33894987808800
H           -0.96979342917418        0.84509971446895        8.81647715307041
H           -0.65178013302441       -3.18326341142946        9.22647934527909
O            1.51482993428607       -5.03685786204567        0.49836815655303
O           -0.52052120796603       -4.49560604471058       -0.39923543134347
C            0.14483539309821       -4.78515980294302       -1.58246809895895
C           -4.95903740807152        2.70161787360289        3.16060409543752
O           -5.65468626629962        2.72125205359558        2.16498873958253
O           -4.76405560199328        3.81923040353049        3.89386721073237
C           -5.38752252642001        4.89701366432280        3.27622837262637
O            0.04998951875036       -2.23738552320879       11.03772612174225
O            0.62613448119647        0.00290984444721       10.73839557746824
C            1.21592113548433       -0.28226508850183       12.00215943176718
C           -2.74475006682753       -4.37786064051855        7.15619799466469
C            2.03695642817919       -3.60437660673644        5.56216189895689
H            0.43916380605647       -0.78998311111324       12.59566026183325
H            1.55475990452651        0.69035566430993       12.56798727718033
H            2.10514524785700       -0.97524095472295       11.90905803351907
H           -6.44235088912071        4.62814424646480        2.99050592283157
H           -5.16074668816190        4.99949389766534        2.18036261601429
H           -5.36037501304909        5.68957668513501        4.03556790733642
H            2.78912863604556       -2.99538973154752        6.19951653540576
H            2.58964173940839       -3.79666630822161        4.66411913408777
H            1.98260837140660       -4.60103162872866        6.05957327469273
H           -2.57195607297321       -5.34745646088725        7.54782534725136
H           -3.50842623287393       -4.29361118708328        6.34063492719542
H           -3.14682359446946       -3.80190730205845        7.94028683272665
H           -0.55735294667641       -4.29067881466562       -2.25191464574429
H            0.25444566188226       -5.89211117671419       -1.71573625030177
H            1.18069625711466       -4.39279333914734       -1.65827010062164
116
 energy: -22.859202379435 gnorm: 0.391029866580 xtb: 6.6.1 (8d0f1dd)
C           -1.58942778693556       -0.08907735945296       -1.43772875350942
C           -1.73796649641024        0.75521918090928       -0.38647017208502
C           -0.68765887422539        0.85752492846996        0.63935615212121
C            0.18260866048498       -0.28365941229514        0.72938227605290
C            0.18665542011797       -1.28982177961690       -0.31554141522637
C           -0.56474354935839       -1.04919682619747       -1.52356939708375
C           -0.74482227892332        1.77905922397847        1.72468127464776
C           -0.02409289246114        1.41444166506704        2.83311924043525
C            0.88643773270160        0.32524456434709        2.86544205350095
N            0.88952207113456       -0.55860406151054        1.84471553823134
C           -1.33706058614236        3.07677659264592        1.74859055112618
C           -1.68498761587536        3.60950578660966        2.93515440157733
N           -1.19587366219137        3.17189669280554        4.07772538255152
C           -0.22265161210292        2.24009584373356        4.01158780071518
C            0.53881713833239        1.97833818925294        5.11704529149356
C            1.28585198307948        0.77656469010722        5.14494083554599
C            1.60461316720491        0.03735479597076        4.05280247585582
C           -1.40052742718059        3.76855091942751        0.53363339613988
C           -2.14862864997252        4.94066017684376        0.54411544494751
C           -2.47324542946034        5.48372127733894        1.70152913185353
C           -2.31321622550459        4.86963685658326        2.90444249511851
O           -0.93554464561700        3.27147869819692       -0.62144801317155
O           -2.92620268120446        1.59836416694622       -0.28228646991621
C           -0.58162262473404       -1.97488530507783       -2.71176830204844
C           -3.12087751320330        6.83832303550294        1.71576979972946
H            0.70586011288864       -2.17527763089538       -0.10299035851474
H           -2.30590295532722        0.04006318318769       -2.25931481392768
H            2.52312424779485       -0.62790818828140        4.18071080576569
H            0.39112720991790        2.47831108226792        6.08293161450939
H           -2.54050984336105        5.44104268451076        3.76422781863792
H           -2.05410373559767        5.63254367353932       -0.30571835404345
O           -0.30674200898839       -3.15777380578796       -2.52483907938372
O           -1.09475082490825       -1.42288503909076       -3.86420819984588
C           -0.96557894852463       -2.46645306248060       -4.87217495356946
C            1.93233324772092        0.37366999329982        6.49509144179488
O            2.66942747742605       -0.59431200853323        6.34883763794555
O            1.76454306762470        1.05711517477007        7.65741319132861
C            2.43685907749934        0.46107979654017        8.70872853416442
O           -2.68828986312978        7.63023448411454        0.86563499808352
O           -4.12753866502281        7.19126757940873        2.56532717142802
C           -4.72790632302599        8.25901037836629        2.01935525511329
C           -1.53612634725976        3.76709578333817       -1.87605708892888
C           -3.97533781450000        0.84236754958274       -0.77990513098055
H           -5.60443063155569        8.49138772678290        2.61334686055347
H           -4.96775293861329        8.30629257036995        0.91427661350814
H           -4.11268356804280        9.13208272322509        2.27491276104022
H            1.82721795828599       -0.31136513777516        9.12029033659080
H            2.61522840638435        1.24225344335731        9.53240981562401
H            3.38111588807197        0.09379691835739        8.38548958333377
H           -4.85240499357378        1.13923271380801       -0.22728047590399
H           -3.59148588989907       -0.17144518657131       -0.57150537745998
H           -4.16318715012484        1.22078096526987       -1.81039319047183
H           -2.54097124253328        4.05037407462721       -1.60373640513504
H           -1.50945307690115        2.83673056299610       -2.49922373631468
H           -0.81799908281644        4.48338845553958       -2.44558225432150
H           -0.13656591895659       -3.12578582570228       -4.53038006317542
H           -0.79212104326970       -2.09042694572927       -5.77166617703829
H           -1.96177142618628       -2.81537517207081       -4.75409643036429
C            0.50718643129481       -3.88393416520940        3.03871103125111
C            0.24971464121566       -2.94943267005584        4.08142570136423
C           -0.95902439896240       -2.18237518913335        4.10030589004346
C           -1.68021377134390       -2.07758357264322        2.89793773331891
C           -1.35120534051185       -2.94691483085012        1.81509816906860
C           -0.27132126056862       -3.78699188306735        1.93247520776789
C           -1.49881606345147       -1.38536560619888        5.11677135434671
C           -2.35746597007900       -0.26240710205330        4.86206380168961
C           -2.72219451656463        0.01169747879123        3.46263537964344
N           -2.64850358452413       -1.02215072857134        2.60721737033830
C           -1.01183335967810       -1.50709779941395        6.41717652420606
C           -1.37531233178833       -0.44112355578192        7.31331953424011
N           -2.14121826652300        0.67086658121143        7.07069462103422
C           -2.73115229173339        0.67977099058694        5.88311163298836
C           -3.41629368117220        1.84904350761067        5.43913159297372
C           -3.88661802665882        2.01664310287826        4.11596458468042
C           -3.55317699578833        1.08294697978115        3.13985669776968
C           -0.65956807976811       -2.81660159562750        6.93238777227690
C           -0.07157961240118       -2.85434965566784        8.24154829210596
C           -0.13689671733430       -1.72141792591284        9.02447262170486
C           -0.92602150889026       -0.64103847853231        8.64868526279274
O           -1.17248931102414       -3.99067199858450        6.43784629629456
O            1.16692294972715       -2.75515723338744        5.09192508366798
C           -0.02990935316218       -4.82869025284457        0.83930781551821
C            0.33326182979178       -1.70580138411641       10.42105211602719
H           -2.07122037751893       -3.13236306686359        1.09840357011947
H            1.27086756471265       -4.62849236657128        3.27830839495314
H           -3.78759785618795        1.28868075244810        2.03251627328231
H           -3.53307419463376        2.69004849317697        6.14327450408778
H           -1.07451405376168        0.09043429867151        9.38295948212668
H            0.39426878505644       -3.74813002314055        8.67253511792989
O            1.11067778989797       -5.22598691647050        0.56160372179077
O           -1.17200528713482       -5.17728495325534        0.09774225680757
C           -0.87114890661936       -5.97879446390494       -1.03239196800245
C           -4.61506845381711        3.25152411119015        3.81557974009986
O           -5.27256623445577        3.31590583615379        2.80906208722312
O           -4.65029767185245        4.00561770292882        4.91709893312010
C           -5.50080412206201        5.08303673028427        4.63630107485478
O            0.80349288529563       -2.68420947143748       10.91746186110298
O           -0.00109191710891       -0.53097375973604       11.05212961386941
C            0.48957263871026       -0.47067825581331       12.32888711265879
C           -2.49193495031728       -4.20792536212587        6.66212791409579
C            2.43178067829007       -3.25801486312406        4.97756468457804
H            0.73832070830238       -1.45918178057973       12.72238701953170
H           -0.05726499605164        0.17118179700897       12.98360963778899
H            1.47521177843828       -0.09868079324899       12.22661500632023
H           -6.02524180178986        5.01181140222900        3.68215115487004
H           -4.98381579680767        6.03998437622745        4.63374449042193
H           -6.26392140797435        5.17002766156752        5.41036876207388
H            3.05180699011250       -2.72975670019392        5.63477872151063
H            2.79268109138195       -3.36256023516479        4.00358155125411
H            2.21515470640435       -4.28061013103657        5.30244013899619
H           -2.97025208168507       -3.74457166103127        7.55529787671099
H           -2.57899954197636       -5.25912379612322        6.77232915835991
H           -2.91507095545027       -3.93423837554397        5.63774673185852
H           -1.65072949006098       -5.94416340916169       -1.80532952425831
H           -0.55732014666657       -6.97339456926396       -0.62716412771306
H           -0.06625023093911       -5.32564661786097       -1.41000876520686
116
 energy: -22.880625074360 gnorm: 0.364022515358 xtb: 6.6.1 (8d0f1dd)
C           -1.50430537019821       -0.39002315697445       -1.49740815824473
C           -1.68303811962775        0.48952711202036       -0.43005432793191
C           -0.64541490910490        0.50401892429749        0.57398318760470
C            0.43831001037108       -0.33743536344462        0.58860111094509
C            0.48149765135054       -1.26467226797323       -0.47027775394860
C           -0.46468846189291       -1.35313875247744       -1.47503101568053
C           -0.66981839484347        1.53886606227128        1.58539324437522
C            0.12679478115497        1.34763920129672        2.69521313570457
C            0.97461517494970        0.25941204626052        2.83351711109773
N            1.26235334320310       -0.45073323541397        1.70877329859419
C           -1.47514661001361        2.78900966012798        1.58510073194106
C           -1.73292077019720        3.41862950787229        2.83150750693854
N           -1.15577759766253        3.10707084974228        3.96046851424199
C           -0.20394852134409        2.18952467246584        3.88304551259563
C            0.38719558250012        1.87316166639023        5.08931705470866
C            1.36783381744276        0.88341261522248        5.19068360992943
C            1.75679128636520        0.23097518924257        4.01994455863131
C           -1.87449977959826        3.49911659583756        0.41449947331482
C           -2.72915232902346        4.65816264404370        0.52207045224077
C           -2.96696054215746        5.19876270257077        1.81385229139441
C           -2.47379796186902        4.62674051431930        2.87431737789864
O           -1.11737356878446        3.11769330116968       -0.73724173769612
O           -2.74332681288880        1.34789040236687       -0.18316820822330
C           -0.22725991944943       -2.22175576394347       -2.64111107784590
C           -3.67595356374720        6.45004874914681        1.73782530233895
H            0.98045115438579       -2.12495049838624       -0.41469524815454
H           -2.28701281447457       -0.52945977873433       -2.18387542910487
H            2.63740975153807       -0.38847580374778        4.18319245093797
H            0.30385519317936        2.45688483144158        6.04184355293121
H           -2.60070337610538        5.05145076919225        3.83101331123115
H           -3.00122163208908        5.20352193741932       -0.39213218298425
O            0.59698172587317       -3.11420033900276       -2.68064459592018