      -----------------------------------------------------------      
     |                   =====================                   |     
     |                           x T B                           |     
     |                   =====================                   |     
     |                         S. Grimme                         |     
     |          Mulliken Center for Theoretical Chemistry        |     
     |                    University of Bonn                     |     
      -----------------------------------------------------------      

   * xtb version 6.6.1 (8d0f1dd) compiled by 'runner@Mac-1690902418499.local' on 2023-08-01

   xtb is free software: you can redistribute it and/or modify it under
   the terms of the GNU Lesser General Public License as published by
   the Free Software Foundation, either version 3 of the License, or
   (at your option) any later version.
   
   xtb is distributed in the hope that it will be useful,
   but WITHOUT ANY WARRANTY; without even the implied warranty of
   MERCHANTABILITY or FITNESS FOR A PARTICULAR PURPOSE.  See the
   GNU Lesser General Public License for more details.
   
   Cite this work as:
   * C. Bannwarth, E. Caldeweyher, S. Ehlert, A. Hansen, P. Pracht,
     J. Seibert, S. Spicher, S. Grimme, WIREs Comput. Mol. Sci., 2020, 11,
     e01493. DOI: 10.1002/wcms.1493
   
   for GFN2-xTB:
   * C. Bannwarth, S. Ehlert and S. Grimme., J. Chem. Theory Comput., 2019,
     15, 1652-1671. DOI: 10.1021/acs.jctc.8b01176
   for GFN1-xTB:
   * S. Grimme, C. Bannwarth, P. Shushkov, J. Chem. Theory Comput., 2017,
     13, 1989-2009. DOI: 10.1021/acs.jctc.7b00118
   for GFN0-xTB:
   * P. Pracht, E. Caldeweyher, S. Ehlert, S. Grimme, ChemRxiv, 2019, preprint.
     DOI: 10.26434/chemrxiv.8326202.v1
   for GFN-FF:
   * S. Spicher and S. Grimme, Angew. Chem. Int. Ed., 2020, 59, 15665-15673.
     DOI: 10.1002/anie.202004239
   
   for ALPB and GBSA implicit solvation:
   * S. Ehlert, M. Stahn, S. Spicher, S. Grimme, J. Chem. Theory Comput.,
     2021, 17, 4250-4261. DOI: 10.1021/acs.jctc.1c00471
   
   for DFT-D4:
   * E. Caldeweyher, C. Bannwarth and S. Grimme, J. Chem. Phys., 2017,
     147, 034112. DOI: 10.1063/1.4993215
   * E. Caldeweyher, S. Ehlert, A. Hansen, H. Neugebauer, S. Spicher,
     C. Bannwarth and S. Grimme, J. Chem. Phys., 2019, 150, 154122.
     DOI: 10.1063/1.5090222
   * E. Caldeweyher, J.-M. Mewes, S. Ehlert and S. Grimme, Phys. Chem. Chem. Phys.
     2020, 22, 8499-8512. DOI: 10.1039/D0CP00502A
   
   for sTDA-xTB:
   * S. Grimme and C. Bannwarth, J. Chem. Phys., 2016, 145, 054103.
     DOI: 10.1063/1.4959605
   
   in the mass-spec context:
   * V. Asgeirsson, C. Bauer and S. Grimme, Chem. Sci., 2017, 8, 4879.
     DOI: 10.1039/c7sc00601b
   * J. Koopman and S. Grimme, ACS Omega 2019, 4, 12, 15120-15133.
     DOI: 10.1021/acsomega.9b02011
   
   for metadynamics refer to:
   * S. Grimme, J. Chem. Theory Comput., 2019, 155, 2847-2862
     DOI: 10.1021/acs.jctc.9b00143
   
   for SPH calculations refer to:
   * S. Spicher and S. Grimme, J. Chem. Theory Comput., 2021, 17, 1701-1714
     DOI: 10.1021/acs.jctc.0c01306
   
   with help from (in alphabetical order)
   P. Atkinson, C. Bannwarth, F. Bohle, G. Brandenburg, E. Caldeweyher
   M. Checinski, S. Dohm, S. Ehlert, S. Ehrlich, I. Gerasimov, C. Hölzer
   A. Katbashev, J. Koopman, C. Lavigne, S. Lehtola, F. März, M. Müller,
   F. Musil, H. Neugebauer, J. Pisarek, C. Plett, P. Pracht, F. Pultar,
   J. Seibert, P. Shushkov, S. Spicher, M. Stahn, M. Steiner, T. Strunk,
   J. Stückrath, T. Rose, and J. Unsleber
   
 * started run on 2024/11/01 at 13:46:17.943     

           -------------------------------------------------
          |                Calculation Setup                |
           -------------------------------------------------

          program call               : xtb Blatter2.mol --opt --gfn2 --chrg -1 --uhf 0 --tight
          coordinate file            : Blatter2.mol
          omp threads                :                     8

   ID    Z sym.   atoms
    1    6 C      1-18, 28, 29, 31-34, 36, 43
    2    1 H      19-26, 38-42
    3    8 O      27
    4    7 N      30, 35, 37
    5    9 F      44-46
########################################################################
[WARNING] Please study the warnings concerning your input carefully
-1- prog_main_parseArguments: Unknown option '--tight' provided
########################################################################

           -------------------------------------------------
          |                 G F N 2 - x T B                 |
           -------------------------------------------------

        Reference                      10.1021/acs.jctc.8b01176
      * Hamiltonian:
        H0-scaling (s, p, d)           1.850000    2.230000    2.230000
        zeta-weighting                 0.500000
      * Dispersion:
        s8                             2.700000
        a1                             0.520000
        a2                             5.000000
        s9                             5.000000
      * Repulsion:
        kExp                           1.500000    1.000000
        rExp                           1.000000
      * Coulomb:
        alpha                          2.000000
        third order                    shell-resolved
        anisotropic                    true
        a3                             3.000000
        a5                             4.000000
        cn-shift                       1.200000
        cn-exp                         4.000000
        max-rad                        5.000000

q/qsh data taken from xtbrestart
CAMM data taken from xtbrestart

          ...................................................
          :                      SETUP                      :
          :.................................................:
          :  # basis functions                 145          :
          :  # atomic orbitals                 145          :
          :  # shells                           79          :
          :  # electrons                       160          :
          :  max. iterations                   250          :
          :  Hamiltonian                  GFN2-xTB          :
          :  restarted?                       true          :
          :  GBSA solvation                  false          :
          :  PC potential                    false          :
          :  electronic temp.          300.0000000     K    :
          :  accuracy                    1.0000000          :
          :  -> integral cutoff          0.2500000E+02      :
          :  -> integral neglect         0.1000000E-07      :
          :  -> SCF convergence          0.1000000E-05 Eh   :
          :  -> wf. convergence          0.1000000E-03 e    :
          :  Broyden damping             0.4000000          :
          ...................................................

 iter      E             dE          RMSdq      gap      omega  full diag
   1    -88.6785576 -0.886786E+02  0.371E+00    0.27       0.0  T
   2    -88.2045679  0.473990E+00  0.407E+00    0.24       1.0  T
   3    -89.0987765 -0.894209E+00  0.203E+00    0.79       1.0  T
   4    -88.7630430  0.335733E+00  0.263E+00    0.45       1.0  T
   5    -89.0505132 -0.287470E+00  0.151E+00    0.63       1.0  T
   6    -89.0837179 -0.332047E-01  0.128E+00    0.14       1.0  T
   7    -89.1222330 -0.385150E-01  0.115E+00    0.36       1.0  T
   8    -89.1860537 -0.638208E-01  0.717E-01    0.16       1.0  T
   9    -89.2046129 -0.185592E-01  0.534E-01    0.06       1.0  T
  10    -89.2239926 -0.193797E-01  0.178E-01    0.09       1.0  T
  11    -89.2255648 -0.157218E-02  0.893E-02    0.07       1.0  T
  12    -89.2260980 -0.533198E-03  0.284E-02    0.08       1.0  T
  13    -89.2261175 -0.195830E-04  0.244E-02    0.07       1.0  T
  14    -89.2261534 -0.358755E-04  0.994E-03    0.08       1.5  T
  15    -89.2261606 -0.722190E-05  0.139E-03    0.08      10.6  T
  16    -89.2261607 -0.186788E-07  0.933E-04    0.08      15.8  T
  17    -89.2261606  0.414915E-07  0.115E-03    0.08      12.9  T
  18    -89.2261607 -0.740946E-07  0.594E-04    0.08      24.8  T

   *** convergence criteria satisfied after 18 iterations ***

         #    Occupation            Energy/Eh            Energy/eV
      -------------------------------------------------------------
         1        2.0000           -0.6657293             -18.1154
       ...           ...                  ...                  ...
        74        2.0000           -0.2861160              -7.7856
        75        2.0000           -0.2754099              -7.4943
        76        2.0000           -0.2714954              -7.3878
        77        2.0000           -0.2686300              -7.3098
        78        2.0000           -0.2626769              -7.1478
        79        2.0000           -0.2442113              -6.6453
        80        1.6262           -0.2257927              -6.1441 (HOMO)
        81        0.3738           -0.2229988              -6.0681 (LUMO)
        82                         -0.1963477              -5.3429
        83                         -0.1888415              -5.1386
        84                         -0.1659725              -4.5163
        85                         -0.1616145              -4.3978
       ...                                ...                  ...
       145                          0.4781661              13.0116
      -------------------------------------------------------------
                  HL-Gap            0.0027940 Eh            0.0760 eV
             Fermi-level           -0.2243958 Eh           -6.1061 eV

 SCC (total)                   0 d,  0 h,  0 min,  0.405 sec
 SCC setup                      ...        0 min,  0.000 sec (  0.029%)
 Dispersion                     ...        0 min,  0.000 sec (  0.070%)
 classical contributions        ...        0 min,  0.000 sec (  0.022%)
 integral evaluation            ...        0 min,  0.002 sec (  0.429%)
 iterations                     ...        0 min,  0.387 sec ( 95.483%)
 molecular gradient             ...        0 min,  0.016 sec (  3.892%)
 printout                       ...        0 min,  0.000 sec (  0.073%)

         :::::::::::::::::::::::::::::::::::::::::::::::::::::
         ::                     SUMMARY                     ::
         :::::::::::::::::::::::::::::::::::::::::::::::::::::
         :: total energy             -88.729517769447 Eh    ::
         :: gradient norm              0.345845101322 Eh/a0 ::
         :: HOMO-LUMO gap              0.076027272879 eV    ::
         ::.................................................::
         :: SCC energy               -89.226160696299 Eh    ::
         :: -> isotropic ES            0.145229352499 Eh    ::
         :: -> anisotropic ES          0.018715873989 Eh    ::
         :: -> anisotropic XC          0.064706498259 Eh    ::
         :: -> dispersion             -0.067586276609 Eh    ::
         :: repulsion energy           0.495689356840 Eh    ::
         :: add. restraining           0.000000000000 Eh    ::
         :: total charge              -0.999999741040 e     ::
         :::::::::::::::::::::::::::::::::::::::::::::::::::::

      ----------------------------------------------------------- 
     |                   =====================                   |
     |                        A N C O P T                        |
     |                   =====================                   |
     |               Approximate Normal Coordinate               |
     |                Rational Function Optimizer                |
      ----------------------------------------------------------- 

          ...................................................
          :                      SETUP                      :
          :.................................................:
          :   optimization level            normal          :
          :   max. optcycles                   200          :
          :   ANC micro-cycles                  20          :
          :   degrees of freedom               132          :
          :.................................................:
          :   RF solver                   davidson          :
          :   write xtbopt.log                true          :
          :   linear?                        false          :
          :   energy convergence         0.5000000E-05 Eh   :
          :   grad. convergence          0.1000000E-02 Eh/α :
          :   maxmium RF displ.          1.0000000          :
          :   Hlow (freq-cutoff)         0.1000000E-01      :
          :   Hmax (freq-cutoff)         5.0000000          :
          :   S6 in model hess.         20.0000000          :
          ...................................................

generating ANC from model Hessian ...
Using Lindh-Hessian (1995)
 Shifting diagonal of input Hessian by    9.8218641158713555E-003
 Lowest  eigenvalues of input Hessian
    0.000000    0.000000    0.000000    0.000000    0.000000    0.000000
    0.010000    0.010095    0.010301    0.010499    0.010701    0.010922
    0.011198    0.011313    0.011754    0.012310    0.012464    0.012791
 Highest eigenvalues
    1.233054    1.237105    1.258796    1.306008    1.323221    1.335834


........................................................................
.............................. CYCLE    1 ..............................
........................................................................

 iter      E             dE          RMSdq      gap      omega  full diag
   1    -89.2261607 -0.892262E+02  0.386E-04    0.08       0.0  T
   2    -89.2261507  0.100010E-04  0.112E-02    0.08       1.3  T
   3    -89.2261607 -0.100107E-04  0.164E-04    0.08      89.7  T
   4    -89.2261607 -0.153904E-09  0.146E-04    0.08     101.2  T
   5    -89.2261607 -0.157976E-08  0.384E-05    0.08     383.6  T
     SCC iter.                  ...        0 min,  0.056 sec
     gradient                   ...        0 min,  0.006 sec
 * total energy  :   -88.7295178 Eh     change       -0.2484798E-07 Eh
   gradient norm :     0.3458445 Eh/α   predicted     0.0000000E+00 (-100.00%)
   displ. norm   :     0.8158973 α      lambda       -0.2662644E+00
   maximum displ.:     0.4445465 α      in ANC's #73, #67, #81, ...

........................................................................
.............................. CYCLE    2 ..............................
........................................................................

 iter      E             dE          RMSdq      gap      omega  full diag
   1    -89.5806486 -0.895806E+02  0.473E-01    0.08       0.0  T
   2    -89.5140533  0.665953E-01  0.976E-01    0.20       1.0  T
   3    -89.4049193  0.109134E+00  0.152E+00    0.11       1.0  T
   4    -89.5448571 -0.139938E+00  0.750E-01    0.18       1.0  T
   5    -89.5625735 -0.177163E-01  0.505E-01    0.12       1.0  T
   6    -89.5787056 -0.161321E-01  0.221E-01    0.11       1.0  T
   7    -89.5813466 -0.264100E-02  0.115E-01    0.09       1.0  T
   8    -89.5823216 -0.975002E-03  0.253E-02    0.09       1.0  T
   9    -89.5823547 -0.330955E-04  0.660E-03    0.08       2.2  T
  10    -89.5823561 -0.140629E-05  0.322E-03    0.09       4.6  T
  11    -89.5823567 -0.580161E-06  0.108E-03    0.09      13.7  T
  12    -89.5823555  0.115337E-05  0.390E-03    0.08       3.8  T
  13    -89.5823567 -0.119839E-05  0.203E-04    0.09      72.5  T
  14    -89.5823567  0.278438E-07  0.630E-04    0.09      23.4  T
  15    -89.5823567 -0.218016E-07  0.315E-04    0.09      46.9  T
     SCC iter.                  ...        0 min,  0.305 sec
     gradient                   ...        0 min,  0.006 sec
 * total energy  :   -88.9676909 Eh     change       -0.2381731E+00 Eh
   gradient norm :     0.2629541 Eh/α   predicted    -0.2217576E+00 (  -6.89%)
   displ. norm   :     0.8741387 α      lambda       -0.2220829E+00
   maximum displ.:     0.4395345 α      in ANC's #73, #67, #36, ...

........................................................................
.............................. CYCLE    3 ..............................
........................................................................

 iter      E             dE          RMSdq      gap      omega  full diag
   1    -89.9188028 -0.899188E+02  0.553E-01    0.08       0.0  T
   2    -89.7657300  0.153073E+00  0.147E+00    0.92       1.0  T
   3    -89.8891185 -0.123389E+00  0.794E-01    0.19       1.0  T
   4    -89.7130691  0.176049E+00  0.168E+00    0.13       1.0  T
   5    -89.8962522 -0.183183E+00  0.680E-01    0.16       1.0  T
   6    -89.9292763 -0.330240E-01  0.113E-01    0.12       1.0  T
   7    -89.9237473  0.552899E-02  0.283E-01    0.12       1.0  T
   8    -89.9300492 -0.630196E-02  0.228E-02    0.10       1.0  T
   9    -89.9300238  0.254311E-04  0.258E-02    0.10       1.0  T
  10    -89.9299599  0.639191E-04  0.371E-02    0.10       1.0  T
  11    -89.9300678 -0.107954E-03  0.369E-03    0.10       4.0  T
  12    -89.9300688 -0.968541E-06  0.718E-04    0.10      20.5  T
  13    -89.9300688  0.388067E-07  0.903E-04    0.10      16.3  T
     SCC iter.                  ...        0 min,  0.149 sec
     gradient                   ...        0 min,  0.006 sec
 * total energy  :   -89.1564239 Eh     change       -0.1887330E+00 Eh
   gradient norm :     0.1781321 Eh/α   predicted    -0.1958932E+00 (   3.79%)
   displ. norm   :     0.8423300 α      lambda       -0.1465760E+00
   maximum displ.:     0.3752603 α      in ANC's #73, #36, #67, ...

........................................................................
.............................. CYCLE    4 ..............................
........................................................................

 iter      E             dE          RMSdq      gap      omega  full diag
   1    -90.1263829 -0.901264E+02  0.103E+00    0.12       0.0  T
   2    -89.8250547  0.301328E+00  0.221E+00    1.13       1.0  T
   3    -90.0979515 -0.272897E+00  0.127E+00    0.81       1.0  T
   4    -90.1309945 -0.330430E-01  0.104E+00    0.40       1.0  T
   5    -90.1912733 -0.602788E-01  0.474E-01    0.13       1.0  T
   6    -90.1741073  0.171660E-01  0.667E-01    0.20       1.0  T
   7    -90.2056399 -0.315325E-01  0.205E-01    0.12       1.0  T
   8    -90.2088047 -0.316487E-02  0.206E-02    0.13       1.0  T
   9    -90.2087802  0.245482E-04  0.243E-02    0.13       1.0  T
  10    -90.2085045  0.275719E-03  0.637E-02    0.14       1.0  T
  11    -90.2088203 -0.315876E-03  0.671E-03    0.13       2.2  T
  12    -90.2088236 -0.329820E-05  0.204E-03    0.13       7.2  T
  13    -90.2088237 -0.425095E-07  0.177E-03    0.13       8.3  T
  14    -90.2088239 -0.208668E-06  0.570E-04    0.13      25.9  T
  15    -90.2088239 -0.186296E-07  0.296E-04    0.13      49.9  T
     SCC iter.                  ...        0 min,  0.257 sec
     gradient                   ...        0 min,  0.006 sec
 * total energy  :   -89.2792633 Eh     change       -0.1228395E+00 Eh
   gradient norm :     0.1255731 Eh/α   predicted    -0.1252874E+00 (   1.99%)
   displ. norm   :     0.8313235 α      lambda       -0.9873842E-01
   maximum displ.:     0.3678405 α      in ANC's #36, #67, #73, ...

........................................................................
.............................. CYCLE    5 ..............................
........................................................................

 iter      E             dE          RMSdq      gap      omega  full diag
   1    -90.3781823 -0.903782E+02  0.767E-01    0.18       0.0  T
   2    -90.1762462  0.201936E+00  0.179E+00    1.12       1.0  T
   3    -90.3580584 -0.181812E+00  0.960E-01    0.57       1.0  T
   4    -90.3854751 -0.274167E-01  0.726E-01    0.35       1.0  T
   5    -90.3929631 -0.748794E-02  0.592E-01    0.17       1.0  T
   6    -90.4154900 -0.225270E-01  0.284E-01    0.23       1.0  T
   7    -90.4213628 -0.587277E-02  0.219E-02    0.20       1.0  T
   8    -90.4211008  0.262004E-03  0.607E-02    0.20       1.0  T
   9    -90.4213771 -0.276275E-03  0.128E-02    0.20       1.2  T
  10    -90.4213190  0.580989E-04  0.297E-02    0.20       1.0  T
  11    -90.4213854 -0.664411E-04  0.615E-03    0.20       2.4  T
  12    -90.4213877 -0.228701E-05  0.272E-03    0.20       5.4  T
  13    -90.4213868  0.942663E-06  0.435E-03    0.20       3.4  T
  14    -90.4213882 -0.141304E-05  0.110E-03    0.20      13.4  T
  15    -90.4213883 -0.934233E-07  0.145E-04    0.20     101.6  T
  16    -90.4213883 -0.131709E-08  0.556E-05    0.20     265.4  T
     SCC iter.                  ...        0 min,  0.343 sec
     gradient                   ...        0 min,  0.006 sec
 * total energy  :   -89.3633065 Eh     change       -0.8404317E-01 Eh
   gradient norm :     0.0907405 Eh/α   predicted    -0.8348851E-01 (  -0.66%)
   displ. norm   :     0.8704938 α      lambda       -0.7359780E-01
   maximum displ.:     0.3936862 α      in ANC's #36, #67, #30, ...

........................................................................
.............................. CYCLE    6 ..............................
........................................................................

 iter      E             dE          RMSdq      gap      omega  full diag
   1    -90.5803990 -0.905804E+02  0.513E-01    0.39       0.0  T
   2    -90.2629126  0.317486E+00  0.196E+00    0.41       1.0  T
   3    -90.5676462 -0.304734E+00  0.554E-01    0.51       1.0  T
   4    -90.5793633 -0.117171E-01  0.374E-01    0.43       1.0  T
   5    -90.5854146 -0.605133E-02  0.199E-01    0.38       1.0  T
   6    -90.5873503 -0.193566E-02  0.118E-01    0.35       1.0  T
   7    -90.5881128 -0.762502E-03  0.635E-02    0.33       1.0  T
   8    -90.5883082 -0.195405E-03  0.187E-02    0.32       1.0  T
   9    -90.5883313 -0.230912E-04  0.417E-03    0.32       3.5  T
  10    -90.5883318 -0.547290E-06  0.182E-03    0.31       8.1  T
  11    -90.5883318  0.926577E-07  0.152E-03    0.31       9.7  T
  12    -90.5883319 -0.125951E-06  0.547E-04    0.31      26.9  T
  13    -90.5883319 -0.196522E-07  0.149E-04    0.32      99.0  T
     SCC iter.                  ...        0 min,  0.165 sec
     gradient                   ...        0 min,  0.006 sec
 * total energy  :   -89.4277490 Eh     change       -0.6444251E-01 Eh
   gradient norm :     0.0758404 Eh/α   predicted    -0.6468379E-01 (   0.37%)
   displ. norm   :     0.8866070 α      lambda       -0.5919591E-01
   maximum displ.:     0.3597996 α      in ANC's #36, #30, #26, ...

........................................................................
.............................. CYCLE    7 ..............................
........................................................................

 iter      E             dE          RMSdq      gap      omega  full diag
   1    -90.7014383 -0.907014E+02  0.527E-01    0.87       0.0  T
   2    -90.5163770  0.185061E+00  0.151E+00    0.35       1.0  T
   3    -90.7085939 -0.192217E+00  0.335E-01    0.76       1.0  T
   4    -90.7134080 -0.481405E-02  0.185E-01    0.60       1.0  T
   5    -90.7150059 -0.159796E-02  0.725E-02    0.53       1.0  T
   6    -90.7151456 -0.139630E-03  0.405E-02    0.51       1.0  T
   7    -90.7151755 -0.299463E-04  0.210E-02    0.51       1.0  T
   8    -90.7151923 -0.168035E-04  0.622E-03    0.50       2.4  T
   9    -90.7151941 -0.181938E-05  0.284E-03    0.50       5.2  T
  10    -90.7151945 -0.399020E-06  0.984E-04    0.50      15.0  T
  11    -90.7151945 -0.973395E-08  0.534E-04    0.50      27.6  T
     SCC iter.                  ...        0 min,  0.213 sec
     gradient                   ...        0 min,  0.006 sec
 * total energy  :   -89.4799183 Eh     change       -0.5216925E-01 Eh
   gradient norm :     0.0816015 Eh/α   predicted    -0.5286408E-01 (   1.33%)
   displ. norm   :     0.8413194 α      lambda       -0.5179780E-01
   maximum displ.:     0.3247032 α      in ANC's #36, #26, #23, ...

........................................................................
.............................. CYCLE    8 ..............................
........................................................................

 iter      E             dE          RMSdq      gap      omega  full diag
   1    -90.8019399 -0.908019E+02  0.434E-01    1.04       0.0  T
   2    -90.8045793 -0.263939E-02  0.378E-01    0.74       1.0  T
   3    -90.8100242 -0.544483E-02  0.156E-01    0.88       1.0  T
   4    -90.8096422  0.381936E-03  0.107E-01    0.81       1.0  T
   5    -90.8103100 -0.667794E-03  0.310E-02    0.81       1.0  T
   6    -90.8103216 -0.115754E-04  0.135E-02    0.83       1.1  T
   7    -90.8103282 -0.658458E-05  0.562E-03    0.83       2.6  T
   8    -90.8103296 -0.138758E-05  0.231E-03    0.83       6.4  T
   9    -90.8103296 -0.732858E-07  0.125E-03    0.83      11.8  T
  10    -90.8103297 -0.503331E-07  0.573E-04    0.83      25.7  T
  11    -90.8103297 -0.716342E-08  0.234E-04    0.83      63.1  T
     SCC iter.                  ...        0 min,  0.163 sec
     gradient                   ...        0 min,  0.007 sec
 * total energy  :   -89.5245792 Eh     change       -0.4466092E-01 Eh
   gradient norm :     0.0880909 Eh/α   predicted    -0.4423071E-01 (  -0.96%)
   displ. norm   :     0.7745361 α      lambda       -0.4591651E-01
   maximum displ.:     0.3384144 α      in ANC's #92, #21, #23, ...

........................................................................
.............................. CYCLE    9 ..............................
........................................................................

 iter      E             dE          RMSdq      gap      omega  full diag
   1    -90.8786246 -0.908786E+02  0.362E-01    1.05       0.0  T
   2    -90.8813536 -0.272907E-02  0.259E-01    0.99       1.0  T
   3    -90.8822761 -0.922495E-03  0.137E-01    1.01       1.0  T
   4    -90.8820523  0.223869E-03  0.831E-02    1.00       1.0  T
   5    -90.8823972 -0.344974E-03  0.233E-02    1.00       1.0  T
   6    -90.8824085 -0.112801E-04  0.873E-03    1.00       1.7  T
   7    -90.8824119 -0.336124E-05  0.350E-03    1.00       4.2  T
   8    -90.8824119 -0.771789E-07  0.192E-03    1.00       7.7  T
   9    -90.8824121 -0.124081E-06  0.733E-04    1.00      20.1  T
  10    -90.8824121 -0.148741E-07  0.254E-04    1.00      58.0  T
     SCC iter.                  ...        0 min,  0.146 sec
     gradient                   ...        0 min,  0.006 sec
 * total energy  :   -89.5582394 Eh     change       -0.3366019E-01 Eh
   gradient norm :     0.0856073 Eh/α   predicted    -0.3673115E-01 (   9.12%)
   displ. norm   :     0.7175738 α      lambda       -0.3727457E-01
   maximum displ.:     0.2755170 α      in ANC's #92, #21, #23, ...

........................................................................
.............................. CYCLE   10 ..............................
........................................................................

 iter      E             dE          RMSdq      gap      omega  full diag
   1    -90.8852786 -0.908853E+02  0.340E-01    1.03       0.0  T
   2    -90.8860278 -0.749224E-03  0.193E-01    1.06       1.0  T
   3    -90.8860303 -0.250917E-05  0.104E-01    1.05       1.0  T
   4    -90.8861665 -0.136178E-03  0.333E-02    1.06       1.0  T
   5    -90.8861721 -0.565206E-05  0.171E-02    1.06       1.0  T
   6    -90.8861876 -0.155028E-04  0.586E-03    1.06       2.5  T
   7    -90.8861889 -0.123800E-05  0.296E-03    1.06       5.0  T
   8    -90.8861890 -0.134264E-06  0.864E-04    1.06      17.1  T
   9    -90.8861890 -0.121267E-07  0.382E-04    1.06      38.6  T
     SCC iter.                  ...        0 min,  0.101 sec
     gradient                   ...        0 min,  0.016 sec
 * total energy  :   -89.5766891 Eh     change       -0.1844976E-01 Eh
   gradient norm :     0.1046901 Eh/α   predicted    -0.2823386E-01 (  53.03%)
   displ. norm   :     0.4679735 α      lambda       -0.2832580E-01
   maximum displ.:     0.1823081 α      in ANC's #92, #11, #13, ...

........................................................................
.............................. CYCLE   11 ..............................
........................................................................

 iter      E             dE          RMSdq      gap      omega  full diag
   1    -90.8737850 -0.908738E+02  0.286E-01    1.05       0.0  T
   2    -90.8747526 -0.967582E-03  0.191E-01    1.01       1.0  T
   3    -90.8748643 -0.111739E-03  0.109E-01    1.03       1.0  T
   4    -90.8749338 -0.695173E-04  0.418E-02    1.02       1.0  T
   5    -90.8750257 -0.918599E-04  0.130E-02    1.02       1.1  T
   6    -90.8750272 -0.152809E-05  0.834E-03    1.02       1.8  T
   7    -90.8750313 -0.408304E-05  0.223E-03    1.02       6.6  T
   8    -90.8750314 -0.792108E-07  0.121E-03    1.02      12.2  T
   9    -90.8750314 -0.317879E-07  0.418E-04    1.02      35.3  T
  10    -90.8750314 -0.181963E-08  0.243E-04    1.02      60.7  T
     SCC iter.                  ...        0 min,  0.151 sec
     gradient                   ...        0 min,  0.006 sec
 * total energy  :   -89.5888159 Eh     change       -0.1212675E-01 Eh
   gradient norm :     0.1049888 Eh/α   predicted    -0.1726457E-01 (  42.37%)
   displ. norm   :     0.5135442 α      lambda       -0.2783142E-01
   maximum displ.:     0.1657841 α      in ANC's #5, #24, #11, ...

........................................................................
.............................. CYCLE   12 ..............................
........................................................................

 iter      E             dE          RMSdq      gap      omega  full diag
   1    -90.8677335 -0.908677E+02  0.339E-01    1.07       0.0  T
   2    -90.8685770 -0.843503E-03  0.201E-01    1.03       1.0  T
   3    -90.8685170  0.600737E-04  0.120E-01    1.06       1.0  T
   4    -90.8687601 -0.243172E-03  0.525E-02    1.04       1.0  T
   5    -90.8688276 -0.674473E-04  0.278E-02    1.05       1.0  T
   6    -90.8688675 -0.398806E-04  0.392E-03    1.04       3.8  T
   7    -90.8688680 -0.490608E-06  0.192E-03    1.04       7.7  T
   8    -90.8688680 -0.365954E-07  0.880E-04    1.04      16.8  T
   9    -90.8688680 -0.225959E-07  0.311E-04    1.04      47.4  T
     SCC iter.                  ...        0 min,  0.143 sec
     gradient                   ...        0 min,  0.006 sec
 * total energy  :   -89.6018367 Eh     change       -0.1302078E-01 Eh
   gradient norm :     0.0733918 Eh/α   predicted    -0.1758567E-01 (  35.06%)
   displ. norm   :     0.5863443 α      lambda       -0.2699544E-01
   maximum displ.:     0.2275127 α      in ANC's #11, #8, #92, ...

........................................................................
.............................. CYCLE   13 ..............................
........................................................................

 iter      E             dE          RMSdq      gap      omega  full diag
   1    -90.8531816 -0.908532E+02  0.360E-01    1.04       0.0  T
   2    -90.8541219 -0.940278E-03  0.218E-01    1.04       1.0  T
   3    -90.8539079  0.214031E-03  0.126E-01    1.06       1.0  T
   4    -90.8543032 -0.395323E-03  0.488E-02    1.04       1.0  T
   5    -90.8543540 -0.508348E-04  0.200E-02    1.05       1.0  T
   6    -90.8543775 -0.234446E-04  0.525E-03    1.05       2.8  T
   7    -90.8543783 -0.859187E-06  0.282E-03    1.05       5.2  T
   8    -90.8543784 -0.717972E-07  0.161E-03    1.05       9.1  T
   9    -90.8543785 -0.978159E-07  0.364E-04    1.05      40.5  T
  10    -90.8543785 -0.449043E-08  0.156E-04    1.05      94.4  T
     SCC iter.                  ...        0 min,  0.145 sec
     gradient                   ...        0 min,  0.007 sec
 * total energy  :   -89.6061288 Eh     change       -0.4292134E-02 Eh
   gradient norm :     0.0756503 Eh/α   predicted    -0.1813823E-01 ( 322.59%)
   displ. norm   :     0.5208928 α      lambda       -0.2728824E-01
   maximum displ.:     0.1950392 α      in ANC's #5, #75, #74, ...

........................................................................
.............................. CYCLE   14 ..............................
........................................................................

 iter      E             dE          RMSdq      gap      omega  full diag
   1    -90.8556924 -0.908557E+02  0.370E-01    1.05       0.0  T
   2    -90.8568675 -0.117508E-02  0.230E-01    1.08       1.0  T
   3    -90.8568846 -0.171071E-04  0.135E-01    1.05       1.0  T
   4    -90.8571955 -0.310958E-03  0.537E-02    1.07       1.0  T
   5    -90.8572329 -0.374033E-04  0.281E-02    1.06       1.0  T
   6    -90.8572702 -0.372802E-04  0.484E-03    1.07       3.0  T
   7    -90.8572711 -0.900739E-06  0.230E-03    1.07       6.4  T
   8    -90.8572711 -0.192104E-07  0.119E-03    1.07      12.3  T
   9    -90.8572712 -0.595624E-07  0.381E-04    1.07      38.7  T
  10    -90.8572712 -0.562088E-08  0.161E-04    1.07      91.5  T
     SCC iter.                  ...        0 min,  0.117 sec
     gradient                   ...        0 min,  0.007 sec
 * total energy  :   -89.6105040 Eh     change       -0.4375204E-02 Eh
   gradient norm :     0.0809312 Eh/α   predicted    -0.1734618E-01 ( 296.47%)
   displ. norm   :     0.5122725 α      lambda       -0.2796043E-01
   maximum displ.:     0.1863177 α      in ANC's #67, #92, #27, ...

........................................................................
.............................. CYCLE   15 ..............................
........................................................................

 iter      E             dE          RMSdq      gap      omega  full diag
   1    -90.8823248 -0.908823E+02  0.380E-01    1.13       0.0  T
   2    -90.8830550 -0.730254E-03  0.227E-01    1.12       1.0  T
   3    -90.8829179  0.137181E-03  0.104E-01    1.15       1.0  T
   4    -90.8831674 -0.249509E-03  0.425E-02    1.12       1.0  T
   5    -90.8832044 -0.370135E-04  0.195E-02    1.13       1.0  T
   6    -90.8832223 -0.178868E-04  0.517E-03    1.13       2.9  T
   7    -90.8832234 -0.108550E-05  0.212E-03    1.13       6.9  T
   8    -90.8832234 -0.297779E-07  0.123E-03    1.13      11.9  T
   9    -90.8832235 -0.599582E-07  0.373E-04    1.13      39.6  T
  10    -90.8832235 -0.630989E-08  0.132E-04    1.13     112.0  T
     SCC iter.                  ...        0 min,  0.147 sec
     gradient                   ...        0 min,  0.013 sec
 * total energy  :   -89.6177992 Eh     change       -0.7295219E-02 Eh
   gradient norm :     0.0666673 Eh/α   predicted    -0.1764894E-01 ( 141.92%)
   displ. norm   :     0.4317137 α      lambda       -0.1661576E-01
   maximum displ.:     0.1901625 α      in ANC's #11, #8, #10, ...

........................................................................
.............................. CYCLE   16 ..............................
........................................................................

 iter      E             dE          RMSdq      gap      omega  full diag
   1    -90.9024603 -0.909025E+02  0.327E-01    1.07       0.0  T
   2    -90.9033919 -0.931595E-03  0.196E-01    1.10       1.0  T
   3    -90.9032371  0.154742E-03  0.121E-01    1.07       1.0  T
   4    -90.9035573 -0.320211E-03  0.552E-02    1.10       1.0  T
   5    -90.9036727 -0.115306E-03  0.235E-02    1.09       1.0  T
   6    -90.9036961 -0.234382E-04  0.679E-03    1.09       2.2  T
   7    -90.9036980 -0.194715E-05  0.242E-03    1.09       6.1  T
   8    -90.9036981 -0.249378E-07  0.137E-03    1.09      10.8  T
   9    -90.9036981 -0.503934E-07  0.306E-04    1.09      48.2  T
  10    -90.9036981 -0.160783E-08  0.157E-04    1.09      93.9  T
     SCC iter.                  ...        0 min,  0.144 sec
     gradient                   ...        0 min,  0.006 sec
 * total energy  :   -89.6181171 Eh     change       -0.3178564E-03 Eh
   gradient norm :     0.0661524 Eh/α   predicted    -0.9856294E-02 (3000.86%)
   displ. norm   :     0.4876371 α      lambda       -0.2128885E-01
   maximum displ.:     0.2086683 α      in ANC's #21, #10, #11, ...

........................................................................
.............................. CYCLE   17 ..............................
........................................................................

 iter      E             dE          RMSdq      gap      omega  full diag
   1    -90.8999781 -0.909000E+02  0.375E-01    1.04       0.0  T
   2    -90.9015708 -0.159264E-02  0.238E-01    1.06       1.0  T
   3    -90.9016557 -0.849503E-04  0.129E-01    1.04       1.0  T
   4    -90.9017541 -0.984139E-04  0.536E-02    1.07       1.0  T
   5    -90.9018526 -0.984794E-04  0.206E-02    1.05       1.0  T
   6    -90.9018671 -0.145010E-04  0.794E-03    1.06       1.9  T
   7    -90.9018709 -0.375272E-05  0.250E-03    1.06       5.9  T
   8    -90.9018710 -0.177513E-06  0.144E-03    1.06      10.2  T
   9    -90.9018711 -0.448268E-07  0.579E-04    1.06      25.5  T
  10    -90.9018711 -0.889743E-08  0.223E-04    1.06      66.0  T
     SCC iter.                  ...        0 min,  0.112 sec
     gradient                   ...        0 min,  0.006 sec
 * total energy  :   -89.6135019 Eh     change        0.4615127E-02 Eh
   gradient norm :     0.1078988 Eh/α   predicted    -0.1317556E-01 (-385.49%)
   displ. norm   :     0.3802952 α      lambda       -0.3116244E-01
   maximum displ.:     0.1155526 α      in ANC's #11, #59, #48, ...

........................................................................
.............................. CYCLE   18 ..............................
........................................................................

 iter      E             dE          RMSdq      gap      omega  full diag
   1    -90.8918086 -0.908918E+02  0.352E-01    1.15       0.0  T
   2    -90.8925128 -0.704238E-03  0.220E-01    1.11       1.0  T
   3    -90.8924240  0.888476E-04  0.128E-01    1.15       1.0  T
   4    -90.8927999 -0.375911E-03  0.408E-02    1.11       1.0  T
   5    -90.8928820 -0.820608E-04  0.144E-02    1.13       1.0  T
   6    -90.8928873 -0.533137E-05  0.570E-03    1.12       2.6  T
   7    -90.8928883 -0.102685E-05  0.240E-03    1.13       6.1  T
   8    -90.8928885 -0.166146E-06  0.124E-03    1.13      11.9  T
   9    -90.8928885 -0.441251E-07  0.415E-04    1.13      35.5  T
  10    -90.8928885 -0.285428E-08  0.203E-04    1.13      72.6  T
     SCC iter.                  ...        0 min,  0.220 sec
     gradient                   ...        0 min,  0.018 sec
 * total energy  :   -89.6259992 Eh     change       -0.1249727E-01 Eh
   gradient norm :     0.0384963 Eh/α   predicted    -0.1783465E-01 (  42.71%)
   displ. norm   :     0.2775205 α      lambda       -0.5518378E-02
   maximum displ.:     0.0966012 α      in ANC's #3, #8, #2, ...

........................................................................
.............................. CYCLE   19 ..............................
........................................................................

 iter      E             dE          RMSdq      gap      omega  full diag
   1    -90.9125852 -0.909126E+02  0.195E-01    1.08       0.0  T
   2    -90.9126737 -0.885388E-04  0.116E-01    1.11       1.0  T
   3    -90.9125107  0.162952E-03  0.744E-02    1.07       1.0  T
   4    -90.9127571 -0.246313E-03  0.212E-02    1.10       1.0  T
   5    -90.9127815 -0.244723E-04  0.682E-03    1.09       2.2  T
   6    -90.9127823 -0.741029E-06  0.306E-03    1.09       4.8  T
   7    -90.9127826 -0.288591E-06  0.120E-03    1.10      12.3  T
   8    -90.9127826 -0.460097E-07  0.534E-04    1.09      27.6  T
   9    -90.9127826 -0.511727E-08  0.191E-04    1.09      77.2  T
     SCC iter.                  ...        0 min,  0.154 sec
     gradient                   ...        0 min,  0.006 sec
 * total energy  :   -89.6276075 Eh     change       -0.1608313E-02 Eh
   gradient norm :     0.0260591 Eh/α   predicted    -0.2971699E-02 (  84.77%)
   displ. norm   :     0.2740283 α      lambda       -0.3046091E-02
   maximum displ.:     0.1188153 α      in ANC's #3, #2, #8, ...

........................................................................
.............................. CYCLE   20 ..............................
........................................................................

 iter      E             dE          RMSdq      gap      omega  full diag
   1    -90.9125406 -0.909125E+02  0.123E-01    1.10       0.0  T
   2    -90.9125591 -0.185438E-04  0.738E-02    1.11       1.0  T
   3    -90.9125238  0.352664E-04  0.373E-02    1.10       1.0  T
   4    -90.9125681 -0.442333E-04  0.691E-03    1.11       2.1  T
   5    -90.9125703 -0.218341E-05  0.301E-03    1.11       4.9  T
   6    -90.9125706 -0.351102E-06  0.100E-03    1.11      14.7  T
   7    -90.9125706 -0.244202E-07  0.477E-04    1.11      30.9  T
   8    -90.9125706 -0.292400E-08  0.225E-04    1.11      65.6  T
     SCC iter.                  ...        0 min,  0.098 sec
     gradient                   ...        0 min,  0.006 sec
 * total energy  :   -89.6294554 Eh     change       -0.1847869E-02 Eh
   gradient norm :     0.0143413 Eh/α   predicted    -0.1637419E-02 ( -11.39%)
   displ. norm   :     0.3919025 α      lambda       -0.2498020E-02
   maximum displ.:     0.1980079 α      in ANC's #3, #2, #5, ...
 * RMSD in coord.:     1.0242022 α      energy gain  -0.8999376E+00 Eh

generating ANC from model Hessian ...
Using Lindh-Hessian (1995)
 Shifting diagonal of input Hessian by    9.2689059035896658E-003
 Lowest  eigenvalues of input Hessian
    0.000000    0.000000    0.000000    0.000000    0.000000    0.000000
    0.010000    0.010400    0.011252    0.011974    0.012180    0.013540
    0.013775    0.014910    0.016688    0.018878    0.020530    0.021221
 Highest eigenvalues
    2.042434    2.082134    2.120069    2.149800    2.198015    2.267034


........................................................................
.............................. CYCLE   21 ..............................
........................................................................

 iter      E             dE          RMSdq      gap      omega  full diag
   1    -90.9080584 -0.909081E+02  0.138E-01    1.10       0.0  T
   2    -90.9080903 -0.318696E-04  0.827E-02    1.10       1.0  T
   3    -90.9080220  0.682922E-04  0.439E-02    1.10       1.0  T
   4    -90.9081067 -0.846942E-04  0.998E-03    1.10       1.5  T
   5    -90.9081106 -0.387026E-05  0.420E-03    1.10       3.5  T
   6    -90.9081111 -0.502150E-06  0.185E-03    1.10       8.0  T
   7    -90.9081112 -0.142986E-06  0.772E-04    1.10      19.1  T
   8    -90.9081112 -0.137760E-07  0.407E-04    1.10      36.2  T
     SCC iter.                  ...        0 min,  0.102 sec
     gradient                   ...        0 min,  0.007 sec
 * total energy  :   -89.6303640 Eh     change       -0.9086012E-03 Eh
   gradient norm :     0.0209019 Eh/α   predicted     0.0000000E+00 (-100.00%)
   displ. norm   :     0.1978259 α      lambda       -0.1404893E-02
   maximum displ.:     0.1038926 α      in ANC's #4, #2, #7, ...

........................................................................
.............................. CYCLE   22 ..............................
........................................................................

 iter      E             dE          RMSdq      gap      omega  full diag
   1    -90.9155559 -0.909156E+02  0.735E-02    1.10       0.0  T
   2    -90.9155615 -0.554246E-05  0.439E-02    1.10       1.0  T
   3    -90.9155475  0.139245E-04  0.182E-02    1.10       1.0  T
   4    -90.9155636 -0.160178E-04  0.414E-03    1.10       3.6  T
   5    -90.9155645 -0.956890E-06  0.176E-03    1.10       8.4  T
   6    -90.9155646 -0.993395E-07  0.800E-04    1.10      18.4  T
   7    -90.9155646 -0.145382E-07  0.290E-04    1.10      50.9  T
     SCC iter.                  ...        0 min,  0.124 sec
     gradient                   ...        0 min,  0.009 sec
 * total energy  :   -89.6313888 Eh     change       -0.1024806E-02 Eh
   gradient norm :     0.0097605 Eh/α   predicted    -0.7299543E-03 ( -28.77%)
   displ. norm   :     0.3228614 α      lambda       -0.9807049E-03
   maximum displ.:     0.1583374 α      in ANC's #4, #2, #7, ...

........................................................................
.............................. CYCLE   23 ..............................
........................................................................

 iter      E             dE          RMSdq      gap      omega  full diag
   1    -90.9203661 -0.909204E+02  0.944E-02    1.09       0.0  T
   2    -90.9203717 -0.568291E-05  0.566E-02    1.09       1.0  T
   3    -90.9203072  0.645287E-04  0.322E-02    1.08       1.0  T
   4    -90.9203799 -0.727276E-04  0.563E-03    1.09       2.6  T
   5    -90.9203812 -0.128999E-05  0.235E-03    1.09       6.3  T
   6    -90.9203813 -0.906362E-07  0.998E-04    1.09      14.8  T
   7    -90.9203813 -0.201505E-07  0.451E-04    1.09      32.7  T
     SCC iter.                  ...        0 min,  0.106 sec
     gradient                   ...        0 min,  0.006 sec
 * total energy  :   -89.6320706 Eh     change       -0.6818259E-03 Eh
   gradient norm :     0.0061971 Eh/α   predicted    -0.5416311E-03 ( -20.56%)
   displ. norm   :     0.3156564 α      lambda       -0.5178623E-03
   maximum displ.:     0.1710268 α      in ANC's #2, #4, #7, ...

........................................................................
.............................. CYCLE   24 ..............................
........................................................................

 iter      E             dE          RMSdq      gap      omega  full diag
   1    -90.9206758 -0.909207E+02  0.870E-02    1.07       0.0  T
   2    -90.9206794 -0.364189E-05  0.520E-02    1.08       1.0  T
   3    -90.9206256  0.538359E-04  0.298E-02    1.07       1.0  T
   4    -90.9206862 -0.605980E-04  0.470E-03    1.08       3.1  T
   5    -90.9206871 -0.929629E-06  0.194E-03    1.08       7.6  T
   6    -90.9206872 -0.434268E-07  0.919E-04    1.08      16.1  T
   7    -90.9206872 -0.237493E-07  0.400E-04    1.08      36.8  T
     SCC iter.                  ...        0 min,  0.159 sec
     gradient                   ...        0 min,  0.006 sec
 * total energy  :   -89.6324677 Eh     change       -0.3970531E-03 Eh
   gradient norm :     0.0081326 Eh/α   predicted    -0.2847320E-03 ( -28.29%)
   displ. norm   :     0.3445666 α      lambda       -0.4649525E-03
   maximum displ.:     0.2034254 α      in ANC's #2, #5, #4, ...

........................................................................
.............................. CYCLE   25 ..............................
........................................................................

 iter      E             dE          RMSdq      gap      omega  full diag
   1    -90.9193876 -0.909194E+02  0.969E-02    1.06       0.0  T
   2    -90.9193920 -0.438617E-05  0.578E-02    1.07       1.0  T
   3    -90.9193259  0.660782E-04  0.345E-02    1.06       1.0  T
   4    -90.9194006 -0.746492E-04  0.572E-03    1.07       2.6  T
   5    -90.9194023 -0.176317E-05  0.182E-03    1.07       8.1  T
   6    -90.9194023 -0.198667E-07  0.101E-03    1.07      14.6  T
   7    -90.9194024 -0.263508E-07  0.394E-04    1.07      37.4  T
   8    -90.9194024 -0.451452E-08  0.141E-04    1.07     104.6  T
     SCC iter.                  ...        0 min,  0.089 sec
     gradient                   ...        0 min,  0.008 sec
 * total energy  :   -89.6328214 Eh     change       -0.3537138E-03 Eh
   gradient norm :     0.0075045 Eh/α   predicted    -0.2600777E-03 ( -26.47%)
   displ. norm   :     0.3087946 α      lambda       -0.3344643E-03
   maximum displ.:     0.2048790 α      in ANC's #2, #5, #4, ...

........................................................................
.............................. CYCLE   26 ..............................
........................................................................

 iter      E             dE          RMSdq      gap      omega  full diag
   1    -90.9187242 -0.909187E+02  0.890E-02    1.05       0.0  T
   2    -90.9187291 -0.485997E-05  0.531E-02    1.06       1.0  T
   3    -90.9186748  0.543348E-04  0.332E-02    1.05       1.0  T
   4    -90.9187372 -0.624765E-04  0.613E-03    1.06       2.4  T
   5    -90.9187395 -0.226635E-05  0.153E-03    1.06       9.7  T
   6    -90.9187395 -0.247335E-07  0.889E-04    1.06      16.6  T
   7    -90.9187395 -0.120368E-07  0.347E-04    1.06      42.5  T
     SCC iter.                  ...        0 min,  0.098 sec
     gradient                   ...        0 min,  0.006 sec
 * total energy  :   -89.6330635 Eh     change       -0.2420618E-03 Eh
   gradient norm :     0.0051094 Eh/α   predicted    -0.1831786E-03 ( -24.33%)
   displ. norm   :     0.2302758 α      lambda       -0.1626476E-03
   maximum displ.:     0.1664386 α      in ANC's #2, #5, #9, ...

........................................................................
.............................. CYCLE   27 ..............................
........................................................................

 iter      E             dE          RMSdq      gap      omega  full diag
   1    -90.9193574 -0.909194E+02  0.672E-02    1.05       0.0  T
   2    -90.9193608 -0.335885E-05  0.403E-02    1.06       1.0  T
   3    -90.9193281  0.327418E-04  0.268E-02    1.05       1.0  T
   4    -90.9193670 -0.389176E-04  0.509E-03    1.06       2.9  T
   5    -90.9193685 -0.152229E-05  0.125E-03    1.05      11.8  T
   6    -90.9193685 -0.206399E-07  0.690E-04    1.05      21.4  T
   7    -90.9193685 -0.902713E-08  0.264E-04    1.05      55.8  T
     SCC iter.                  ...        0 min,  0.108 sec
     gradient                   ...        0 min,  0.006 sec
 * total energy  :   -89.6331849 Eh     change       -0.1213937E-03 Eh
   gradient norm :     0.0034172 Eh/α   predicted    -0.8563648E-04 ( -29.46%)
   displ. norm   :     0.1782667 α      lambda       -0.9975346E-04
   maximum displ.:     0.1355068 α      in ANC's #2, #5, #9, ...

........................................................................
.............................. CYCLE   28 ..............................
........................................................................

 iter      E             dE          RMSdq      gap      omega  full diag
   1    -90.9205509 -0.909206E+02  0.531E-02    1.05       0.0  T
   2    -90.9205530 -0.211251E-05  0.317E-02    1.05       1.0  T
   3    -90.9205325  0.205387E-04  0.209E-02    1.05       1.0  T
   4    -90.9205568 -0.242980E-04  0.387E-03    1.05       3.8  T
   5    -90.9205576 -0.835241E-06  0.107E-03    1.05      13.8  T
   6    -90.9205576 -0.158788E-07  0.563E-04    1.05      26.2  T
   7    -90.9205576 -0.836754E-08  0.196E-04    1.05      75.2  T
     SCC iter.                  ...        0 min,  0.139 sec
     gradient                   ...        0 min,  0.006 sec
 * total energy  :   -89.6332649 Eh     change       -0.8003257E-04 Eh
   gradient norm :     0.0024708 Eh/α   predicted    -0.5146243E-04 ( -35.70%)
   displ. norm   :     0.1756726 α      lambda       -0.9166168E-04
   maximum displ.:     0.1335185 α      in ANC's #2, #5, #1, ...

........................................................................
.............................. CYCLE   29 ..............................
........................................................................

 iter      E             dE          RMSdq      gap      omega  full diag
   1    -90.9217253 -0.909217E+02  0.537E-02    1.05       0.0  T
   2    -90.9217270 -0.166587E-05  0.317E-02    1.05       1.0  T
   3    -90.9217078  0.191354E-04  0.192E-02    1.05       1.0  T
   4    -90.9217297 -0.218649E-04  0.322E-03    1.05       4.6  T
   5    -90.9217302 -0.536814E-06  0.107E-03    1.05      13.8  T
   6    -90.9217302 -0.156529E-07  0.544E-04    1.05      27.1  T
   7    -90.9217303 -0.918274E-08  0.172E-04    1.05      85.8  T
     SCC iter.                  ...        0 min,  0.077 sec
     gradient                   ...        0 min,  0.006 sec
 * total energy  :   -89.6333398 Eh     change       -0.7493942E-04 Eh
   gradient norm :     0.0028113 Eh/α   predicted    -0.4724577E-04 ( -36.95%)
   displ. norm   :     0.2021849 α      lambda       -0.9279497E-04
   maximum displ.:     0.1478330 α      in ANC's #2, #1, #7, ...

........................................................................
.............................. CYCLE   30 ..............................
........................................................................

 iter      E             dE          RMSdq      gap      omega  full diag
   1    -90.9222961 -0.909223E+02  0.616E-02    1.05       0.0  T
   2    -90.9222975 -0.143260E-05  0.362E-02    1.05       1.0  T
   3    -90.9222797  0.178686E-04  0.179E-02    1.05       1.0  T
   4    -90.9222996 -0.199302E-04  0.267E-03    1.05       5.5  T
   5    -90.9222999 -0.317835E-06  0.112E-03    1.05      13.2  T
   6    -90.9222999 -0.159243E-07  0.558E-04    1.05      26.4  T
   7    -90.9223000 -0.104723E-07  0.162E-04    1.05      91.1  T
     SCC iter.                  ...        0 min,  0.077 sec
     gradient                   ...        0 min,  0.006 sec
 * total energy  :   -89.6334146 Eh     change       -0.7474815E-04 Eh
   gradient norm :     0.0036638 Eh/α   predicted    -0.4830140E-04 ( -35.38%)
   displ. norm   :     0.2205761 α      lambda       -0.8443533E-04
   maximum displ.:     0.1541693 α      in ANC's #2, #1, #7, ...

........................................................................
.............................. CYCLE   31 ..............................
........................................................................

 iter      E             dE          RMSdq      gap      omega  full diag
   1    -90.9222358 -0.909222E+02  0.658E-02    1.05       0.0  T
   2    -90.9222370 -0.120437E-05  0.386E-02    1.05       1.0  T
   3    -90.9222258  0.112298E-04  0.142E-02    1.05       1.0  T
   4    -90.9222384 -0.125785E-04  0.209E-03    1.05       7.0  T
   5    -90.9222385 -0.132263E-06  0.112E-03    1.05      13.2  T
   6    -90.9222385 -0.132858E-07  0.531E-04    1.05      27.8  T
   7    -90.9222385 -0.121427E-07  0.130E-04    1.05     113.6  T
     SCC iter.                  ...        0 min,  0.161 sec
     gradient                   ...        0 min,  0.006 sec
 * total energy  :   -89.6334807 Eh     change       -0.6613164E-04 Eh
   gradient norm :     0.0037345 Eh/α   predicted    -0.4427785E-04 ( -33.05%)
   displ. norm   :     0.2068751 α      lambda       -0.6535686E-04
   maximum displ.:     0.1395228 α      in ANC's #2, #1, #7, ...

........................................................................
.............................. CYCLE   32 ..............................
........................................................................

 iter      E             dE          RMSdq      gap      omega  full diag
   1    -90.9219087 -0.909219E+02  0.598E-02    1.06       0.0  T
   2    -90.9219097 -0.105303E-05  0.351E-02    1.06       1.0  T
   3    -90.9219050  0.468201E-05  0.947E-03    1.06       1.6  T
   4    -90.9219105 -0.543396E-05  0.174E-03    1.06       8.5  T
   5    -90.9219105 -0.567764E-07  0.971E-04    1.06      15.2  T
   6    -90.9219105 -0.692580E-08  0.429E-04    1.06      34.4  T
     SCC iter.                  ...        0 min,  0.117 sec
     gradient                   ...        0 min,  0.007 sec
 * total energy  :   -89.6335303 Eh     change       -0.4959569E-04 Eh
   gradient norm :     0.0027441 Eh/α   predicted    -0.3407749E-04 ( -31.29%)
   displ. norm   :     0.1666575 α      lambda       -0.4536888E-04
   maximum displ.:     0.1081317 α      in ANC's #2, #1, #7, ...

........................................................................
.............................. CYCLE   33 ..............................
........................................................................

 iter      E             dE          RMSdq      gap      omega  full diag
   1    -90.9217640 -0.909218E+02  0.464E-02    1.06       0.0  T
   2    -90.9217649 -0.852813E-06  0.273E-02    1.06       1.0  T
   3    -90.9217630  0.186704E-05  0.639E-03    1.06       2.3  T
   4    -90.9217653 -0.224922E-05  0.148E-03    1.06       9.9  T
   5    -90.9217653 -0.550097E-07  0.793E-04    1.06      18.6  T
   6    -90.9217653 -0.118041E-07  0.234E-04    1.06      62.9  T
     SCC iter.                  ...        0 min,  0.106 sec
     gradient                   ...        0 min,  0.007 sec
 * total energy  :   -89.6335648 Eh     change       -0.3448055E-04 Eh
   gradient norm :     0.0015488 Eh/α   predicted    -0.2331528E-04 ( -32.38%)
   displ. norm   :     0.2083177 α      lambda       -0.3516735E-04
   maximum displ.:     0.1267831 α      in ANC's #2, #1, #3, ...

........................................................................
.............................. CYCLE   34 ..............................
........................................................................

 iter      E             dE          RMSdq      gap      omega  full diag
   1    -90.9216495 -0.909216E+02  0.558E-02    1.06       0.0  T
   2    -90.9216509 -0.133678E-05  0.329E-02    1.06       1.0  T
   3    -90.9216482  0.272149E-05  0.799E-03    1.06       1.8  T
   4    -90.9216514 -0.325354E-05  0.172E-03    1.06       8.6  T
   5    -90.9216515 -0.784649E-07  0.970E-04    1.06      15.2  T
   6    -90.9216515 -0.304512E-07  0.362E-04    1.06      40.8  T
     SCC iter.                  ...        0 min,  0.094 sec
     gradient                   ...        0 min,  0.007 sec
 * total energy  :   -89.6336000 Eh     change       -0.3520743E-04 Eh
   gradient norm :     0.0025575 Eh/α   predicted    -0.1792596E-04 ( -49.08%)
   displ. norm   :     0.0759275 α      lambda       -0.2097159E-04
   maximum displ.:     0.0464060 α      in ANC's #1, #3, #2, ...

........................................................................
.............................. CYCLE   35 ..............................
........................................................................

 iter      E             dE          RMSdq      gap      omega  full diag
   1    -90.9217832 -0.909218E+02  0.193E-02    1.06       0.0  T
   2    -90.9217832 -0.939696E-07  0.114E-02    1.06       1.3  T
   3    -90.9217824  0.806186E-06  0.382E-03    1.06       3.9  T
   4    -90.9217833 -0.902174E-06  0.452E-04    1.06      32.6  T
   5    -90.9217834 -0.835897E-08  0.201E-04    1.06      73.2  T
     SCC iter.                  ...        0 min,  0.098 sec
     gradient                   ...        0 min,  0.006 sec
 * total energy  :   -89.6336188 Eh     change       -0.1876447E-04 Eh
   gradient norm :     0.0025169 Eh/α   predicted    -0.1054878E-04 ( -43.78%)
   displ. norm   :     0.1448808 α      lambda       -0.4062091E-04
   maximum displ.:     0.0870187 α      in ANC's #1, #3, #2, ...

........................................................................
.............................. CYCLE   36 ..............................
........................................................................

 iter      E             dE          RMSdq      gap      omega  full diag
   1    -90.9219436 -0.909219E+02  0.364E-02    1.06       0.0  T
   2    -90.9219440 -0.400450E-06  0.215E-02    1.06       1.0  T
   3    -90.9219396  0.437340E-05  0.895E-03    1.06       1.6  T
   4    -90.9219445 -0.489625E-05  0.101E-03    1.06      14.6  T
   5    -90.9219445 -0.443490E-07  0.423E-04    1.06      34.9  T
   6    -90.9219445 -0.284679E-08  0.204E-04    1.06      72.3  T
     SCC iter.                  ...        0 min,  0.070 sec
     gradient                   ...        0 min,  0.006 sec
 * total energy  :   -89.6336503 Eh     change       -0.3150855E-04 Eh
   gradient norm :     0.0018130 Eh/α   predicted    -0.2073755E-04 ( -34.18%)
   displ. norm   :     0.2294565 α      lambda       -0.2676890E-04
   maximum displ.:     0.1455933 α      in ANC's #1, #3, #2, ...

........................................................................
.............................. CYCLE   37 ..............................
........................................................................

 iter      E             dE          RMSdq      gap      omega  full diag
   1    -90.9218413 -0.909218E+02  0.566E-02    1.06       0.0  T
   2    -90.9218421 -0.880118E-06  0.335E-02    1.06       1.0  T
   3    -90.9218312  0.109535E-04  0.141E-02    1.06       1.0  T
   4    -90.9218434 -0.121973E-04  0.161E-03    1.06       9.2  T
   5    -90.9218435 -0.104582E-06  0.704E-04    1.06      20.9  T
   6    -90.9218435 -0.779133E-08  0.335E-04    1.06      44.0  T
     SCC iter.                  ...        0 min,  0.066 sec
     gradient                   ...        0 min,  0.006 sec
 * total energy  :   -89.6336732 Eh     change       -0.2296557E-04 Eh
   gradient norm :     0.0013405 Eh/α   predicted    -0.1370175E-04 ( -40.34%)
   displ. norm   :     0.0663686 α      lambda       -0.5823048E-05
   maximum displ.:     0.0470907 α      in ANC's #1, #2, #3, ...

........................................................................
.............................. CYCLE   38 ..............................
........................................................................

 iter      E             dE          RMSdq      gap      omega  full diag
   1    -90.9220186 -0.909220E+02  0.168E-02    1.06       0.0  T
   2    -90.9220187 -0.840534E-07  0.988E-03    1.06       1.5  T
   3    -90.9220183  0.408516E-06  0.285E-03    1.06       5.2  T
   4    -90.9220187 -0.466448E-06  0.476E-04    1.06      31.0  T
   5    -90.9220187 -0.502503E-08  0.270E-04    1.06      54.7  T
     SCC iter.                  ...        0 min,  0.056 sec
     gradient                   ...        0 min,  0.006 sec
 * total energy  :   -89.6336806 Eh     change       -0.7400003E-05 Eh
   gradient norm :     0.0008339 Eh/α   predicted    -0.2919413E-05 ( -60.55%)
   displ. norm   :     0.0552400 α      lambda       -0.7131896E-05
   maximum displ.:     0.0425853 α      in ANC's #1, #7, #2, ...

........................................................................
.............................. CYCLE   39 ..............................
........................................................................

 iter      E             dE          RMSdq      gap      omega  full diag
   1    -90.9223946 -0.909224E+02  0.167E-02    1.06       0.0  T
   2    -90.9223947 -0.145671E-06  0.980E-03    1.06       1.5  T
   3    -90.9223941  0.582975E-06  0.345E-03    1.06       4.3  T
   4    -90.9223948 -0.662535E-06  0.684E-04    1.06      21.6  T
   5    -90.9223948 -0.187196E-07  0.333E-04    1.06      44.3  T
     SCC iter.                  ...        0 min,  0.061 sec
     gradient                   ...        0 min,  0.006 sec
 * total energy  :   -89.6336881 Eh     change       -0.7442245E-05 Eh
   gradient norm :     0.0006565 Eh/α   predicted    -0.3573222E-05 ( -51.99%)
   displ. norm   :     0.0513345 α      lambda       -0.4622923E-05
   maximum displ.:     0.0390531 α      in ANC's #1, #10, #7, ...

........................................................................
.............................. CYCLE   40 ..............................
........................................................................

 iter      E             dE          RMSdq      gap      omega  full diag
   1    -90.9221044 -0.909221E+02  0.143E-02    1.06       0.0  T
   2    -90.9221046 -0.169109E-06  0.846E-03    1.06       1.7  T
   3    -90.9221039  0.688414E-06  0.361E-03    1.06       4.1  T
   4    -90.9221047 -0.769245E-06  0.789E-04    1.06      18.7  T
   5    -90.9221047 -0.335930E-07  0.300E-04    1.06      49.1  T
     SCC iter.                  ...        0 min,  0.064 sec
     gradient                   ...        0 min,  0.006 sec
 * total energy  :   -89.6336922 Eh     change       -0.4174216E-05 Eh
   gradient norm :     0.0010571 Eh/α   predicted    -0.2315033E-05 ( -44.54%)
   displ. norm   :     0.0300879 α      lambda       -0.2622955E-05
   maximum displ.:     0.0269348 α      in ANC's #1, #4, #7, ...

........................................................................
.............................. CYCLE   41 ..............................
........................................................................

 iter      E             dE          RMSdq      gap      omega  full diag
   1    -90.9222688 -0.909223E+02  0.629E-03    1.06       0.0  T
   2    -90.9222689 -0.310956E-07  0.368E-03    1.06       4.0  T
   3    -90.9222688  0.413914E-07  0.105E-03    1.06      14.0  T
   4    -90.9222689 -0.491371E-07  0.244E-04    1.06      60.4  T
   5    -90.9222689 -0.293797E-08  0.114E-04    1.06     129.9  T
     SCC iter.                  ...        0 min,  0.088 sec
     gradient                   ...        0 min,  0.006 sec
 * total energy  :   -89.6336956 Eh     change       -0.3320044E-05 Eh
   gradient norm :     0.0007417 Eh/α   predicted    -0.1312222E-05 ( -60.48%)
   displ. norm   :     0.0311561 α      lambda       -0.2856966E-05
   maximum displ.:     0.0268840 α      in ANC's #1, #4, #3, ...

   *** GEOMETRY OPTIMIZATION CONVERGED AFTER 41 ITERATIONS ***

------------------------------------------------------------------------
 total energy gain   :        -0.9041778 Eh     -567.3801 kcal/mol
 total RMSD          :         1.2176402 a0        0.6443 Å
 total power (kW/mol):       -57.9004509 (step) -406.5005 (real)
------------------------------------------------------------------------

 ANCopt (total)                0 d,  0 h,  0 min,  5.840 sec
 optimizer setup                ...        0 min,  0.000 sec (  0.001%)
 model hessian                  ...        0 min,  0.018 sec (  0.312%)
 ANC generation                 ...        0 min,  0.011 sec (  0.194%)
 coordinate transformation      ...        0 min,  0.000 sec (  0.007%)
 single point calculation       ...        0 min,  5.797 sec ( 99.258%)
 optimization log               ...        0 min,  0.006 sec (  0.104%)
 hessian update                 ...        0 min,  0.002 sec (  0.032%)
 rational function              ...        0 min,  0.004 sec (  0.076%)

================
 final structure:
================
 xtb: 6.6.1 (8d0f1dd)
          11012413463D

 46 52  0     0  0            999 V2000
    0.6288    1.6136   -1.1767 C   0  0  0  0  0  0  0  0  0  0  0  0
    1.5211    1.0794   -0.1844 C   0  0  0  0  0  0  0  0  0  0  0  0
   -0.7715    1.3545   -1.1929 C   0  0  0  0  0  0  0  0  0  0  0  0
    1.1638    2.5049   -2.1277 C   0  0  0  0  0  0  0  0  0  0  0  0
    2.9198    1.1545   -0.3991 C   0  0  0  0  0  0  0  0  0  0  0  0
   -1.6338    2.3016   -1.8215 C   0  0  0  0  0  0  0  0  0  0  0  0
    2.5649    2.5924   -2.2964 C   0  0  0  0  0  0  0  0  0  0  0  0
    0.2829    3.3153   -2.8921 C   0  0  0  0  0  0  0  0  0  0  0  0
    3.4147    1.8769   -1.5125 C   0  0  0  0  0  0  0  0  0  0  0  0
   -1.0542    3.2810   -2.6751 C   0  0  0  0  0  0  0  0  0  0  0  0
    1.0755    0.5973    1.0599 C   0  0  0  0  0  0  0  0  0  0  0  0
   -1.3661    0.1819   -0.6420 C   0  0  0  0  0  0  0  0  0  0  0  0
    3.7905    0.5645    0.5343 C   0  0  0  0  0  0  0  0  0  0  0  0
   -3.0092    2.2339   -1.6121 C   0  0  0  0  0  0  0  0  0  0  0  0
    1.9465    0.0599    1.9714 C   0  0  0  0  0  0  0  0  0  0  0  0
   -2.7468    0.2012   -0.3658 C   0  0  0  0  0  0  0  0  0  0  0  0
    3.3135   -0.0007    1.6865 C   0  0  0  0  0  0  0  0  0  0  0  0
   -3.5459    1.2321   -0.8149 C   0  0  0  0  0  0  0  0  0  0  0  0
    2.9458    3.2284   -3.0857 H   0  0  0  0  0  0  0  0  0  0  0  0
    0.7109    4.0051   -3.6086 H   0  0  0  0  0  0  0  0  0  0  0  0
    4.4824    1.8992   -1.6833 H   0  0  0  0  0  0  0  0  0  0  0  0
   -1.7182    3.9674   -3.1852 H   0  0  0  0  0  0  0  0  0  0  0  0
    4.8531    0.5778    0.3307 H   0  0  0  0  0  0  0  0  0  0  0  0
   -3.6587    2.9641   -2.0726 H   0  0  0  0  0  0  0  0  0  0  0  0
    3.9886   -0.4661    2.3908 H   0  0  0  0  0  0  0  0  0  0  0  0
   -4.6024    1.1964   -0.5954 H   0  0  0  0  0  0  0  0  0  0  0  0
   -3.3774   -0.8131    0.3479 O   0  0  0  0  0  0  0  0  0  0  0  0
   -2.5706   -1.8395    0.7962 C   0  0  0  0  0  0  0  0  0  0  0  0
   -1.2636   -1.9679    0.3756 C   0  0  0  0  0  0  0  0  0  0  0  0
   -0.6980   -0.9913   -0.4687 N   0  0  0  0  0  0  0  0  0  0  0  0
   -0.4570   -3.0384    0.8008 C   0  0  0  0  0  0  0  0  0  0  0  0
   -3.1061   -2.7661    1.6874 C   0  0  0  0  0  0  0  0  0  0  0  0
   -2.3164   -3.8137    2.1261 C   0  0  0  0  0  0  0  0  0  0  0  0
   -1.0111   -3.9609    1.6876 C   0  0  0  0  0  0  0  0  0  0  0  0
    0.8231   -3.1837    0.3292 N   0  0  0  0  0  0  0  0  0  0  0  0
    1.1821   -2.2531   -0.5444 C   0  0  0  0  0  0  0  0  0  0  0  0
    0.5662   -1.1938   -0.9823 N   0  0  0  0  0  0  0  0  0  0  0  0
    1.5764   -0.3232    2.9125 H   0  0  0  0  0  0  0  0  0  0  0  0
    0.0262    0.6691    1.3100 H   0  0  0  0  0  0  0  0  0  0  0  0
   -4.1269   -2.6472    2.0155 H   0  0  0  0  0  0  0  0  0  0  0  0
   -2.7303   -4.5326    2.8202 H   0  0  0  0  0  0  0  0  0  0  0  0
   -0.3979   -4.7838    2.0184 H   0  0  0  0  0  0  0  0  0  0  0  0
    2.5375   -2.4794   -1.1586 C   0  0  0  0  0  0  0  0  0  0  0  0
    3.5188   -2.6043   -0.2449 F   0  0  0  0  0  0  0  0  0  0  0  0
    2.5842   -3.6210   -1.8858 F   0  0  0  0  0  0  0  0  0  0  0  0
    2.9381   -1.5119   -1.9963 F   0  0  0  0  0  0  0  0  0  0  0  0
 43 44  1  0  0  0  0
 43 45  1  0  0  0  0
 43 46  1  0  0  0  0
 36 43  1  0  0  0  0
  1  2  1  0  0  0  0
  1  3  1  0  0  0  0
  1  4  2  0  0  0  0
  2  5  1  0  0  0  0
  2 11  2  0  0  0  0
  3  6  1  0  0  0  0
  3 12  2  0  0  0  0
  4  7  1  0  0  0  0
  4  8  1  0  0  0  0
  5  9  1  0  0  0  0
  5 13  2  0  0  0  0
  6 10  1  0  0  0  0
  6 14  2  0  0  0  0
  7  9  2  0  0  0  0
  7 19  1  0  0  0  0
  8 10  2  0  0  0  0
  8 20  1  0  0  0  0
  9 21  1  0  0  0  0
 10 22  1  0  0  0  0
 11 15  1  0  0  0  0
 12 16  1  0  0  0  0
 13 17  1  0  0  0  0
 13 23  1  0  0  0  0
 14 18  1  0  0  0  0
 14 24  1  0  0  0  0
 15 17  2  0  0  0  0
 16 18  2  0  0  0  0
 17 25  1  0  0  0  0
 18 26  1  0  0  0  0
 27 28  1  0  0  0  0
 28 29  2  0  0  0  0
 29 30  1  0  0  0  0
 30 12  1  0  0  0  0
 29 31  1  0  0  0  0
 28 32  1  0  0  0  0
 32 33  2  0  0  0  0
 33 34  1  0  0  0  0
 34 31  2  0  0  0  0
 16 27  1  0  0  0  0
 31 35  1  0  0  0  0
 35 36  1  0  0  0  0
 36 37  2  0  0  0  0
 37 30  1  0  0  0  0
 15 38  1  0  0  0  0
 11 39  1  0  0  0  0
 32 40  1  0  0  0  0
 33 41  1  0  0  0  0
 34 42  1  0  0  0  0
M  CHG  1   1  -1
M  END

 Bond Distances (Angstroems)
 ---------------------------
C1-C2=1.4374         C1-C3=1.4242         C1-C4=1.4089         C2-C1=1.4374         C2-C5=1.4171         C2-C11=1.4069        
C3-C1=1.4242         C3-C6=1.4268         C3-C12=1.4255        C4-C1=1.4089         C4-C7=1.4139         C4-C8=1.4202         
C5-C2=1.4171         C5-C9=1.4165         C5-C13=1.4062        C6-C3=1.4268         C6-C10=1.4226        C6-C14=1.3929        
C7-C4=1.4139         C7-C9=1.3596         C7-H19=1.0829        C8-C4=1.4202         C8-C10=1.3550        C8-H20=1.0828        
C9-C5=1.4165         C9-C7=1.3596         C9-H21=1.0815        C10-C6=1.4226        C10-C8=1.3550        C10-H22=1.0827       
C11-C2=1.4069        C11-C15=1.3705       C11-H39=1.0810       C12-C3=1.4255        C12-C16=1.4081       C12-N30=1.3612       
C13-C5=1.4062        C13-C17=1.3691       C13-H23=1.0820       C14-C6=1.3929        C14-C18=1.3882       C14-H24=1.0803       
C15-C11=1.3705       C15-C17=1.3978       C15-H38=1.0813       C16-C12=1.4081       C16-C18=1.3796       C16-O27=1.3913       
C17-C13=1.3691       C17-C15=1.3978       C17-H25=1.0809       C18-C14=1.3882       C18-C16=1.3796       C18-H26=1.0796       
H19-C7=1.0829        H20-C8=1.0828        H21-C9=1.0815        H22-C10=1.0827       H23-C13=1.0820       H24-C14=1.0803       
H25-C17=1.0809       H26-C18=1.0796       O27-C16=1.3913       O27-C28=1.3803       C28-O27=1.3803       C28-C29=1.3790       
C28-C32=1.3927       C29-C28=1.3790       C29-N30=1.4094       C29-C31=1.4062       N30-C12=1.3612       N30-C29=1.4094       
N30-N37=1.3795       C31-C29=1.4062       C31-C34=1.3944       C31-N35=1.3719       C32-C28=1.3927       C32-C33=1.3833       
C32-H40=1.0788       C33-C32=1.3833       C33-C34=1.3849       C33-H41=1.0816       C34-C31=1.3944       C34-C33=1.3849       
C34-H42=1.0782       N35-C31=1.3719       N35-C36=1.3259       C36-N35=1.3259       C36-N37=1.3013       C36-C43=1.5051       
N37-N30=1.3795       N37-C36=1.3013       H38-C15=1.0813       H39-C11=1.0810       H40-C32=1.0788       H41-C33=1.0816       
H42-C34=1.0782       C43-C36=1.5051       C43-F44=1.3466       C43-F45=1.3543       C43-F46=1.3410       F44-C43=1.3466       
F45-C43=1.3543       F46-C43=1.3410       
 C  H  Rav=1.0811 sigma=0.0014  Rmin=1.0782  Rmax=1.0829    13
 C  C  Rav=1.4033 sigma=0.0288  Rmin=1.3550  Rmax=1.5051    28
 N  C  Rav=1.3539 sigma=0.0374  Rmin=1.3013  Rmax=1.4094     5
 N  N  Rav=1.3795 sigma=0.0000  Rmin=1.3795  Rmax=1.3795     1
 O  C  Rav=1.3858 sigma=0.0055  Rmin=1.3803  Rmax=1.3913     2
 F  C  Rav=1.3473 sigma=0.0055  Rmin=1.3410  Rmax=1.3543     3

 selected bond angles (degree)
 --------------------
C3-C1-C2=123.41                C4-C1-C2=117.73                C4-C1-C3=118.74                C5-C2-C1=119.24                
C11-C2-C1=122.77               C11-C2-C5=117.70               C6-C3-C1=118.59                C12-C3-C1=123.74               
C12-C3-C6=117.66               C7-C4-C1=119.73                C8-C4-C1=119.26                C8-C4-C7=121.01                
C9-C5-C2=119.40                C13-C5-C2=119.23               C13-C5-C9=121.29               C10-C6-C3=118.36               
C14-C6-C3=119.89               C14-C6-C10=121.74              C9-C7-C4=121.20                H19-C7-C4=118.16               
H19-C7-C9=120.63               C10-C8-C4=120.76               H20-C8-C4=118.33               H20-C8-C10=120.80              
C7-C9-C5=120.21                H21-C9-C5=118.65               H21-C9-C7=121.01               C8-C10-C6=121.03               
H22-C10-C6=117.98              H22-C10-C8=120.91              

 selected dihedral angles (degree)
 ---------------------------------
C5-C2-C1-C3=166.91            C5-C2-C1-C4=342.81            C11-C2-C1-C3=340.52           C11-C2-C1-C4=156.43           
C6-C3-C1-C2=154.67            C6-C3-C1-C4=338.80            C12-C3-C1-C2=333.16           C12-C3-C1-C4=157.29           
C7-C4-C1-C2= 15.53            C7-C4-C1-C3=191.63            C8-C4-C1-C2=196.29            C8-C4-C1-C3= 12.39            
C9-C5-C2-C1=  6.66            C9-C5-C2-C11=192.72           C13-C5-C2-C1=183.60           C13-C5-C2-C11=  9.66          
C10-C6-C3-C1= 15.00           C10-C6-C3-C12=196.41          C14-C6-C3-C1=193.71           C14-C6-C3-C12= 15.13          
C9-C7-C4-C1=356.85            C9-C7-C4-C8=176.07            H19-C7-C4-C1=175.38           H19-C7-C4-C8=354.60           
C10-C8-C4-C1=  2.89           C10-C8-C4-C7=183.66           H20-C8-C4-C1=179.14           H20-C8-C4-C7=359.91           
C7-C9-C5-C2=  5.99            C7-C9-C5-C13=189.12           H21-C9-C5-C2=181.99           H21-C9-C5-C13=  5.11          
C5-C9-C7-C4=352.12            C5-C9-C7-H19=173.63           H21-C9-C7-C4=176.22           H21-C9-C7-H19=357.73          
C8-C10-C6-C3=  0.19           C8-C10-C6-C14=181.49          H22-C10-C6-C3=177.19          H22-C10-C6-C14=358.50         
C6-C10-C8-C4=350.74           C6-C10-C8-H20=174.58          H22-C10-C8-C4=173.82          H22-C10-C8-H20=357.67         
           -------------------------------------------------
          |                Final Singlepoint                |
           -------------------------------------------------

          ...................................................
          :                      SETUP                      :
          :.................................................:
          :  # basis functions                 145          :
          :  # atomic orbitals                 145          :
          :  # shells                           79          :
          :  # electrons                       160          :
          :  max. iterations                   250          :
          :  Hamiltonian                  GFN2-xTB          :
          :  restarted?                      false          :
          :  GBSA solvation                  false          :
          :  PC potential                    false          :
          :  electronic temp.          300.0000000     K    :
          :  accuracy                    1.0000000          :
          :  -> integral cutoff          0.2500000E+02      :
          :  -> integral neglect         0.1000000E-07      :
          :  -> SCF convergence          0.1000000E-05 Eh   :
          :  -> wf. convergence          0.1000000E-03 e    :
          :  Broyden damping             0.4000000          :
          ...................................................

 iter      E             dE          RMSdq      gap      omega  full diag
   1    -90.9222689 -0.909223E+02  0.543E-05    1.06       0.0  T
   2    -90.9222689  0.395062E-11  0.474E-05    1.06     310.7  T
   3    -90.9222689 -0.126121E-09  0.177E-05    1.06     834.7  T

   *** convergence criteria satisfied after 3 iterations ***

         #    Occupation            Energy/Eh            Energy/eV
      -------------------------------------------------------------
         1        2.0000           -0.7500667             -20.4104
       ...           ...                  ...                  ...
        74        2.0000           -0.2876291              -7.8268
        75        2.0000           -0.2803039              -7.6275
        76        2.0000           -0.2717303              -7.3942
        77        2.0000           -0.2622218              -7.1354
        78        2.0000           -0.2498520              -6.7988
        79        2.0000           -0.2389236              -6.5014
        80        2.0000           -0.1940161              -5.2794 (HOMO)
        81                         -0.1551504              -4.2219 (LUMO)
        82                         -0.1472219              -4.0061
        83                         -0.1287649              -3.5039
        84                         -0.1182627              -3.2181
        85                         -0.1067204              -2.9040
       ...                                ...                  ...
       145                          0.8281074              22.5339
      -------------------------------------------------------------
                  HL-Gap            0.0388658 Eh            1.0576 eV
             Fermi-level           -0.1745834 Eh           -4.7507 eV

 SCC (total)                   0 d,  0 h,  0 min,  0.053 sec
 SCC setup                      ...        0 min,  0.000 sec (  0.204%)
 Dispersion                     ...        0 min,  0.000 sec (  0.519%)
 classical contributions        ...        0 min,  0.000 sec (  0.139%)
 integral evaluation            ...        0 min,  0.002 sec (  3.132%)
 iterations                     ...        0 min,  0.044 sec ( 83.493%)
 molecular gradient             ...        0 min,  0.006 sec ( 12.065%)
 printout                       ...        0 min,  0.000 sec (  0.434%)

         :::::::::::::::::::::::::::::::::::::::::::::::::::::
         ::                     SUMMARY                     ::
         :::::::::::::::::::::::::::::::::::::::::::::::::::::
         :: total energy             -89.633695569121 Eh    ::
         :: gradient norm              0.000741733954 Eh/a0 ::
         :: HOMO-LUMO gap              1.057591219261 eV    ::
         ::.................................................::
         :: SCC energy               -90.922268876391 Eh    ::
         :: -> isotropic ES            0.146613603308 Eh    ::
         :: -> anisotropic ES          0.012675564457 Eh    ::
         :: -> anisotropic XC          0.017347515501 Eh    ::
         :: -> dispersion             -0.074798933248 Eh    ::
         :: repulsion energy           1.287078322123 Eh    ::
         :: add. restraining           0.000000000000 Eh    ::
         :: total charge              -1.000000000001 e     ::
         :::::::::::::::::::::::::::::::::::::::::::::::::::::

           -------------------------------------------------
          |                Property Printout                |
           -------------------------------------------------

    * Orbital Energies and Occupations

         #    Occupation            Energy/Eh            Energy/eV
      -------------------------------------------------------------
         1        2.0000           -0.7500667             -20.4104
       ...           ...                  ...                  ...
        68        2.0000           -0.3231076              -8.7922
        69        2.0000           -0.3166819              -8.6174
        70        2.0000           -0.3075793              -8.3697
        71        2.0000           -0.3068318              -8.3493
        72        2.0000           -0.3033426              -8.2544
        73        2.0000           -0.2989387              -8.1345
        74        2.0000           -0.2876291              -7.8268
        75        2.0000           -0.2803039              -7.6275
        76        2.0000           -0.2717303              -7.3942
        77        2.0000           -0.2622218              -7.1354
        78        2.0000           -0.2498520              -6.7988
        79        2.0000           -0.2389236              -6.5014
        80        2.0000           -0.1940161              -5.2794 (HOMO)
        81                         -0.1551504              -4.2219 (LUMO)
        82                         -0.1472219              -4.0061
        83                         -0.1287649              -3.5039
        84                         -0.1182627              -3.2181
        85                         -0.1067204              -2.9040
        86                         -0.0906288              -2.4661
        87                         -0.0702660              -1.9120
        88                         -0.0577277              -1.5709
        89                         -0.0559519              -1.5225
        90                         -0.0196143              -0.5337
        91                          0.0199256               0.5422
       ...                                ...                  ...
       145                          0.8281074              22.5339
      -------------------------------------------------------------
                  HL-Gap            0.0388658 Eh            1.0576 eV
             Fermi-level           -0.1745834 Eh           -4.7507 eV

     #   Z          covCN         q      C6AA      α(0)
     1   6 C        2.981     0.013    27.727     8.638
     2   6 C        2.984     0.017    27.620     8.621
     3   6 C        2.983    -0.018    28.450     8.749
     4   6 C        2.987    -0.000    28.022     8.683
     5   6 C        2.989     0.013    27.718     8.636
     6   6 C        2.985    -0.003    28.101     8.696
     7   6 C        2.917    -0.041    29.028     8.835
     8   6 C        2.915    -0.044    29.088     8.844
     9   6 C        2.915    -0.043    29.078     8.843
    10   6 C        2.916    -0.045    29.112     8.848
    11   6 C        2.920    -0.027    28.682     8.782
    12   6 C        2.922     0.031    27.319     8.571
    13   6 C        2.922    -0.037    28.909     8.817
    14   6 C        2.920    -0.071    29.763     8.946
    15   6 C        2.917    -0.035    28.881     8.813
    16   6 C        2.878     0.104    25.692     8.309
    17   6 C        2.916    -0.032    28.806     8.801
    18   6 C        2.914    -0.068    29.685     8.934
    19   1 H        0.925     0.010     2.894     2.660
    20   1 H        0.925     0.008     2.919     2.672
    21   1 H        0.925     0.013     2.847     2.639
    22   1 H        0.925     0.009     2.910     2.667
    23   1 H        0.925     0.017     2.772     2.604
    24   1 H        0.926     0.008     2.924     2.674
    25   1 H        0.926     0.016     2.793     2.613
    26   1 H        0.926     0.022     2.701     2.570
    27   8 O        1.706    -0.288    18.779     5.851
    28   6 C        2.876     0.113    25.511     8.280
    29   6 C        2.936     0.004    27.942     8.669
    30   7 N        2.856     0.040    20.534     6.730
    31   6 C        2.981     0.091    25.966     8.359
    32   6 C        2.918    -0.074    29.850     8.959
    33   6 C        2.918    -0.045    29.125     8.850
    34   6 C        2.922    -0.071    29.758     8.946
    35   7 N        1.841    -0.374    30.619     8.201
    36   6 C        2.919     0.149    24.757     8.159
    37   7 N        1.915    -0.294    28.459     7.910
    38   1 H        0.925     0.014     2.822     2.627
    39   1 H        0.926     0.019     2.749     2.593
    40   1 H        0.926     0.025     2.665     2.553
    41   1 H        0.925     0.014     2.833     2.632
    42   1 H        0.926     0.032     2.564     2.504
    43   6 C        3.347     0.477    17.245     6.550
    44   9 F        0.791    -0.215    11.387     3.986
    45   9 F        0.791    -0.223    11.471     4.001
    46   9 F        0.791    -0.210    11.341     3.978

 Mol. C6AA /au·bohr⁶  :      35330.820919
 Mol. C8AA /au·bohr⁸  :     889528.754939
 Mol. α(0) /au        :        298.802672


Wiberg/Mayer (AO) data.
largest (>0.10) Wiberg bond orders for each atom

 ---------------------------------------------------------------------------
     #   Z sym  total        # sym  WBO       # sym  WBO       # sym  WBO
 ---------------------------------------------------------------------------
     1   6 C    3.984 --     4 C    1.308     3 C    1.241     2 C    1.179
     2   6 C    3.988 --    11 C    1.312     5 C    1.265     1 C    1.179
     3   6 C    3.976 --     1 C    1.241     6 C    1.227    12 C    1.216
     4   6 C    3.979 --     1 C    1.308     7 C    1.251     8 C    1.223
     5   6 C    3.986 --    13 C    1.301     2 C    1.265     9 C    1.235
     6   6 C    3.982 --    14 C    1.358     3 C    1.227    10 C    1.214
     7   6 C    3.974 --     9 C    1.588     4 C    1.251    19 H    0.968
     8   6 C    3.980 --    10 C    1.623     4 C    1.223    20 H    0.968
     9   6 C    3.967 --     7 C    1.588     5 C    1.235    21 H    0.969
    10   6 C    3.977 --     8 C    1.623     6 C    1.214    22 H    0.968
    11   6 C    3.992 --    15 C    1.523     2 C    1.312    39 H    0.966
                            13 C    0.110
    12   6 C    3.965 --    16 C    1.280     3 C    1.216    30 N    1.180
    13   6 C    3.984 --    17 C    1.529     5 C    1.301    23 H    0.969
                            11 C    0.110
    14   6 C    3.938 --    18 C    1.393     6 C    1.358    24 H    0.970
    15   6 C    3.987 --    11 C    1.523    17 C    1.344    38 H    0.971
    16   6 C    3.911 --    18 C    1.414    12 C    1.280    27 O    0.993
    17   6 C    3.983 --    13 C    1.529    15 C    1.344    25 H    0.972
    18   6 C    3.964 --    16 C    1.414    14 C    1.393    26 H    0.969
    19   1 H    0.999 --     7 C    0.968
    20   1 H    0.999 --     8 C    0.968
    21   1 H    0.998 --     9 C    0.969
    22   1 H    0.999 --    10 C    0.968
    23   1 H    0.999 --    13 C    0.969
    24   1 H    0.999 --    14 C    0.970
    25   1 H    0.999 --    17 C    0.972
    26   1 H    0.998 --    18 C    0.969
    27   8 O    2.242 --    28 C    1.009    16 C    0.993
    28   6 C    3.925 --    29 C    1.378    32 C    1.345    27 O    1.009
    29   6 C    3.959 --    28 C    1.378    31 C    1.277    30 N    1.029
    30   7 N    3.588 --    12 C    1.180    37 N    1.040    29 C    1.029
    31   6 C    3.978 --    34 C    1.343    29 C    1.277    35 N    1.178
    32   6 C    3.973 --    33 C    1.438    28 C    1.345    40 H    0.970
    33   6 C    3.978 --    32 C    1.438    34 C    1.434    41 H    0.972
    34   6 C    3.972 --    33 C    1.434    31 C    1.343    42 H    0.970
    35   7 N    2.921 --    36 C    1.361    31 C    1.178    37 N    0.174
    36   6 C    3.960 --    37 N    1.501    35 N    1.361    43 C    0.923
    37   7 N    2.961 --    36 C    1.501    30 N    1.040    35 N    0.174
    38   1 H    0.999 --    15 C    0.971
    39   1 H    0.999 --    11 C    0.966
    40   1 H    0.999 --    32 C    0.970
    41   1 H    0.999 --    33 C    0.972
    42   1 H    0.998 --    34 C    0.970
    43   6 C    3.802 --    46 F    0.951    44 F    0.942    45 F    0.931
                            36 C    0.923
    44   9 F    1.062 --    43 C    0.942
    45   9 F    1.052 --    43 C    0.931
    46   9 F    1.069 --    43 C    0.951
 ---------------------------------------------------------------------------

Topologies differ in bond orders
Writing corrected topology to xtbtopo.mol

molecular dipole:
                 x           y           z       tot (Debye)
 q only:       -0.763       2.379       1.138
   full:       -0.980       2.361       1.242       7.224
molecular quadrupole (traceless):
                xx          xy          yy          xz          yz          zz
 q only:       -7.932      11.246      -7.874       6.727       3.335      15.805
  q+dip:       -1.131      11.892     -13.910       5.121      -2.915      15.041
   full:       -5.557      13.314     -11.494       6.565       2.843      17.051

           -------------------------------------------------
          |                Geometry Summary                 |
           -------------------------------------------------

      molecular mass/u    :      440.3970872
   center of mass at/Å    :        0.3330185      -0.4111214      -0.4390695
  moments of inertia/u·Å² :        0.2836472E+04   0.3012124E+04   0.4850150E+04
rotational constants/cm⁻¹ :        0.5943169E-02   0.5596593E-02   0.3475693E-02

 * 49 selected distances

     #   Z          #   Z                                           value/Å
     1   6 C        3   6 C                                       1.4241832
     1   6 C        4   6 C                                       1.4089040
     2   6 C        5   6 C                                       1.4170674
     3   6 C        6   6 C                                       1.4267879 (max)
     4   6 C        7   6 C                                       1.4138630
     4   6 C        8   6 C                                       1.4202322
     5   6 C        9   6 C                                       1.4165300
     7   6 C        9   6 C                                       1.3596028
     6   6 C       10   6 C                                       1.4226297
     8   6 C       10   6 C                                       1.3549776
     2   6 C       11   6 C                                       1.4068893
     3   6 C       12   6 C                                       1.4255446
     5   6 C       13   6 C                                       1.4062036
     6   6 C       14   6 C                                       1.3928966
    11   6 C       15   6 C                                       1.3704844
    12   6 C       16   6 C                                       1.4080999
    13   6 C       17   6 C                                       1.3690872
    15   6 C       17   6 C                                       1.3977516
    14   6 C       18   6 C                                       1.3881969
    16   6 C       18   6 C                                       1.3795645
     7   6 C       19   1 H                                       1.0828704
     8   6 C       20   1 H                                       1.0828291
     9   6 C       21   1 H                                       1.0815382
    10   6 C       22   1 H                                       1.0826662
    13   6 C       23   1 H                                       1.0819663
    14   6 C       24   1 H                                       1.0803471
    17   6 C       25   1 H                                       1.0808725
    18   6 C       26   1 H                                       1.0796352
    16   6 C       27   8 O                                       1.3913466
    27   8 O       28   6 C                                       1.3802876
    28   6 C       29   6 C                                       1.3790158
    12   6 C       30   7 N                                       1.3612023
    29   6 C       30   7 N                                       1.4093712
    29   6 C       31   6 C                                       1.4061851
    28   6 C       32   6 C                                       1.3927013
    32   6 C       33   6 C                                       1.3832783
    31   6 C       34   6 C                                       1.3944310
    33   6 C       34   6 C                                       1.3849082
    31   6 C       35   7 N                                       1.3719103
    35   7 N       36   6 C                                       1.3259210
    36   6 C       37   7 N                                       1.3012775
    15   6 C       38   1 H                                       1.0813391
    11   6 C       39   1 H                                       1.0810335
    32   6 C       40   1 H                                       1.0787954
    33   6 C       41   1 H                                       1.0816267
    34   6 C       42   1 H                                       1.0782450 (min)
    43   6 C       44   9 F                                       1.3465874
    43   6 C       45   9 F                                       1.3543374
    43   6 C       46   9 F                                       1.3410393

 * 5 distinct bonds (by element types)

   Z      Z             #   av. dist./Å        max./Å        min./Å
   1 H    6 C          13     1.0810588     1.0828704     1.0782450
   6 C    6 C          26     1.3980775     1.4267879     1.3549776
   6 C    7 N           5     1.3539365     1.4093712     1.3012775
   6 C    8 O           2     1.3858171     1.3913466     1.3802876
   6 C    9 F           3     1.3473214     1.3543374     1.3410393


optimized geometry written to: xtbopt.mol


           -------------------------------------------------
          | TOTAL ENERGY              -89.633695569121 Eh   |
          | GRADIENT NORM               0.000741733954 Eh/α |
          | HOMO-LUMO GAP               1.057591219261 eV   |
           -------------------------------------------------
########################################################################
[WARNING] Runtime exception occurred
-2- restart_readRestart: Multiplicity missmatch in restart file.
-1- restart_readRestart: Number of electron missmatch in restart file.
########################################################################

------------------------------------------------------------------------
 * finished run on 2024/11/01 at 13:46:24.252     
------------------------------------------------------------------------
 total:
 * wall-time:     0 d,  0 h,  0 min,  6.307 sec
Note: The following floating-point exceptions are signalling: IEEE_UNDERFLOW_FLAG
normal termination of xtb
 *  cpu-time:     0 d,  0 h,  0 min, 18.129 sec
 * ratio c/w:     2.874 speedup
 SCF:
 * wall-time:     0 d,  0 h,  0 min,  0.405 sec
 *  cpu-time:     0 d,  0 h,  0 min,  1.455 sec
 * ratio c/w:     3.592 speedup
 ANC optimizer:
 * wall-time:     0 d,  0 h,  0 min,  5.895 sec
 *  cpu-time:     0 d,  0 h,  0 min, 16.662 sec
 * ratio c/w:     2.827 speedup

