      -----------------------------------------------------------      
     |                   =====================                   |     
     |                           x T B                           |     
     |                   =====================                   |     
     |                         S. Grimme                         |     
     |          Mulliken Center for Theoretical Chemistry        |     
     |                    University of Bonn                     |     
      -----------------------------------------------------------      

   * xtb version 6.6.1 (8d0f1dd) compiled by 'runner@Mac-1690902418499.local' on 2023-08-01

   xtb is free software: you can redistribute it and/or modify it under
   the terms of the GNU Lesser General Public License as published by
   the Free Software Foundation, either version 3 of the License, or
   (at your option) any later version.
   
   xtb is distributed in the hope that it will be useful,
   but WITHOUT ANY WARRANTY; without even the implied warranty of
   MERCHANTABILITY or FITNESS FOR A PARTICULAR PURPOSE.  See the
   GNU Lesser General Public License for more details.
   
   Cite this work as:
   * C. Bannwarth, E. Caldeweyher, S. Ehlert, A. Hansen, P. Pracht,
     J. Seibert, S. Spicher, S. Grimme, WIREs Comput. Mol. Sci., 2020, 11,
     e01493. DOI: 10.1002/wcms.1493
   
   for GFN2-xTB:
   * C. Bannwarth, S. Ehlert and S. Grimme., J. Chem. Theory Comput., 2019,
     15, 1652-1671. DOI: 10.1021/acs.jctc.8b01176
   for GFN1-xTB:
   * S. Grimme, C. Bannwarth, P. Shushkov, J. Chem. Theory Comput., 2017,
     13, 1989-2009. DOI: 10.1021/acs.jctc.7b00118
   for GFN0-xTB:
   * P. Pracht, E. Caldeweyher, S. Ehlert, S. Grimme, ChemRxiv, 2019, preprint.
     DOI: 10.26434/chemrxiv.8326202.v1
   for GFN-FF:
   * S. Spicher and S. Grimme, Angew. Chem. Int. Ed., 2020, 59, 15665-15673.
     DOI: 10.1002/anie.202004239
   
   for ALPB and GBSA implicit solvation:
   * S. Ehlert, M. Stahn, S. Spicher, S. Grimme, J. Chem. Theory Comput.,
     2021, 17, 4250-4261. DOI: 10.1021/acs.jctc.1c00471
   
   for DFT-D4:
   * E. Caldeweyher, C. Bannwarth and S. Grimme, J. Chem. Phys., 2017,
     147, 034112. DOI: 10.1063/1.4993215
   * E. Caldeweyher, S. Ehlert, A. Hansen, H. Neugebauer, S. Spicher,
     C. Bannwarth and S. Grimme, J. Chem. Phys., 2019, 150, 154122.
     DOI: 10.1063/1.5090222
   * E. Caldeweyher, J.-M. Mewes, S. Ehlert and S. Grimme, Phys. Chem. Chem. Phys.
     2020, 22, 8499-8512. DOI: 10.1039/D0CP00502A
   
   for sTDA-xTB:
   * S. Grimme and C. Bannwarth, J. Chem. Phys., 2016, 145, 054103.
     DOI: 10.1063/1.4959605
   
   in the mass-spec context:
   * V. Asgeirsson, C. Bauer and S. Grimme, Chem. Sci., 2017, 8, 4879.
     DOI: 10.1039/c7sc00601b
   * J. Koopman and S. Grimme, ACS Omega 2019, 4, 12, 15120-15133.
     DOI: 10.1021/acsomega.9b02011
   
   for metadynamics refer to:
   * S. Grimme, J. Chem. Theory Comput., 2019, 155, 2847-2862
     DOI: 10.1021/acs.jctc.9b00143
   
   for SPH calculations refer to:
   * S. Spicher and S. Grimme, J. Chem. Theory Comput., 2021, 17, 1701-1714
     DOI: 10.1021/acs.jctc.0c01306
   
   with help from (in alphabetical order)
   P. Atkinson, C. Bannwarth, F. Bohle, G. Brandenburg, E. Caldeweyher
   M. Checinski, S. Dohm, S. Ehlert, S. Ehrlich, I. Gerasimov, C. Hölzer
   A. Katbashev, J. Koopman, C. Lavigne, S. Lehtola, F. März, M. Müller,
   F. Musil, H. Neugebauer, J. Pisarek, C. Plett, P. Pracht, F. Pultar,
   J. Seibert, P. Shushkov, S. Spicher, M. Stahn, M. Steiner, T. Strunk,
   J. Stückrath, T. Rose, and J. Unsleber
   
 * started run on 2024/11/01 at 13:47:30.698     

           -------------------------------------------------
          |                Calculation Setup                |
           -------------------------------------------------

          program call               : xtb opt_radical_Blatter2.mol --gfn2 --sp --chrg -1 --uhf 1
          coordinate file            : opt_radical_Blatter2.mol
          omp threads                :                     8

   ID    Z sym.   atoms
    1    6 C      1-18, 28, 29, 31-34, 36, 43
    2    1 H      19-26, 38-42
    3    8 O      27
    4    7 N      30, 35, 37
    5    9 F      44-46

           -------------------------------------------------
          |                 G F N 2 - x T B                 |
           -------------------------------------------------

        Reference                      10.1021/acs.jctc.8b01176
      * Hamiltonian:
        H0-scaling (s, p, d)           1.850000    2.230000    2.230000
        zeta-weighting                 0.500000
      * Dispersion:
        s8                             2.700000
        a1                             0.520000
        a2                             5.000000
        s9                             5.000000
      * Repulsion:
        kExp                           1.500000    1.000000
        rExp                           1.000000
      * Coulomb:
        alpha                          2.000000
        third order                    shell-resolved
        anisotropic                    true
        a3                             3.000000
        a5                             4.000000
        cn-shift                       1.200000
        cn-exp                         4.000000
        max-rad                        5.000000

q/qsh data taken from xtbrestart
CAMM data taken from xtbrestart

          ...................................................
          :                      SETUP                      :
          :.................................................:
          :  # basis functions                 145          :
          :  # atomic orbitals                 145          :
          :  # shells                           79          :
          :  # electrons                       160          :
          :  max. iterations                   250          :
          :  Hamiltonian                  GFN2-xTB          :
          :  restarted?                       true          :
          :  GBSA solvation                  false          :
          :  PC potential                    false          :
          :  electronic temp.          300.0000000     K    :
          :  accuracy                    1.0000000          :
          :  -> integral cutoff          0.2500000E+02      :
          :  -> integral neglect         0.1000000E-07      :
          :  -> SCF convergence          0.1000000E-05 Eh   :
          :  -> wf. convergence          0.1000000E-03 e    :
          :  Broyden damping             0.4000000          :
          ...................................................

 iter      E             dE          RMSdq      gap      omega  full diag
   1    -90.9004895 -0.909005E+02  0.732E-01    1.41       0.0  T
   2    -90.9146889 -0.141994E-01  0.574E-01    0.83       1.0  T
   3    -90.9244869 -0.979801E-02  0.321E-01    0.95       1.0  T
   4    -90.9255011 -0.101420E-02  0.229E-01    0.85       1.0  T
   5    -90.9260158 -0.514657E-03  0.113E-01    0.88       1.0  T
   6    -90.9265040 -0.488259E-03  0.265E-02    0.87       1.0  T
   7    -90.9265282 -0.241374E-04  0.957E-03    0.88       1.5  T
   8    -90.9265321 -0.389608E-05  0.414E-03    0.87       3.6  T
   9    -90.9265324 -0.383729E-06  0.210E-03    0.87       7.0  T
  10    -90.9265325 -0.687952E-07  0.778E-04    0.87      19.0  T
  11    -90.9265325 -0.153446E-07  0.346E-04    0.87      42.6  T

   *** convergence criteria satisfied after 11 iterations ***

         #    Occupation            Energy/Eh            Energy/eV
      -------------------------------------------------------------
         1        2.0000           -0.7523623             -20.4728
       ...           ...                  ...                  ...
        74        2.0000           -0.2873599              -7.8195
        75        2.0000           -0.2778769              -7.5614
        76        2.0000           -0.2703848              -7.3575
        77        2.0000           -0.2613361              -7.1113
        78        2.0000           -0.2487131              -6.7678
        79        2.0000           -0.2352650              -6.4019
        80        2.0000           -0.1859025              -5.0587 (HOMO)
        81                         -0.1537925              -4.1849 (LUMO)
        82                         -0.1459140              -3.9705
        83                         -0.1284545              -3.4954
        84                         -0.1175967              -3.2000
        85                         -0.1052355              -2.8636
       ...                                ...                  ...
       145                          0.8275701              22.5193
      -------------------------------------------------------------
                  HL-Gap            0.0321100 Eh            0.8738 eV
             Fermi-level           -0.1698477 Eh           -4.6218 eV

 SCC (total)                   0 d,  0 h,  0 min,  0.149 sec
 SCC setup                      ...        0 min,  0.000 sec (  0.094%)
 Dispersion                     ...        0 min,  0.000 sec (  0.196%)
 classical contributions        ...        0 min,  0.000 sec (  0.057%)
 integral evaluation            ...        0 min,  0.002 sec (  1.123%)
 iterations                     ...        0 min,  0.139 sec ( 93.874%)
 molecular gradient             ...        0 min,  0.006 sec (  4.099%)
 printout                       ...        0 min,  0.001 sec (  0.551%)

         :::::::::::::::::::::::::::::::::::::::::::::::::::::
         ::                     SUMMARY                     ::
         :::::::::::::::::::::::::::::::::::::::::::::::::::::
         :: total energy             -89.629709507778 Eh    ::
         :: gradient norm              0.077742248436 Eh/a0 ::
         :: HOMO-LUMO gap              0.873758063825 eV    ::
         ::.................................................::
         :: SCC energy               -90.926532526530 Eh    ::
         :: -> isotropic ES            0.145079148371 Eh    ::
         :: -> anisotropic ES          0.013473648434 Eh    ::
         :: -> anisotropic XC          0.016828847540 Eh    ::
         :: -> dispersion             -0.074589570655 Eh    ::
         :: repulsion energy           1.295345049993 Eh    ::
         :: add. restraining           0.000000000000 Eh    ::
         :: total charge              -1.000070353241 e     ::
         :::::::::::::::::::::::::::::::::::::::::::::::::::::

           -------------------------------------------------
          |                Property Printout                |
           -------------------------------------------------

    * Orbital Energies and Occupations

         #    Occupation            Energy/Eh            Energy/eV
      -------------------------------------------------------------
         1        2.0000           -0.7523623             -20.4728
       ...           ...                  ...                  ...
        68        2.0000           -0.3219040              -8.7595
        69        2.0000           -0.3155323              -8.5861
        70        2.0000           -0.3058233              -8.3219
        71        2.0000           -0.3051563              -8.3037
        72        2.0000           -0.3020049              -8.2180
        73        2.0000           -0.2975182              -8.0959
        74        2.0000           -0.2873599              -7.8195
        75        2.0000           -0.2778769              -7.5614
        76        2.0000           -0.2703848              -7.3575
        77        2.0000           -0.2613361              -7.1113
        78        2.0000           -0.2487131              -6.7678
        79        2.0000           -0.2352650              -6.4019
        80        2.0000           -0.1859025              -5.0587 (HOMO)
        81                         -0.1537925              -4.1849 (LUMO)
        82                         -0.1459140              -3.9705
        83                         -0.1284545              -3.4954
        84                         -0.1175967              -3.2000
        85                         -0.1052355              -2.8636
        86                         -0.0881780              -2.3994
        87                         -0.0688714              -1.8741
        88                         -0.0555633              -1.5120
        89                         -0.0523304              -1.4240
        90                         -0.0182433              -0.4964
        91                          0.0214870               0.5847
       ...                                ...                  ...
       145                          0.8275701              22.5193
      -------------------------------------------------------------
                  HL-Gap            0.0321100 Eh            0.8738 eV
             Fermi-level           -0.1698477 Eh           -4.6218 eV

     #   Z          covCN         q      C6AA      α(0)
     1   6 C        2.981     0.012    27.749     8.641
     2   6 C        2.983     0.018    27.611     8.620
     3   6 C        2.982    -0.016    28.392     8.740
     4   6 C        2.988    -0.000    28.024     8.684
     5   6 C        2.989     0.013    27.722     8.637
     6   6 C        2.987    -0.005    28.140     8.702
     7   6 C        2.917    -0.042    29.047     8.838
     8   6 C        2.916    -0.045    29.107     8.847
     9   6 C        2.915    -0.044    29.089     8.844
    10   6 C        2.916    -0.045    29.124     8.850
    11   6 C        2.919    -0.027    28.687     8.783
    12   6 C        2.927     0.021    27.538     8.606
    13   6 C        2.922    -0.037    28.916     8.818
    14   6 C        2.921    -0.070    29.743     8.943
    15   6 C        2.917    -0.036    28.897     8.815
    16   6 C        2.885     0.107    25.639     8.301
    17   6 C        2.916    -0.033    28.820     8.803
    18   6 C        2.913    -0.071    29.762     8.946
    19   1 H        0.926     0.010     2.895     2.661
    20   1 H        0.926     0.008     2.919     2.672
    21   1 H        0.926     0.012     2.857     2.643
    22   1 H        0.926     0.009     2.907     2.666
    23   1 H        0.926     0.017     2.779     2.607
    24   1 H        0.926     0.007     2.934     2.678
    25   1 H        0.926     0.015     2.806     2.620
    26   1 H        0.926     0.021     2.724     2.581
    27   8 O        1.709    -0.276    18.574     5.819
    28   6 C        2.880     0.110    25.570     8.290
    29   6 C        2.940     0.001    28.015     8.681
    30   7 N        2.864     0.057    20.245     6.683
    31   6 C        2.984     0.091    25.975     8.360
    32   6 C        2.917    -0.076    29.895     8.966
    33   6 C        2.920    -0.047    29.166     8.856
    34   6 C        2.919    -0.072    29.784     8.950
    35   7 N        1.841    -0.373    30.571     8.194
    36   6 C        2.926     0.144    24.869     8.178
    37   7 N        1.923    -0.294    28.452     7.909
    38   1 H        0.926     0.013     2.835     2.633
    39   1 H        0.925     0.019     2.742     2.590
    40   1 H        0.926     0.023     2.685     2.563
    41   1 H        0.926     0.013     2.844     2.637
    42   1 H        0.926     0.031     2.574     2.509
    43   6 C        3.343     0.479    17.282     6.568
    44   9 F        0.791    -0.214    11.381     3.985
    45   9 F        0.791    -0.219    11.433     3.994
    46   9 F        0.791    -0.210    11.341     3.978

 Mol. C6AA /au·bohr⁶  :      35344.491323
 Mol. C8AA /au·bohr⁸  :     889881.322398
 Mol. α(0) /au        :        298.886996


Wiberg/Mayer (AO) data.
largest (>0.10) Wiberg bond orders for each atom

 ---------------------------------------------------------------------------
     #   Z sym  total        # sym  WBO       # sym  WBO       # sym  WBO
 ---------------------------------------------------------------------------
     1   6 C    3.982 --     4 C    1.308     3 C    1.237     2 C    1.179
     2   6 C    3.986 --    11 C    1.313     5 C    1.266     1 C    1.179
     3   6 C    3.976 --     1 C    1.237     6 C    1.236    12 C    1.217
     4   6 C    3.977 --     1 C    1.308     7 C    1.243     8 C    1.230
     5   6 C    3.985 --    13 C    1.304     2 C    1.266     9 C    1.230
     6   6 C    3.982 --    14 C    1.336     3 C    1.236    10 C    1.222
     7   6 C    3.972 --     9 C    1.594     4 C    1.243    19 H    0.968
     8   6 C    3.980 --    10 C    1.613     4 C    1.230    20 H    0.968
     9   6 C    3.965 --     7 C    1.594     5 C    1.230    21 H    0.969
    10   6 C    3.976 --     8 C    1.613     6 C    1.222    22 H    0.968
    11   6 C    3.992 --    15 C    1.521     2 C    1.313    39 H    0.966
                            13 C    0.110
    12   6 C    3.962 --    16 C    1.299     3 C    1.217    30 N    1.148
    13   6 C    3.984 --    17 C    1.525     5 C    1.304    23 H    0.969
                            11 C    0.110
    14   6 C    3.934 --    18 C    1.418     6 C    1.336    24 H    0.969
    15   6 C    3.986 --    11 C    1.521    17 C    1.347    38 H    0.972
    16   6 C    3.911 --    18 C    1.383    12 C    1.299    27 O    1.007
    17   6 C    3.983 --    13 C    1.525    15 C    1.347    25 H    0.972
    18   6 C    3.960 --    14 C    1.418    16 C    1.383    26 H    0.969
    19   1 H    0.999 --     7 C    0.968
    20   1 H    0.999 --     8 C    0.968
    21   1 H    0.998 --     9 C    0.969
    22   1 H    0.999 --    10 C    0.968
    23   1 H    0.999 --    13 C    0.969
    24   1 H    0.999 --    14 C    0.969
    25   1 H    0.999 --    17 C    0.972
    26   1 H    0.998 --    18 C    0.969
    27   8 O    2.260 --    28 C    1.011    16 C    1.007
    28   6 C    3.922 --    29 C    1.360    32 C    1.353    27 O    1.011
    29   6 C    3.960 --    28 C    1.360    31 C    1.275    30 N    1.047
    30   7 N    3.604 --    12 C    1.148    37 N    1.068    29 C    1.047
    31   6 C    3.977 --    34 C    1.342    29 C    1.275    35 N    1.178
    32   6 C    3.971 --    33 C    1.428    28 C    1.353    40 H    0.971
    33   6 C    3.975 --    34 C    1.434    32 C    1.428    41 H    0.972
    34   6 C    3.970 --    33 C    1.434    31 C    1.342    42 H    0.970
    35   7 N    2.922 --    36 C    1.367    31 C    1.178    37 N    0.166
    36   6 C    3.959 --    37 N    1.480    35 N    1.367    43 C    0.920
    37   7 N    2.970 --    36 C    1.480    30 N    1.068    35 N    0.166
    38   1 H    0.999 --    15 C    0.972
    39   1 H    0.999 --    11 C    0.966
    40   1 H    0.999 --    32 C    0.971
    41   1 H    0.999 --    33 C    0.972
    42   1 H    0.998 --    34 C    0.970
    43   6 C    3.802 --    46 F    0.951    44 F    0.942    45 F    0.937
                            36 C    0.920
    44   9 F    1.064 --    43 C    0.942
    45   9 F    1.058 --    43 C    0.937
    46   9 F    1.068 --    43 C    0.951
 ---------------------------------------------------------------------------

Topologies differ in bond orders
Writing corrected topology to xtbtopo.mol

molecular dipole:
                 x           y           z       tot (Debye)
 q only:       -0.713       2.303       1.076
   full:       -0.918       2.265       1.155       6.870
molecular quadrupole (traceless):
                xx          xy          yy          xz          yz          zz
 q only:       -7.717      10.071      -7.900       6.324       4.201      15.617
  q+dip:       -0.709      10.455     -14.300       4.593      -1.674      15.009
   full:       -5.123      11.844     -11.832       6.063       3.915      16.955


           -------------------------------------------------
          | TOTAL ENERGY              -89.629709507778 Eh   |
          | GRADIENT NORM               0.077742248436 Eh/α |
          | HOMO-LUMO GAP               0.873758063825 eV   |
           -------------------------------------------------
########################################################################
[WARNING] Runtime exception occurred
-1- restart_readRestart: Number of electron missmatch in restart file.
########################################################################

------------------------------------------------------------------------
 * finished run on 2024/11/01 at 13:47:30.854     
------------------------------------------------------------------------
Note: The following floating-point exceptions are signalling: IEEE_UNDERFLOW_FLAG
normal termination of xtb
 total:
 * wall-time:     0 d,  0 h,  0 min,  0.155 sec
 *  cpu-time:     0 d,  0 h,  0 min,  0.368 sec
 * ratio c/w:     2.373 speedup
 SCF:
 * wall-time:     0 d,  0 h,  0 min,  0.149 sec
 *  cpu-time:     0 d,  0 h,  0 min,  0.358 sec
 * ratio c/w:     2.406 speedup

