      -----------------------------------------------------------      
     |                   =====================                   |     
     |                           x T B                           |     
     |                   =====================                   |     
     |                         S. Grimme                         |     
     |          Mulliken Center for Theoretical Chemistry        |     
     |                    University of Bonn                     |     
      -----------------------------------------------------------      

   * xtb version 6.6.1 (8d0f1dd) compiled by 'runner@Mac-1690902418499.local' on 2023-08-01

   xtb is free software: you can redistribute it and/or modify it under
   the terms of the GNU Lesser General Public License as published by
   the Free Software Foundation, either version 3 of the License, or
   (at your option) any later version.
   
   xtb is distributed in the hope that it will be useful,
   but WITHOUT ANY WARRANTY; without even the implied warranty of
   MERCHANTABILITY or FITNESS FOR A PARTICULAR PURPOSE.  See the
   GNU Lesser General Public License for more details.
   
   Cite this work as:
   * C. Bannwarth, E. Caldeweyher, S. Ehlert, A. Hansen, P. Pracht,
     J. Seibert, S. Spicher, S. Grimme, WIREs Comput. Mol. Sci., 2020, 11,
     e01493. DOI: 10.1002/wcms.1493
   
   for GFN2-xTB:
   * C. Bannwarth, S. Ehlert and S. Grimme., J. Chem. Theory Comput., 2019,
     15, 1652-1671. DOI: 10.1021/acs.jctc.8b01176
   for GFN1-xTB:
   * S. Grimme, C. Bannwarth, P. Shushkov, J. Chem. Theory Comput., 2017,
     13, 1989-2009. DOI: 10.1021/acs.jctc.7b00118
   for GFN0-xTB:
   * P. Pracht, E. Caldeweyher, S. Ehlert, S. Grimme, ChemRxiv, 2019, preprint.
     DOI: 10.26434/chemrxiv.8326202.v1
   for GFN-FF:
   * S. Spicher and S. Grimme, Angew. Chem. Int. Ed., 2020, 59, 15665-15673.
     DOI: 10.1002/anie.202004239
   
   for ALPB and GBSA implicit solvation:
   * S. Ehlert, M. Stahn, S. Spicher, S. Grimme, J. Chem. Theory Comput.,
     2021, 17, 4250-4261. DOI: 10.1021/acs.jctc.1c00471
   
   for DFT-D4:
   * E. Caldeweyher, C. Bannwarth and S. Grimme, J. Chem. Phys., 2017,
     147, 034112. DOI: 10.1063/1.4993215
   * E. Caldeweyher, S. Ehlert, A. Hansen, H. Neugebauer, S. Spicher,
     C. Bannwarth and S. Grimme, J. Chem. Phys., 2019, 150, 154122.
     DOI: 10.1063/1.5090222
   * E. Caldeweyher, J.-M. Mewes, S. Ehlert and S. Grimme, Phys. Chem. Chem. Phys.
     2020, 22, 8499-8512. DOI: 10.1039/D0CP00502A
   
   for sTDA-xTB:
   * S. Grimme and C. Bannwarth, J. Chem. Phys., 2016, 145, 054103.
     DOI: 10.1063/1.4959605
   
   in the mass-spec context:
   * V. Asgeirsson, C. Bauer and S. Grimme, Chem. Sci., 2017, 8, 4879.
     DOI: 10.1039/c7sc00601b
   * J. Koopman and S. Grimme, ACS Omega 2019, 4, 12, 15120-15133.
     DOI: 10.1021/acsomega.9b02011
   
   for metadynamics refer to:
   * S. Grimme, J. Chem. Theory Comput., 2019, 155, 2847-2862
     DOI: 10.1021/acs.jctc.9b00143
   
   for SPH calculations refer to:
   * S. Spicher and S. Grimme, J. Chem. Theory Comput., 2021, 17, 1701-1714
     DOI: 10.1021/acs.jctc.0c01306
   
   with help from (in alphabetical order)
   P. Atkinson, C. Bannwarth, F. Bohle, G. Brandenburg, E. Caldeweyher
   M. Checinski, S. Dohm, S. Ehlert, S. Ehrlich, I. Gerasimov, C. Hölzer
   A. Katbashev, J. Koopman, C. Lavigne, S. Lehtola, F. März, M. Müller,
   F. Musil, H. Neugebauer, J. Pisarek, C. Plett, P. Pracht, F. Pultar,
   J. Seibert, P. Shushkov, S. Spicher, M. Stahn, M. Steiner, T. Strunk,
   J. Stückrath, T. Rose, and J. Unsleber
   
 * started run on 2024/11/01 at 13:46:24.282     

           -------------------------------------------------
          |                Calculation Setup                |
           -------------------------------------------------

          program call               : xtb Blatter2.mol --opt --gfn2 --chrg 1 --uhf 0 --tight
          coordinate file            : Blatter2.mol
          omp threads                :                     8

   ID    Z sym.   atoms
    1    6 C      1-18, 28, 29, 31-34, 36, 43
    2    1 H      19-26, 38-42
    3    8 O      27
    4    7 N      30, 35, 37
    5    9 F      44-46
########################################################################
[WARNING] Please study the warnings concerning your input carefully
-1- prog_main_parseArguments: Unknown option '--tight' provided
########################################################################

           -------------------------------------------------
          |                 G F N 2 - x T B                 |
           -------------------------------------------------

        Reference                      10.1021/acs.jctc.8b01176
      * Hamiltonian:
        H0-scaling (s, p, d)           1.850000    2.230000    2.230000
        zeta-weighting                 0.500000
      * Dispersion:
        s8                             2.700000
        a1                             0.520000
        a2                             5.000000
        s9                             5.000000
      * Repulsion:
        kExp                           1.500000    1.000000
        rExp                           1.000000
      * Coulomb:
        alpha                          2.000000
        third order                    shell-resolved
        anisotropic                    true
        a3                             3.000000
        a5                             4.000000
        cn-shift                       1.200000
        cn-exp                         4.000000
        max-rad                        5.000000

q/qsh data taken from xtbrestart
CAMM data taken from xtbrestart

          ...................................................
          :                      SETUP                      :
          :.................................................:
          :  # basis functions                 145          :
          :  # atomic orbitals                 145          :
          :  # shells                           79          :
          :  # electrons                       158          :
          :  max. iterations                   250          :
          :  Hamiltonian                  GFN2-xTB          :
          :  restarted?                       true          :
          :  GBSA solvation                  false          :
          :  PC potential                    false          :
          :  electronic temp.          300.0000000     K    :
          :  accuracy                    1.0000000          :
          :  -> integral cutoff          0.2500000E+02      :
          :  -> integral neglect         0.1000000E-07      :
          :  -> SCF convergence          0.1000000E-05 Eh   :
          :  -> wf. convergence          0.1000000E-03 e    :
          :  Broyden damping             0.4000000          :
          ...................................................

 iter      E             dE          RMSdq      gap      omega  full diag
   1    -87.1392230 -0.871392E+02  0.498E+00    0.35       0.0  T
   2    -83.6974622  0.344176E+01  0.666E+00    0.11       1.0  T
   3    -87.9323445 -0.423488E+01  0.373E+00    0.67       1.0  T
   4    -88.1693381 -0.236994E+00  0.252E+00    0.08       1.0  T
   5    -88.3932702 -0.223932E+00  0.193E+00    0.69       1.0  T
   6    -88.1387989  0.254471E+00  0.208E+00    0.08       1.0  T
   7    -88.3511256 -0.212327E+00  0.152E+00    0.45       1.0  T
   8    -88.4358486 -0.847230E-01  0.105E+00    0.60       1.0  T
   9    -88.4727567 -0.369082E-01  0.673E-01    0.38       1.0  T
  10    -88.4871379 -0.143812E-01  0.507E-01    0.26       1.0  T
  11    -88.4985569 -0.114190E-01  0.286E-01    0.20       1.0  T
  12    -88.5022948 -0.373789E-02  0.153E-01    0.16       1.0  T
  13    -88.5033180 -0.102315E-02  0.623E-02    0.17       1.0  T
  14    -88.5034142 -0.962272E-04  0.477E-02    0.16       1.0  T
  15    -88.5033901  0.241029E-04  0.441E-02    0.16       1.0  T
  16    -88.5034982 -0.108146E-03  0.213E-02    0.15       1.0  T
  17    -88.5035175 -0.192923E-04  0.162E-02    0.16       1.0  T
  18    -88.5035350 -0.174770E-04  0.485E-03    0.16       3.0  T
  19    -88.5035363 -0.129119E-05  0.230E-03    0.16       6.4  T
  20    -88.5035366 -0.336987E-06  0.665E-04    0.16      22.2  T
  21    -88.5035366  0.142305E-07  0.670E-04    0.16      22.0  T

   *** convergence criteria satisfied after 21 iterations ***

         #    Occupation            Energy/Eh            Energy/eV
      -------------------------------------------------------------
         1        2.0000           -0.9242291             -25.1496
       ...           ...                  ...                  ...
        73        2.0000           -0.5365629             -14.6006
        74        2.0000           -0.5330390             -14.5047
        75        2.0000           -0.5252135             -14.2918
        76        2.0000           -0.5201712             -14.1546
        77        2.0000           -0.5106331             -13.8950
        78        2.0000           -0.5063788             -13.7793
        79        1.9095           -0.4983269             -13.5602 (HOMO)
        80        0.0904           -0.4925321             -13.4025 (LUMO)
        81        0.0000           -0.4850231             -13.1981
        82                         -0.4305106             -11.7148
        83                         -0.4210939             -11.4585
        84                         -0.4118900             -11.2081
       ...                                ...                  ...
       145                          0.2475429               6.7360
      -------------------------------------------------------------
                  HL-Gap            0.0057948 Eh            0.1577 eV
             Fermi-level           -0.4954296 Eh          -13.4813 eV

 SCC (total)                   0 d,  0 h,  0 min,  0.372 sec
 SCC setup                      ...        0 min,  0.000 sec (  0.038%)
 Dispersion                     ...        0 min,  0.000 sec (  0.087%)
 classical contributions        ...        0 min,  0.000 sec (  0.022%)
 integral evaluation            ...        0 min,  0.002 sec (  0.487%)
 iterations                     ...        0 min,  0.348 sec ( 93.392%)
 molecular gradient             ...        0 min,  0.012 sec (  3.216%)
 printout                       ...        0 min,  0.010 sec (  2.754%)

         :::::::::::::::::::::::::::::::::::::::::::::::::::::
         ::                     SUMMARY                     ::
         :::::::::::::::::::::::::::::::::::::::::::::::::::::
         :: total energy             -88.006893702840 Eh    ::
         :: gradient norm              0.354866470732 Eh/a0 ::
         :: HOMO-LUMO gap              0.157684167285 eV    ::
         ::.................................................::
         :: SCC energy               -88.503536629692 Eh    ::
         :: -> isotropic ES            0.125435630420 Eh    ::
         :: -> anisotropic ES         -0.022695540584 Eh    ::
         :: -> anisotropic XC          0.078081341570 Eh    ::
         :: -> dispersion             -0.064135348167 Eh    ::
         :: repulsion energy           0.495689356840 Eh    ::
         :: add. restraining           0.000000000000 Eh    ::
         :: total charge               1.000002625085 e     ::
         :::::::::::::::::::::::::::::::::::::::::::::::::::::

      ----------------------------------------------------------- 
     |                   =====================                   |
     |                        A N C O P T                        |
     |                   =====================                   |
     |               Approximate Normal Coordinate               |
     |                Rational Function Optimizer                |
      ----------------------------------------------------------- 

          ...................................................
          :                      SETUP                      :
          :.................................................:
          :   optimization level            normal          :
          :   max. optcycles                   200          :
          :   ANC micro-cycles                  20          :
          :   degrees of freedom               132          :
          :.................................................:
          :   RF solver                   davidson          :
          :   write xtbopt.log                true          :
          :   linear?                        false          :
          :   energy convergence         0.5000000E-05 Eh   :
          :   grad. convergence          0.1000000E-02 Eh/α :
          :   maxmium RF displ.          1.0000000          :
          :   Hlow (freq-cutoff)         0.1000000E-01      :
          :   Hmax (freq-cutoff)         5.0000000          :
          :   S6 in model hess.         20.0000000          :
          ...................................................

generating ANC from model Hessian ...
Using Lindh-Hessian (1995)
 Shifting diagonal of input Hessian by    9.8218641158713555E-003
 Lowest  eigenvalues of input Hessian
    0.000000    0.000000    0.000000    0.000000    0.000000    0.000000
    0.010000    0.010095    0.010301    0.010499    0.010701    0.010922
    0.011198    0.011313    0.011754    0.012310    0.012464    0.012791
 Highest eigenvalues
    1.233054    1.237105    1.258796    1.306008    1.323221    1.335834


........................................................................
.............................. CYCLE    1 ..............................
........................................................................

 iter      E             dE          RMSdq      gap      omega  full diag
   1    -88.5035367 -0.885035E+02  0.288E-04    0.16       0.0  T
   2    -88.5035362  0.439427E-06  0.223E-03    0.16       6.6  T
   3    -88.5035367 -0.444088E-06  0.180E-04    0.16      82.0  T
   4    -88.5035367 -0.144564E-08  0.119E-04    0.16     124.4  T
     SCC iter.                  ...        0 min,  0.123 sec
     gradient                   ...        0 min,  0.007 sec
 * total energy  :   -88.0068937 Eh     change       -0.3756027E-07 Eh
   gradient norm :     0.3548536 Eh/α   predicted     0.0000000E+00 (-100.00%)
   displ. norm   :     0.8120755 α      lambda       -0.2714196E+00
   maximum displ.:     0.4464858 α      in ANC's #73, #81, #67, ...

........................................................................
.............................. CYCLE    2 ..............................
........................................................................

 iter      E             dE          RMSdq      gap      omega  full diag
   1    -88.8463226 -0.888463E+02  0.683E-01    0.44       0.0  T
   2    -88.1483561  0.697967E+00  0.280E+00    0.21       1.0  T
   3    -88.8404745 -0.692118E+00  0.574E-01    0.47       1.0  T
   4    -88.8494960 -0.902152E-02  0.467E-01    0.39       1.0  T
   5    -88.8545977 -0.510164E-02  0.305E-01    0.34       1.0  T
   6    -88.8597494 -0.515170E-02  0.197E-01    0.28       1.0  T
   7    -88.8612164 -0.146697E-02  0.137E-01    0.26       1.0  T
   8    -88.8615937 -0.377314E-03  0.121E-01    0.24       1.0  T
   9    -88.8627159 -0.112226E-02  0.346E-02    0.20       1.0  T
  10    -88.8625142  0.201721E-03  0.524E-02    0.18       1.0  T
  11    -88.8627462 -0.232039E-03  0.147E-02    0.20       1.0  T
  12    -88.8627618 -0.155588E-04  0.346E-03    0.20       4.3  T
  13    -88.8627621 -0.339855E-06  0.232E-03    0.19       6.4  T
  14    -88.8627625 -0.394505E-06  0.725E-04    0.20      20.3  T
  15    -88.8627625  0.121721E-07  0.755E-04    0.20      19.5  T
     SCC iter.                  ...        0 min,  0.203 sec
     gradient                   ...        0 min,  0.006 sec
 * total energy  :   -88.2507408 Eh     change       -0.2438471E+00 Eh
   gradient norm :     0.2759022 Eh/α   predicted    -0.2252068E+00 (  -7.64%)
   displ. norm   :     0.8771471 α      lambda       -0.2333298E+00
   maximum displ.:     0.4493811 α      in ANC's #73, #67, #36, ...

........................................................................
.............................. CYCLE    3 ..............................
........................................................................

 iter      E             dE          RMSdq      gap      omega  full diag
   1    -89.1989680 -0.891990E+02  0.713E-01    0.52       0.0  T
   2    -88.5270660  0.671902E+00  0.283E+00    0.14       1.0  T
   3    -89.1996084 -0.672542E+00  0.539E-01    0.51       1.0  T
   4    -89.2090778 -0.946941E-02  0.390E-01    0.40       1.0  T
   5    -89.2138716 -0.479378E-02  0.234E-01    0.35       1.0  T
   6    -89.2176498 -0.377819E-02  0.101E-01    0.28       1.0  T
   7    -89.2179974 -0.347664E-03  0.672E-02    0.26       1.0  T
   8    -89.2182350 -0.237587E-03  0.233E-02    0.24       1.0  T
   9    -89.2181981  0.368688E-04  0.281E-02    0.23       1.0  T
  10    -89.2182498 -0.516332E-04  0.989E-03    0.23       1.5  T
  11    -89.2182583 -0.852722E-05  0.253E-03    0.24       5.8  T
  12    -89.2182586 -0.320634E-06  0.158E-03    0.24       9.3  T
  13    -89.2182587 -0.135653E-06  0.761E-04    0.24      19.4  T
  14    -89.2182588 -0.329963E-07  0.213E-04    0.24      69.3  T
     SCC iter.                  ...        0 min,  0.336 sec
     gradient                   ...        0 min,  0.006 sec
 * total energy  :   -88.4494872 Eh     change       -0.1987464E+00 Eh
   gradient norm :     0.1879722 Eh/α   predicted    -0.2064360E+00 (   3.87%)
   displ. norm   :     0.8398842 α      lambda       -0.1533173E+00
   maximum displ.:     0.4030043 α      in ANC's #73, #36, #66, ...

........................................................................
.............................. CYCLE    4 ..............................
........................................................................

 iter      E             dE          RMSdq      gap      omega  full diag
   1    -89.4904994 -0.894905E+02  0.626E-01    0.41       0.0  T
   2    -88.8322998  0.658200E+00  0.281E+00    0.14       1.0  T
   3    -89.4907532 -0.658453E+00  0.487E-01    0.43       1.0  T
   4    -89.4984824 -0.772919E-02  0.338E-01    0.36       1.0  T
   5    -89.5018466 -0.336426E-02  0.209E-01    0.31       1.0  T
   6    -89.5049142 -0.306759E-02  0.864E-02    0.27       1.0  T
   7    -89.5051912 -0.276978E-03  0.580E-02    0.26       1.0  T
   8    -89.5053692 -0.177991E-03  0.215E-02    0.23       1.0  T
   9    -89.5053335  0.357054E-04  0.270E-02    0.23       1.0  T
  10    -89.5053908 -0.572983E-04  0.572E-03    0.24       2.6  T
  11    -89.5053935 -0.274369E-05  0.129E-03    0.24      11.5  T
  12    -89.5053934  0.999533E-07  0.155E-03    0.24       9.5  T
  13    -89.5053936 -0.182048E-06  0.397E-04    0.24      37.1  T
  14    -89.5053936 -0.641943E-08  0.144E-04    0.24     102.3  T
     SCC iter.                  ...        0 min,  0.244 sec
     gradient                   ...        0 min,  0.008 sec
 * total energy  :   -88.5758908 Eh     change       -0.1264036E+00 Eh
   gradient norm :     0.1283489 Eh/α   predicted    -0.1307343E+00 (   3.43%)
   displ. norm   :     0.8033760 α      lambda       -0.9690009E-01
   maximum displ.:     0.3702166 α      in ANC's #36, #73, #67, ...

........................................................................
.............................. CYCLE    5 ..............................
........................................................................

 iter      E             dE          RMSdq      gap      omega  full diag
   1    -89.7105063 -0.897105E+02  0.504E-01    0.36       0.0  T
   2    -89.1318243  0.578682E+00  0.261E+00    0.14       1.0  T
   3    -89.7062243 -0.574400E+00  0.435E-01    0.48       1.0  T
   4    -89.7110373 -0.481297E-02  0.318E-01    0.41       1.0  T
   5    -89.7117535 -0.716257E-03  0.257E-01    0.39       1.0  T
   6    -89.7141046 -0.235105E-02  0.190E-01    0.34       1.0  T
   7    -89.7148461 -0.741508E-03  0.163E-01    0.31       1.0  T
   8    -89.7155497 -0.703595E-03  0.134E-01    0.29       1.0  T
   9    -89.7160581 -0.508438E-03  0.108E-01    0.28       1.0  T
  10    -89.7168525 -0.794340E-03  0.418E-02    0.21       1.0  T
  11    -89.7169807 -0.128196E-03  0.110E-02    0.22       1.3  T
  12    -89.7169829 -0.224357E-05  0.889E-03    0.22       1.7  T
  13    -89.7169865 -0.359496E-05  0.628E-03    0.22       2.3  T
  14    -89.7169895 -0.299729E-05  0.197E-03    0.22       7.5  T
  15    -89.7169897 -0.249562E-06  0.915E-04    0.22      16.1  T
  16    -89.7169898 -0.646229E-07  0.121E-04    0.22     122.2  T
     SCC iter.                  ...        0 min,  0.224 sec
     gradient                   ...        0 min,  0.006 sec
 * total energy  :   -88.6549631 Eh     change       -0.7907226E-01 Eh
   gradient norm :     0.0867349 Eh/α   predicted    -0.7972104E-01 (   0.82%)
   displ. norm   :     0.8459311 α      lambda       -0.6764159E-01
   maximum displ.:     0.4196646 α      in ANC's #36, #67, #26, ...

........................................................................
.............................. CYCLE    6 ..............................
........................................................................

 iter      E             dE          RMSdq      gap      omega  full diag
   1    -89.8721212 -0.898721E+02  0.779E-01    0.54       0.0  T
   2    -89.8432767  0.288445E-01  0.784E-01    0.41       1.0  T
   3    -89.8815154 -0.382387E-01  0.442E-01    0.35       1.0  T
   4    -89.8880144 -0.649900E-02  0.160E-01    0.48       1.0  T
   5    -89.8892134 -0.119895E-02  0.359E-02    0.38       1.0  T
   6    -89.8892411 -0.276794E-04  0.197E-02    0.38       1.0  T
   7    -89.8892460 -0.488610E-05  0.110E-02    0.38       1.3  T
   8    -89.8892485 -0.250978E-05  0.459E-03    0.38       3.2  T
   9    -89.8892496 -0.109618E-05  0.143E-03    0.38      10.3  T
  10    -89.8892496 -0.752437E-07  0.684E-04    0.38      21.5  T
  11    -89.8892496 -0.413952E-08  0.409E-04    0.38      36.1  T
     SCC iter.                  ...        0 min,  0.144 sec
     gradient                   ...        0 min,  0.006 sec
 * total energy  :   -88.7174583 Eh     change       -0.6249523E-01 Eh
   gradient norm :     0.0952862 Eh/α   predicted    -0.5802293E-01 (  -7.16%)
   displ. norm   :     0.9407615 α      lambda       -0.6950077E-01
   maximum displ.:     0.3881023 α      in ANC's #36, #67, #21, ...

........................................................................
.............................. CYCLE    7 ..............................
........................................................................

 iter      E             dE          RMSdq      gap      omega  full diag
   1    -90.0403258 -0.900403E+02  0.590E-01    0.73       0.0  T
   2    -90.0332558  0.707001E-02  0.559E-01    0.53       1.0  T
   3    -90.0497822 -0.165264E-01  0.221E-01    0.72       1.0  T
   4    -90.0502716 -0.489463E-03  0.138E-01    0.61       1.0  T
   5    -90.0513405 -0.106886E-02  0.452E-02    0.67       1.0  T
   6    -90.0513893 -0.487657E-04  0.160E-02    0.65       1.0  T
   7    -90.0514017 -0.124013E-04  0.625E-03    0.66       2.4  T
   8    -90.0514030 -0.132980E-05  0.310E-03    0.66       4.8  T
   9    -90.0514031 -0.131317E-06  0.151E-03    0.66       9.8  T
  10    -90.0514032 -0.537636E-07  0.717E-04    0.66      20.6  T
  11    -90.0514032 -0.259119E-07  0.301E-04    0.66      48.9  T
     SCC iter.                  ...        0 min,  0.162 sec
     gradient                   ...        0 min,  0.008 sec
 * total energy  :   -88.7755284 Eh     change       -0.5807010E-01 Eh
   gradient norm :     0.0980591 Eh/α   predicted    -0.6550559E-01 (  12.80%)
   displ. norm   :     0.8003276 α      lambda       -0.5382980E-01
   maximum displ.:     0.3065034 α      in ANC's #36, #30, #23, ...

........................................................................
.............................. CYCLE    8 ..............................
........................................................................

 iter      E             dE          RMSdq      gap      omega  full diag
   1    -90.1349720 -0.901350E+02  0.324E-01    0.60       0.0  T
   2    -90.1348405  0.131431E-03  0.257E-01    0.72       1.0  T
   3    -90.1366632 -0.182268E-02  0.136E-01    0.63       1.0  T
   4    -90.1367581 -0.949298E-04  0.644E-02    0.68       1.0  T
   5    -90.1370619 -0.303758E-03  0.193E-02    0.65       1.0  T
   6    -90.1370766 -0.147336E-04  0.835E-03    0.66       1.8  T
   7    -90.1370793 -0.267788E-05  0.491E-03    0.65       3.0  T
   8    -90.1370801 -0.825201E-06  0.248E-03    0.65       6.0  T
   9    -90.1370803 -0.169935E-06  0.713E-04    0.65      20.7  T
  10    -90.1370803 -0.194832E-07  0.286E-04    0.65      51.6  T
     SCC iter.                  ...        0 min,  0.140 sec
     gradient                   ...        0 min,  0.006 sec
 * total energy  :   -88.8223472 Eh     change       -0.4681875E-01 Eh
   gradient norm :     0.1000139 Eh/α   predicted    -0.4415454E-01 (  -5.69%)
   displ. norm   :     0.7953079 α      lambda       -0.5730611E-01
   maximum displ.:     0.2924613 α      in ANC's #92, #23, #30, ...

........................................................................
.............................. CYCLE    9 ..............................
........................................................................

 iter      E             dE          RMSdq      gap      omega  full diag
   1    -90.1862519 -0.901863E+02  0.406E-01    0.56       0.0  T
   2    -90.1855657  0.686175E-03  0.329E-01    0.74       1.0  T
   3    -90.1899000 -0.433428E-02  0.176E-01    0.60       1.0  T
   4    -90.1901946 -0.294681E-03  0.780E-02    0.65       1.0  T
   5    -90.1905837 -0.389100E-03  0.214E-02    0.62       1.0  T
   6    -90.1906058 -0.221025E-04  0.115E-02    0.63       1.3  T
   7    -90.1906110 -0.514610E-05  0.618E-03    0.62       2.4  T
   8    -90.1906124 -0.143415E-05  0.256E-03    0.63       5.8  T
   9    -90.1906126 -0.162610E-06  0.874E-04    0.63      16.9  T
  10    -90.1906126 -0.264451E-07  0.339E-04    0.63      43.5  T
     SCC iter.                  ...        0 min,  0.138 sec
     gradient                   ...        0 min,  0.006 sec
 * total energy  :   -88.8697853 Eh     change       -0.4743811E-01 Eh
   gradient norm :     0.1055262 Eh/α   predicted    -0.4677656E-01 (  -1.39%)
   displ. norm   :     0.8050568 α      lambda       -0.5436626E-01
   maximum displ.:     0.3082411 α      in ANC's #21, #92, #23, ...

........................................................................
.............................. CYCLE   10 ..............................
........................................................................

 iter      E             dE          RMSdq      gap      omega  full diag
   1    -90.2092254 -0.902092E+02  0.406E-01    0.62       0.0  T
   2    -90.2112323 -0.200695E-02  0.259E-01    0.59       1.0  T
   3    -90.2116528 -0.420525E-03  0.183E-01    0.64       1.0  T
   4    -90.2120434 -0.390582E-03  0.100E-01    0.58       1.0  T
   5    -90.2124398 -0.396417E-03  0.443E-02    0.63       1.0  T
   6    -90.2125200 -0.801086E-04  0.245E-02    0.60       1.0  T
   7    -90.2125658 -0.458231E-04  0.580E-03    0.61       2.5  T
   8    -90.2125673 -0.152809E-05  0.275E-03    0.61       5.4  T
   9    -90.2125674 -0.889476E-07  0.117E-03    0.61      12.6  T
  10    -90.2125674 -0.572429E-07  0.419E-04    0.61      35.2  T
  11    -90.2125675 -0.486243E-08  0.192E-04    0.61      76.9  T
     SCC iter.                  ...        0 min,  0.156 sec
     gradient                   ...        0 min,  0.006 sec
 * total energy  :   -88.9007405 Eh     change       -0.3095522E-01 Eh
   gradient norm :     0.0945806 Eh/α   predicted    -0.4480096E-01 (  44.73%)
   displ. norm   :     0.5964112 α      lambda       -0.3369931E-01
   maximum displ.:     0.2702023 α      in ANC's #67, #92, #23, ...

........................................................................
.............................. CYCLE   11 ..............................
........................................................................

 iter      E             dE          RMSdq      gap      omega  full diag
   1    -90.2063508 -0.902064E+02  0.351E-01    0.60       0.0  T
   2    -90.2070019 -0.651060E-03  0.241E-01    0.52       1.0  T
   3    -90.2061085  0.893429E-03  0.192E-01    0.65       1.0  T
   4    -90.2079541 -0.184564E-02  0.795E-02    0.54       1.0  T
   5    -90.2079790 -0.248927E-04  0.499E-02    0.58       1.0  T
   6    -90.2081469 -0.167944E-03  0.175E-02    0.56       1.0  T
   7    -90.2081715 -0.245162E-04  0.448E-03    0.57       3.3  T
   8    -90.2081717 -0.227448E-06  0.264E-03    0.57       5.6  T
   9    -90.2081719 -0.225705E-06  0.934E-04    0.57      15.8  T
  10    -90.2081719 -0.343602E-07  0.329E-04    0.57      44.8  T
     SCC iter.                  ...        0 min,  0.185 sec
     gradient                   ...        0 min,  0.006 sec
 * total energy  :   -88.9152378 Eh     change       -0.1449733E-01 Eh
   gradient norm :     0.1067784 Eh/α   predicted    -0.2284320E-01 (  57.57%)
   displ. norm   :     0.4522531 α      lambda       -0.2446681E-01
   maximum displ.:     0.1240056 α      in ANC's #6, #13, #7, ...

........................................................................
.............................. CYCLE   12 ..............................
........................................................................

 iter      E             dE          RMSdq      gap      omega  full diag
   1    -90.2164001 -0.902164E+02  0.341E-01    0.61       0.0  T
   2    -90.2166937 -0.293672E-03  0.200E-01    0.54       1.0  T
   3    -90.2154387  0.125500E-02  0.148E-01    0.67       1.0  T
   4    -90.2168393 -0.140053E-02  0.493E-02    0.56       1.0  T
   5    -90.2169896 -0.150341E-03  0.175E-02    0.58       1.0  T
   6    -90.2169971 -0.743454E-05  0.106E-02    0.57       1.4  T
   7    -90.2170032 -0.618830E-05  0.318E-03    0.57       4.6  T
   8    -90.2170038 -0.564089E-06  0.118E-03    0.58      12.5  T
   9    -90.2170038 -0.294026E-07  0.480E-04    0.58      30.7  T
  10    -90.2170038 -0.571129E-08  0.203E-04    0.58      72.7  T
     SCC iter.                  ...        0 min,  0.117 sec
     gradient                   ...        0 min,  0.006 sec
 * total energy  :   -88.9239792 Eh     change       -0.8741342E-02 Eh
   gradient norm :     0.0753937 Eh/α   predicted    -0.1473556E-01 (  68.57%)
   displ. norm   :     0.5115292 α      lambda       -0.2135216E-01
   maximum displ.:     0.2535754 α      in ANC's #11, #6, #13, ...

........................................................................
.............................. CYCLE   13 ..............................
........................................................................

 iter      E             dE          RMSdq      gap      omega  full diag
   1    -90.2333126 -0.902333E+02  0.300E-01    0.63       0.0  T
   2    -90.2337793 -0.466746E-03  0.190E-01    0.57       1.0  T
   3    -90.2332650  0.514339E-03  0.121E-01    0.67       1.0  T
   4    -90.2336377 -0.372693E-03  0.695E-02    0.56       1.0  T
   5    -90.2340440 -0.406352E-03  0.112E-02    0.61       1.3  T
   6    -90.2340462 -0.218642E-05  0.698E-03    0.60       2.1  T
   7    -90.2340481 -0.190584E-05  0.268E-03    0.60       5.5  T
   8    -90.2340483 -0.152307E-06  0.136E-03    0.60      10.9  T
   9    -90.2340483 -0.392586E-07  0.692E-04    0.60      21.3  T
  10    -90.2340483 -0.196759E-07  0.302E-04    0.60      48.9  T
     SCC iter.                  ...        0 min,  0.126 sec
     gradient                   ...        0 min,  0.006 sec
 * total energy  :   -88.9300573 Eh     change       -0.6078101E-02 Eh
   gradient norm :     0.0778953 Eh/α   predicted    -0.1346961E-01 ( 121.61%)
   displ. norm   :     0.4496819 α      lambda       -0.2090227E-01
   maximum displ.:     0.1406739 α      in ANC's #6, #7, #10, ...

........................................................................
.............................. CYCLE   14 ..............................
........................................................................

 iter      E             dE          RMSdq      gap      omega  full diag
   1    -90.2100146 -0.902100E+02  0.342E-01    0.55       0.0  T
   2    -90.2100823 -0.676395E-04  0.248E-01    0.73       1.0  T
   3    -90.2104779 -0.395682E-03  0.168E-01    0.55       1.0  T
   4    -90.2115666 -0.108871E-02  0.806E-02    0.66       1.0  T
   5    -90.2119240 -0.357312E-03  0.234E-02    0.62       1.0  T
   6    -90.2119406 -0.166405E-04  0.107E-02    0.62       1.4  T
   7    -90.2119451 -0.447058E-05  0.429E-03    0.62       3.4  T
   8    -90.2119461 -0.103087E-05  0.155E-03    0.62       9.5  T
   9    -90.2119461 -0.296675E-07  0.874E-04    0.62      16.9  T
  10    -90.2119462 -0.305849E-07  0.318E-04    0.62      46.4  T
     SCC iter.                  ...        0 min,  0.138 sec
     gradient                   ...        0 min,  0.006 sec
 * total energy  :   -88.9360675 Eh     change       -0.6010194E-02 Eh
   gradient norm :     0.0551917 Eh/α   predicted    -0.1256454E-01 ( 109.05%)
   displ. norm   :     0.5433329 α      lambda       -0.1778054E-01
   maximum displ.:     0.2579581 α      in ANC's #11, #8, #9, ...

........................................................................
.............................. CYCLE   15 ..............................
........................................................................

 iter      E             dE          RMSdq      gap      omega  full diag
   1    -90.2050155 -0.902050E+02  0.357E-01    0.60       0.0  T
   2    -90.2052208 -0.205296E-03  0.230E-01    0.70       1.0  T
   3    -90.2031717  0.204908E-02  0.205E-01    0.55       1.0  T
   4    -90.2057083 -0.253662E-02  0.767E-02    0.68       1.0  T
   5    -90.2060809 -0.372642E-03  0.235E-02    0.64       1.0  T
   6    -90.2060971 -0.161813E-04  0.105E-02    0.64       1.4  T
   7    -90.2061010 -0.391278E-05  0.427E-03    0.64       3.5  T
   8    -90.2061020 -0.100560E-05  0.201E-03    0.64       7.3  T
   9    -90.2061021 -0.931387E-07  0.106E-03    0.64      14.0  T
  10    -90.2061022 -0.451218E-07  0.458E-04    0.64      32.2  T
  11    -90.2061022 -0.147456E-07  0.134E-04    0.64     109.8  T
     SCC iter.                  ...        0 min,  0.151 sec
     gradient                   ...        0 min,  0.010 sec
 * total energy  :   -88.9356872 Eh     change        0.3802758E-03 Eh
   gradient norm :     0.0881667 Eh/α   predicted    -0.1151478E-01 (*******%)
   displ. norm   :     0.4811559 α      lambda       -0.2504992E-01
   maximum displ.:     0.1453074 α      in ANC's #5, #6, #24, ...

........................................................................
.............................. CYCLE   16 ..............................
........................................................................

 iter      E             dE          RMSdq      gap      omega  full diag
   1    -90.2218611 -0.902219E+02  0.344E-01    0.67       0.0  T
   2    -90.2218742 -0.130397E-04  0.228E-01    0.57       1.0  T
   3    -90.2203968  0.147739E-02  0.183E-01    0.75       1.0  T
   4    -90.2226814 -0.228461E-02  0.521E-02    0.62       1.0  T
   5    -90.2227700 -0.886520E-04  0.207E-02    0.63       1.0  T
   6    -90.2227788 -0.880809E-05  0.110E-02    0.62       1.3  T
   7    -90.2227851 -0.622649E-05  0.373E-03    0.63       4.0  T
   8    -90.2227857 -0.612831E-06  0.174E-03    0.63       8.5  T
   9    -90.2227858 -0.781674E-07  0.830E-04    0.63      17.8  T
  10    -90.2227858 -0.173529E-07  0.303E-04    0.63      48.7  T
     SCC iter.                  ...        0 min,  0.121 sec
     gradient                   ...        0 min,  0.006 sec
 * total energy  :   -88.9409236 Eh     change       -0.5236400E-02 Eh
   gradient norm :     0.0679909 Eh/α   predicted    -0.1542463E-01 ( 194.57%)
   displ. norm   :     0.4450524 α      lambda       -0.2030946E-01
   maximum displ.:     0.1224317 α      in ANC's #42, #52, #28, ...

........................................................................
.............................. CYCLE   17 ..............................
........................................................................

 iter      E             dE          RMSdq      gap      omega  full diag
   1    -90.2290725 -0.902291E+02  0.449E-01    0.76       0.0  T
   2    -90.2290776 -0.516005E-05  0.270E-01    0.60       1.0  T
   3    -90.2274339  0.164375E-02  0.214E-01    0.81       1.0  T
   4    -90.2301034 -0.266953E-02  0.405E-02    0.67       1.0  T
   5    -90.2301681 -0.646883E-04  0.159E-02    0.67       1.0  T
   6    -90.2301708 -0.274058E-05  0.935E-03    0.66       1.6  T
   7    -90.2301752 -0.440422E-05  0.336E-03    0.67       4.4  T
   8    -90.2301758 -0.595520E-06  0.118E-03    0.67      12.5  T
   9    -90.2301759 -0.501107E-07  0.549E-04    0.67      26.9  T
  10    -90.2301759 -0.406827E-08  0.294E-04    0.67      50.1  T
     SCC iter.                  ...        0 min,  0.187 sec
     gradient                   ...        0 min,  0.009 sec
 * total energy  :   -88.9405329 Eh     change        0.3906542E-03 Eh
   gradient norm :     0.0748052 Eh/α   predicted    -0.1216610E-01 (*******%)
   displ. norm   :     0.4230301 α      lambda       -0.1904292E-01
   maximum displ.:     0.1500943 α      in ANC's #3, #27, #5, ...

........................................................................
.............................. CYCLE   18 ..............................
........................................................................

 iter      E             dE          RMSdq      gap      omega  full diag
   1    -90.2297953 -0.902298E+02  0.339E-01    0.60       0.0  T
   2    -90.2293801  0.415176E-03  0.263E-01    0.82       1.0  T
   3    -90.2308334 -0.145329E-02  0.153E-01    0.64       1.0  T
   4    -90.2314896 -0.656231E-03  0.505E-02    0.71       1.0  T
   5    -90.2316487 -0.159054E-03  0.127E-02    0.69       1.2  T
   6    -90.2316531 -0.440543E-05  0.657E-03    0.69       2.2  T
   7    -90.2316547 -0.158255E-05  0.284E-03    0.69       5.2  T
   8    -90.2316550 -0.346644E-06  0.120E-03    0.69      12.3  T
   9    -90.2316551 -0.431335E-07  0.516E-04    0.69      28.6  T
  10    -90.2316551 -0.642054E-08  0.251E-04    0.69      58.7  T
     SCC iter.                  ...        0 min,  0.130 sec
     gradient                   ...        0 min,  0.006 sec
 * total energy  :   -88.9469936 Eh     change       -0.6460668E-02 Eh
   gradient norm :     0.0455886 Eh/α   predicted    -0.1122537E-01 (  73.75%)
   displ. norm   :     0.3688251 α      lambda       -0.1157573E-01
   maximum displ.:     0.1786894 α      in ANC's #49, #2, #8, ...

........................................................................
.............................. CYCLE   19 ..............................
........................................................................

 iter      E             dE          RMSdq      gap      omega  full diag
   1    -90.2226083 -0.902226E+02  0.352E-01    0.63       0.0  T
   2    -90.2227089 -0.100626E-03  0.208E-01    0.70       1.0  T
   3    -90.2200123  0.269656E-02  0.189E-01    0.56       1.0  T
   4    -90.2228771 -0.286476E-02  0.595E-02    0.69       1.0  T
   5    -90.2230828 -0.205740E-03  0.157E-02    0.66       1.0  T
   6    -90.2230897 -0.689417E-05  0.667E-03    0.66       2.2  T
   7    -90.2230909 -0.122020E-05  0.269E-03    0.66       5.5  T
   8    -90.2230913 -0.344742E-06  0.108E-03    0.66      13.7  T
   9    -90.2230913 -0.370604E-07  0.472E-04    0.66      31.2  T
  10    -90.2230913 -0.123457E-07  0.190E-04    0.66      77.7  T
     SCC iter.                  ...        0 min,  0.121 sec
     gradient                   ...        0 min,  0.006 sec
 * total energy  :   -88.9471436 Eh     change       -0.1499627E-03 Eh
   gradient norm :     0.0612548 Eh/α   predicted    -0.6575212E-02 (4284.57%)
   displ. norm   :     0.2781192 α      lambda       -0.9435884E-02
   maximum displ.:     0.1143971 α      in ANC's #3, #49, #2, ...

........................................................................
.............................. CYCLE   20 ..............................
........................................................................

 iter      E             dE          RMSdq      gap      omega  full diag
   1    -90.2372476 -0.902372E+02  0.230E-01    0.76       0.0  T
   2    -90.2370306  0.216915E-03  0.165E-01    0.62       1.0  T
   3    -90.2373824 -0.351745E-03  0.113E-01    0.75       1.0  T
   4    -90.2379917 -0.609300E-03  0.358E-02    0.68       1.0  T
   5    -90.2380395 -0.478104E-04  0.970E-03    0.69       1.5  T
   6    -90.2380414 -0.190091E-05  0.440E-03    0.69       3.4  T
   7    -90.2380419 -0.490845E-06  0.162E-03    0.69       9.1  T
   8    -90.2380420 -0.114391E-06  0.607E-04    0.69      24.3  T
   9    -90.2380420 -0.110197E-07  0.256E-04    0.69      57.7  T
     SCC iter.                  ...        0 min,  0.143 sec
     gradient                   ...        0 min,  0.006 sec
 * total energy  :   -88.9515577 Eh     change       -0.4414137E-02 Eh
   gradient norm :     0.0243223 Eh/α   predicted    -0.5082862E-02 (  15.15%)
   displ. norm   :     0.2927127 α      lambda       -0.3453293E-02
   maximum displ.:     0.1430425 α      in ANC's #2, #3, #6, ...
 * RMSD in coord.:     1.0439971 α      energy gain  -0.9446640E+00 Eh

generating ANC from model Hessian ...
Using Lindh-Hessian (1995)
 Shifting diagonal of input Hessian by    9.2265005136109024E-003
 Lowest  eigenvalues of input Hessian
    0.000000    0.000000    0.000000    0.000000    0.000000    0.000000
    0.010000    0.010389    0.011253    0.012074    0.012182    0.013618
    0.013981    0.015097    0.016905    0.019039    0.020486    0.021463
 Highest eigenvalues
    2.034089    2.085295    2.116927    2.204394    2.327241    2.349789


........................................................................
.............................. CYCLE   21 ..............................
........................................................................

 iter      E             dE          RMSdq      gap      omega  full diag
   1    -90.2413974 -0.902414E+02  0.150E-01    0.69       0.0  T
   2    -90.2414350 -0.375967E-04  0.102E-01    0.72       1.0  T
   3    -90.2413859  0.491007E-04  0.704E-02    0.69       1.0  T
   4    -90.2415725 -0.186592E-03  0.218E-02    0.72       1.0  T
   5    -90.2416049 -0.323883E-04  0.804E-03    0.70       1.8  T
   6    -90.2416087 -0.382347E-05  0.317E-03    0.71       4.7  T
   7    -90.2416091 -0.399318E-06  0.136E-03    0.71      10.9  T
   8    -90.2416092 -0.517009E-07  0.601E-04    0.71      24.5  T
   9    -90.2416092 -0.136691E-07  0.281E-04    0.71      52.4  T
     SCC iter.                  ...        0 min,  0.130 sec
     gradient                   ...        0 min,  0.006 sec
 * total energy  :   -88.9525020 Eh     change       -0.9443500E-03 Eh
   gradient norm :     0.0289282 Eh/α   predicted     0.0000000E+00 (-100.00%)
   displ. norm   :     0.2795036 α      lambda       -0.2465467E-02
   maximum displ.:     0.1571185 α      in ANC's #4, #7, #8, ...

........................................................................
.............................. CYCLE   22 ..............................
........................................................................

 iter      E             dE          RMSdq      gap      omega  full diag
   1    -90.2472207 -0.902472E+02  0.112E-01    0.71       0.0  T
   2    -90.2472291 -0.837572E-05  0.717E-02    0.71       1.0  T
   3    -90.2471048  0.124347E-03  0.518E-02    0.71       1.0  T
   4    -90.2472654 -0.160640E-03  0.827E-03    0.71       1.8  T
   5    -90.2472691 -0.366617E-05  0.280E-03    0.71       5.3  T
   6    -90.2472693 -0.274955E-06  0.148E-03    0.71       9.9  T
   7    -90.2472694 -0.398154E-07  0.813E-04    0.71      18.1  T
   8    -90.2472694 -0.193029E-07  0.345E-04    0.71      42.7  T
     SCC iter.                  ...        0 min,  0.100 sec
     gradient                   ...        0 min,  0.006 sec
 * total energy  :   -88.9543438 Eh     change       -0.1841804E-02 Eh
   gradient norm :     0.0127317 Eh/α   predicted    -0.1329287E-02 ( -27.83%)
   displ. norm   :     0.4261951 α      lambda       -0.1817068E-02
   maximum displ.:     0.2618844 α      in ANC's #4, #7, #1, ...

........................................................................
.............................. CYCLE   23 ..............................
........................................................................

 iter      E             dE          RMSdq      gap      omega  full diag
   1    -90.2504889 -0.902505E+02  0.149E-01    0.72       0.0  T
   2    -90.2504895 -0.683666E-06  0.939E-02    0.71       1.0  T
   3    -90.2501929  0.296628E-03  0.711E-02    0.73       1.0  T
   4    -90.2505509 -0.357969E-03  0.929E-03    0.71       1.6  T
   5    -90.2505554 -0.448059E-05  0.395E-03    0.71       3.7  T
   6    -90.2505559 -0.590262E-06  0.210E-03    0.71       7.0  T
   7    -90.2505561 -0.115032E-06  0.109E-03    0.71      13.5  T
   8    -90.2505561 -0.334922E-07  0.362E-04    0.71      40.7  T
   9    -90.2505561 -0.731131E-08  0.132E-04    0.71     111.8  T
     SCC iter.                  ...        0 min,  0.155 sec
     gradient                   ...        0 min,  0.006 sec
 * total energy  :   -88.9556427 Eh     change       -0.1298855E-02 Eh
   gradient norm :     0.0072778 Eh/α   predicted    -0.1073563E-02 ( -17.35%)
   displ. norm   :     0.4248251 α      lambda       -0.9824508E-03
   maximum displ.:     0.2535218 α      in ANC's #4, #1, #2, ...

........................................................................
.............................. CYCLE   24 ..............................
........................................................................

 iter      E             dE          RMSdq      gap      omega  full diag
   1    -90.2505722 -0.902506E+02  0.145E-01    0.72       0.0  T
   2    -90.2505712  0.106435E-05  0.877E-02    0.70       1.0  T
   3    -90.2503179  0.253288E-03  0.570E-02    0.74       1.0  T
   4    -90.2505950 -0.277113E-03  0.550E-03    0.71       2.7  T
   5    -90.2505961 -0.108744E-05  0.274E-03    0.71       5.4  T
   6    -90.2505962 -0.111569E-06  0.156E-03    0.71       9.5  T
   7    -90.2505963 -0.790792E-07  0.724E-04    0.71      20.4  T
   8    -90.2505963 -0.211928E-07  0.222E-04    0.71      66.5  T
     SCC iter.                  ...        0 min,  0.159 sec
     gradient                   ...        0 min,  0.006 sec
 * total energy  :   -88.9564035 Eh     change       -0.7607914E-03 Eh
   gradient norm :     0.0114453 Eh/α   predicted    -0.5798825E-03 ( -23.78%)
   displ. norm   :     0.4465274 α      lambda       -0.8216920E-03
   maximum displ.:     0.2467345 α      in ANC's #4, #1, #2, ...

........................................................................
.............................. CYCLE   25 ..............................
........................................................................

 iter      E             dE          RMSdq      gap      omega  full diag
   1    -90.2503888 -0.902504E+02  0.156E-01    0.72       0.0  T
   2    -90.2503911 -0.229848E-05  0.924E-02    0.71       1.0  T
   3    -90.2502809  0.110163E-03  0.359E-02    0.74       1.0  T
   4    -90.2503988 -0.117896E-03  0.470E-03    0.71       3.1  T
   5    -90.2503996 -0.827556E-06  0.216E-03    0.71       6.8  T
   6    -90.2503997 -0.392717E-07  0.981E-04    0.71      15.0  T
   7    -90.2503997 -0.316154E-07  0.446E-04    0.71      33.1  T
     SCC iter.                  ...        0 min,  0.126 sec
     gradient                   ...        0 min,  0.007 sec
 * total energy  :   -88.9570487 Eh     change       -0.6451592E-03 Eh
   gradient norm :     0.0100706 Eh/α   predicted    -0.4927645E-03 ( -23.62%)
   displ. norm   :     0.4303356 α      lambda       -0.6184035E-03
   maximum displ.:     0.2268722 α      in ANC's #1, #2, #4, ...

........................................................................
.............................. CYCLE   26 ..............................
........................................................................

 iter      E             dE          RMSdq      gap      omega  full diag
   1    -90.2510721 -0.902511E+02  0.153E-01    0.71       0.0  T
   2    -90.2510782 -0.605575E-05  0.898E-02    0.71       1.0  T
   3    -90.2510505  0.276668E-04  0.220E-02    0.72       1.0  T
   4    -90.2510809 -0.303222E-04  0.496E-03    0.71       3.0  T
   5    -90.2510818 -0.907803E-06  0.249E-03    0.71       5.9  T
   6    -90.2510819 -0.190174E-06  0.110E-03    0.71      13.4  T
   7    -90.2510820 -0.470510E-07  0.453E-04    0.71      32.5  T
   8    -90.2510820 -0.909566E-08  0.195E-04    0.71      75.6  T
     SCC iter.                  ...        0 min,  0.133 sec
     gradient                   ...        0 min,  0.006 sec
 * total energy  :   -88.9575003 Eh     change       -0.4516392E-03 Eh
   gradient norm :     0.0057017 Eh/α   predicted    -0.3664634E-03 ( -18.86%)
   displ. norm   :     0.3335014 α      lambda       -0.2927665E-03
   maximum displ.:     0.1909287 α      in ANC's #1, #2, #4, ...

........................................................................
.............................. CYCLE   27 ..............................
........................................................................

 iter      E             dE          RMSdq      gap      omega  full diag
   1    -90.2520479 -0.902520E+02  0.117E-01    0.71       0.0  T
   2    -90.2520513 -0.334952E-05  0.685E-02    0.71       1.0  T
   3    -90.2520282  0.230374E-04  0.193E-02    0.71       1.0  T
   4    -90.2520534 -0.251868E-04  0.372E-03    0.71       4.0  T
   5    -90.2520539 -0.442779E-06  0.213E-03    0.71       6.9  T
   6    -90.2520541 -0.211289E-06  0.839E-04    0.71      17.6  T
   7    -90.2520541 -0.260600E-07  0.373E-04    0.71      39.5  T
     SCC iter.                  ...        0 min,  0.119 sec
     gradient                   ...        0 min,  0.008 sec
 * total energy  :   -88.9577220 Eh     change       -0.2216922E-03 Eh
   gradient norm :     0.0039136 Eh/α   predicted    -0.1626723E-03 ( -26.62%)
   displ. norm   :     0.2648727 α      lambda       -0.1980703E-03
   maximum displ.:     0.1671054 α      in ANC's #1, #2, #9, ...

........................................................................
.............................. CYCLE   28 ..............................
........................................................................

 iter      E             dE          RMSdq      gap      omega  full diag
   1    -90.2538547 -0.902539E+02  0.894E-02    0.71       0.0  T
   2    -90.2538565 -0.174972E-05  0.522E-02    0.71       1.0  T
   3    -90.2538369  0.195603E-04  0.163E-02    0.70       1.0  T
   4    -90.2538580 -0.210681E-04  0.314E-03    0.71       4.7  T
   5    -90.2538584 -0.385975E-06  0.168E-03    0.71       8.8  T
   6    -90.2538585 -0.107638E-06  0.575E-04    0.71      25.6  T
   7    -90.2538585 -0.110070E-07  0.263E-04    0.71      56.2  T
     SCC iter.                  ...        0 min,  0.111 sec
     gradient                   ...        0 min,  0.006 sec
 * total energy  :   -88.9578867 Eh     change       -0.1646881E-03 Eh
   gradient norm :     0.0039301 Eh/α   predicted    -0.1060061E-03 ( -35.63%)
   displ. norm   :     0.3134585 α      lambda       -0.2313912E-03
   maximum displ.:     0.2036796 α      in ANC's #1, #2, #9, ...

........................................................................
.............................. CYCLE   29 ..............................
........................................................................

 iter      E             dE          RMSdq      gap      omega  full diag
   1    -90.2551656 -0.902552E+02  0.100E-01    0.70       0.0  T
   2    -90.2551677 -0.207070E-05  0.583E-02    0.71       1.0  T
   3    -90.2551460  0.216564E-04  0.169E-02    0.70       1.0  T
   4    -90.2551694 -0.234211E-04  0.340E-03    0.71       4.3  T
   5    -90.2551699 -0.433829E-06  0.171E-03    0.71       8.6  T
   6    -90.2551699 -0.787677E-07  0.505E-04    0.71      29.2  T
   7    -90.2551699 -0.809875E-08  0.240E-04    0.71      61.5  T
     SCC iter.                  ...        0 min,  0.090 sec
     gradient                   ...        0 min,  0.006 sec
 * total energy  :   -88.9580859 Eh     change       -0.1992539E-03 Eh
   gradient norm :     0.0044668 Eh/α   predicted    -0.1270649E-03 ( -36.23%)
   displ. norm   :     0.4247280 α      lambda       -0.2952153E-03
   maximum displ.:     0.2760702 α      in ANC's #1, #2, #9, ...

........................................................................
.............................. CYCLE   30 ..............................
........................................................................

 iter      E             dE          RMSdq      gap      omega  full diag
   1    -90.2554091 -0.902554E+02  0.128E-01    0.70       0.0  T
   2    -90.2554127 -0.359296E-05  0.744E-02    0.71       1.0  T
   3    -90.2553877  0.249707E-04  0.187E-02    0.69       1.0  T
   4    -90.2554150 -0.272501E-04  0.435E-03    0.71       3.4  T
   5    -90.2554157 -0.750644E-06  0.218E-03    0.70       6.7  T
   6    -90.2554159 -0.124192E-06  0.626E-04    0.70      23.5  T
   7    -90.2554159 -0.133125E-07  0.275E-04    0.70      53.6  T
     SCC iter.                  ...        0 min,  0.113 sec
     gradient                   ...        0 min,  0.010 sec
 * total energy  :   -88.9583336 Eh     change       -0.2476573E-03 Eh
   gradient norm :     0.0054137 Eh/α   predicted    -0.1742479E-03 ( -29.64%)
   displ. norm   :     0.4660999 α      lambda       -0.2781502E-03
   maximum displ.:     0.3027563 α      in ANC's #1, #2, #4, ...

........................................................................
.............................. CYCLE   31 ..............................
........................................................................

 iter      E             dE          RMSdq      gap      omega  full diag
   1    -90.2541876 -0.902542E+02  0.136E-01    0.70       0.0  T
   2    -90.2541920 -0.447498E-05  0.793E-02    0.70       1.0  T
   3    -90.2541767  0.153770E-04  0.164E-02    0.69       1.0  T
   4    -90.2541940 -0.173860E-04  0.441E-03    0.70       3.3  T
   5    -90.2541947 -0.686577E-06  0.247E-03    0.70       6.0  T
   6    -90.2541949 -0.207282E-06  0.899E-04    0.70      16.4  T
   7    -90.2541950 -0.391174E-07  0.358E-04    0.70      41.2  T
     SCC iter.                  ...        0 min,  0.101 sec
     gradient                   ...        0 min,  0.013 sec
 * total energy  :   -88.9585531 Eh     change       -0.2194841E-03 Eh
   gradient norm :     0.0060329 Eh/α   predicted    -0.1692935E-03 ( -22.87%)
   displ. norm   :     0.3789974 α      lambda       -0.2031251E-03
   maximum displ.:     0.2462437 α      in ANC's #1, #2, #4, ...

........................................................................
.............................. CYCLE   32 ..............................
........................................................................

 iter      E             dE          RMSdq      gap      omega  full diag
   1    -90.2541224 -0.902541E+02  0.108E-01    0.70       0.0  T
   2    -90.2541253 -0.291975E-05  0.631E-02    0.70       1.0  T
   3    -90.2541131  0.121968E-04  0.153E-02    0.70       1.0  T
   4    -90.2541270 -0.138303E-04  0.331E-03    0.70       4.5  T
   5    -90.2541273 -0.328872E-06  0.192E-03    0.70       7.7  T
   6    -90.2541274 -0.111517E-06  0.756E-04    0.70      19.5  T
   7    -90.2541274 -0.239402E-07  0.327E-04    0.70      45.2  T
     SCC iter.                  ...        0 min,  0.155 sec
     gradient                   ...        0 min,  0.006 sec
 * total energy  :   -88.9587084 Eh     change       -0.1553039E-03 Eh
   gradient norm :     0.0056340 Eh/α   predicted    -0.1161530E-03 ( -25.21%)
   displ. norm   :     0.3179114 α      lambda       -0.1609432E-03
   maximum displ.:     0.2113199 α      in ANC's #1, #2, #4, ...

........................................................................
.............................. CYCLE   33 ..............................
........................................................................

 iter      E             dE          RMSdq      gap      omega  full diag
   1    -90.2538944 -0.902539E+02  0.922E-02    0.70       0.0  T
   2    -90.2538967 -0.224088E-05  0.540E-02    0.70       1.0  T
   3    -90.2538844  0.122143E-04  0.147E-02    0.70       1.0  T
   4    -90.2538978 -0.134022E-04  0.307E-03    0.70       4.8  T
   5    -90.2538983 -0.500100E-06  0.150E-03    0.70       9.8  T
   6    -90.2538984 -0.576755E-07  0.733E-04    0.70      20.1  T
   7    -90.2538984 -0.155560E-07  0.298E-04    0.70      49.5  T
     SCC iter.                  ...        0 min,  0.086 sec
     gradient                   ...        0 min,  0.006 sec
 * total energy  :   -88.9588256 Eh     change       -0.1172490E-03 Eh
   gradient norm :     0.0045862 Eh/α   predicted    -0.8860519E-04 ( -24.43%)
   displ. norm   :     0.2770043 α      lambda       -0.1284544E-03
   maximum displ.:     0.1830252 α      in ANC's #1, #2, #4, ...

........................................................................
.............................. CYCLE   34 ..............................
........................................................................

 iter      E             dE          RMSdq      gap      omega  full diag
   1    -90.2551183 -0.902551E+02  0.818E-02    0.70       0.0  T
   2    -90.2551203 -0.195564E-05  0.479E-02    0.71       1.0  T
   3    -90.2551104  0.990808E-05  0.137E-02    0.70       1.1  T
   4    -90.2551212 -0.107657E-04  0.298E-03    0.71       5.0  T
   5    -90.2551216 -0.467271E-06  0.132E-03    0.70      11.1  T
   6    -90.2551217 -0.397223E-07  0.648E-04    0.71      22.7  T
   7    -90.2551217 -0.142727E-07  0.285E-04    0.71      51.8  T
     SCC iter.                  ...        0 min,  0.091 sec
     gradient                   ...        0 min,  0.006 sec
 * total energy  :   -88.9589058 Eh     change       -0.8017530E-04 Eh
   gradient norm :     0.0037555 Eh/α   predicted    -0.6915610E-04 ( -13.74%)
   displ. norm   :     0.2124131 α      lambda       -0.6525619E-04
   maximum displ.:     0.1482601 α      in ANC's #1, #2, #4, ...

........................................................................
.............................. CYCLE   35 ..............................
........................................................................

 iter      E             dE          RMSdq      gap      omega  full diag
   1    -90.2545289 -0.902545E+02  0.624E-02    0.71       0.0  T
   2    -90.2545298 -0.912035E-06  0.366E-02    0.71       1.0  T
   3    -90.2545229  0.694246E-05  0.103E-02    0.70       1.4  T
   4    -90.2545303 -0.743536E-05  0.230E-03    0.71       6.4  T
   5    -90.2545306 -0.314204E-06  0.103E-03    0.71      14.3  T
   6    -90.2545306 -0.277567E-07  0.404E-04    0.71      36.5  T
   7    -90.2545306 -0.543015E-08  0.159E-04    0.71      92.7  T
     SCC iter.                  ...        0 min,  0.080 sec
     gradient                   ...        0 min,  0.006 sec
 * total energy  :   -88.9589520 Eh     change       -0.4619216E-04 Eh
   gradient norm :     0.0031795 Eh/α   predicted    -0.3410739E-04 ( -26.16%)
   displ. norm   :     0.1330353 α      lambda       -0.4645691E-04
   maximum displ.:     0.0947416 α      in ANC's #1, #3, #5, ...

........................................................................
.............................. CYCLE   36 ..............................
........................................................................

 iter      E             dE          RMSdq      gap      omega  full diag
   1    -90.2554640 -0.902555E+02  0.376E-02    0.71       0.0  T
   2    -90.2554643 -0.297074E-06  0.220E-02    0.71       1.0  T
   3    -90.2554531  0.111893E-04  0.123E-02    0.70       1.2  T
   4    -90.2554651 -0.120037E-04  0.183E-03    0.71       8.0  T
   5    -90.2554654 -0.214073E-06  0.644E-04    0.71      22.9  T
   6    -90.2554654 -0.750400E-08  0.296E-04    0.71      49.7  T
     SCC iter.                  ...        0 min,  0.193 sec
     gradient                   ...        0 min,  0.007 sec
 * total energy  :   -88.9589858 Eh     change       -0.3376469E-04 Eh
   gradient norm :     0.0022912 Eh/α   predicted    -0.2364030E-04 ( -29.99%)
   displ. norm   :     0.1557785 α      lambda       -0.4567890E-04
   maximum displ.:     0.1138020 α      in ANC's #1, #3, #10, ...

........................................................................
.............................. CYCLE   37 ..............................
........................................................................

 iter      E             dE          RMSdq      gap      omega  full diag
   1    -90.2552074 -0.902552E+02  0.422E-02    0.71       0.0  T
   2    -90.2552080 -0.606544E-06  0.248E-02    0.71       1.0  T
   3    -90.2551902  0.177914E-04  0.158E-02    0.70       1.0  T
   4    -90.2552096 -0.193444E-04  0.252E-03    0.71       5.8  T
   5    -90.2552100 -0.422004E-06  0.919E-04    0.71      16.0  T
   6    -90.2552100 -0.222311E-07  0.483E-04    0.71      30.5  T
     SCC iter.                  ...        0 min,  0.101 sec
     gradient                   ...        0 min,  0.008 sec
 * total energy  :   -88.9590113 Eh     change       -0.2552253E-04 Eh
   gradient norm :     0.0026616 Eh/α   predicted    -0.2339784E-04 (  -8.32%)
   displ. norm   :     0.0850809 α      lambda       -0.2557230E-04
   maximum displ.:     0.0668935 α      in ANC's #1, #3, #5, ...

........................................................................
.............................. CYCLE   38 ..............................
........................................................................

 iter      E             dE          RMSdq      gap      omega  full diag
   1    -90.2553312 -0.902553E+02  0.232E-02    0.71       0.0  T
   2    -90.2553315 -0.327951E-06  0.136E-02    0.71       1.1  T
   3    -90.2553259  0.565042E-05  0.923E-03    0.71       1.6  T
   4    -90.2553321 -0.618887E-05  0.183E-03    0.71       8.1  T
   5    -90.2553323 -0.234215E-06  0.504E-04    0.71      29.3  T
   6    -90.2553323 -0.457692E-08  0.272E-04    0.71      54.3  T
     SCC iter.                  ...        0 min,  0.076 sec
     gradient                   ...        0 min,  0.006 sec
 * total energy  :   -88.9590281 Eh     change       -0.1681543E-04 Eh
   gradient norm :     0.0021644 Eh/α   predicted    -0.1287904E-04 ( -23.41%)
   displ. norm   :     0.0615379 α      lambda       -0.1716603E-04
   maximum displ.:     0.0494664 α      in ANC's #1, #3, #2, ...

........................................................................
.............................. CYCLE   39 ..............................
........................................................................

 iter      E             dE          RMSdq      gap      omega  full diag
   1    -90.2554745 -0.902555E+02  0.151E-02    0.71       0.0  T
   2    -90.2554746 -0.128757E-06  0.876E-03    0.71       1.7  T
   3    -90.2554739  0.697970E-06  0.339E-03    0.71       4.3  T
   4    -90.2554747 -0.769160E-06  0.772E-04    0.71      19.1  T
   5    -90.2554747 -0.341268E-07  0.310E-04    0.71      47.5  T
     SCC iter.                  ...        0 min,  0.062 sec
     gradient                   ...        0 min,  0.006 sec
 * total energy  :   -88.9590427 Eh     change       -0.1461813E-04 Eh
   gradient norm :     0.0018735 Eh/α   predicted    -0.8618771E-05 ( -41.04%)
   displ. norm   :     0.1652304 α      lambda       -0.2950816E-04
   maximum displ.:     0.1341176 α      in ANC's #1, #9, #3, ...

........................................................................
.............................. CYCLE   40 ..............................
........................................................................

 iter      E             dE          RMSdq      gap      omega  full diag
   1    -90.2550031 -0.902550E+02  0.419E-02    0.71       0.0  T
   2    -90.2550042 -0.112848E-05  0.243E-02    0.71       1.0  T
   3    -90.2550002  0.397255E-05  0.845E-03    0.71       1.7  T
   4    -90.2550048 -0.451455E-05  0.197E-03    0.71       7.5  T
   5    -90.2550049 -0.160197E-06  0.929E-04    0.71      15.9  T
   6    -90.2550049 -0.206188E-07  0.434E-04    0.71      34.0  T
     SCC iter.                  ...        0 min,  0.078 sec
     gradient                   ...        0 min,  0.006 sec
 * total energy  :   -88.9590684 Eh     change       -0.2566824E-04 Eh
   gradient norm :     0.0014449 Eh/α   predicted    -0.1493662E-04 ( -41.81%)
   displ. norm   :     0.0809073 α      lambda       -0.8791074E-05
   maximum displ.:     0.0672450 α      in ANC's #1, #2, #10, ...

........................................................................
.............................. CYCLE   41 ..............................
........................................................................

 iter      E             dE          RMSdq      gap      omega  full diag
   1    -90.2556646 -0.902557E+02  0.153E-02    0.71       0.0  T
   2    -90.2556648 -0.173197E-06  0.901E-03    0.72       1.6  T
   3    -90.2556626  0.223780E-05  0.664E-03    0.71       2.2  T
   4    -90.2556651 -0.255679E-05  0.128E-03    0.72      11.5  T
   5    -90.2556652 -0.120256E-06  0.403E-04    0.72      36.5  T
   6    -90.2556653 -0.329207E-08  0.229E-04    0.72      64.3  T
     SCC iter.                  ...        0 min,  0.095 sec
     gradient                   ...        0 min,  0.006 sec
 * total energy  :   -88.9590777 Eh     change       -0.9334315E-05 Eh
   gradient norm :     0.0014466 Eh/α   predicted    -0.4409211E-05 ( -52.76%)
   displ. norm   :     0.1365630 α      lambda       -0.1292085E-04
   maximum displ.:     0.1175991 α      in ANC's #1, #2, #10, ...

........................................................................
.............................. CYCLE   42 ..............................
........................................................................

 iter      E             dE          RMSdq      gap      omega  full diag
   1    -90.2553396 -0.902553E+02  0.290E-02    0.72       0.0  T
   2    -90.2553398 -0.265438E-06  0.173E-02    0.73       1.0  T
   3    -90.2553283  0.115440E-04  0.139E-02    0.71       1.1  T
   4    -90.2553415 -0.132218E-04  0.211E-03    0.72       7.0  T
   5    -90.2553418 -0.296064E-06  0.679E-04    0.72      21.7  T
   6    -90.2553418 -0.104305E-07  0.365E-04    0.72      40.4  T
     SCC iter.                  ...        0 min,  0.074 sec
     gradient                   ...        0 min,  0.006 sec
 * total energy  :   -88.9590886 Eh     change       -0.1090519E-04 Eh
   gradient norm :     0.0012017 Eh/α   predicted    -0.6515056E-05 ( -40.26%)
   displ. norm   :     0.0668531 α      lambda       -0.4998480E-05
   maximum displ.:     0.0534296 α      in ANC's #1, #4, #2, ...
 * RMSD in coord.:     0.6979568 α      energy gain  -0.7530923E-02 Eh

generating ANC from model Hessian ...
Using Lindh-Hessian (1995)
 Shifting diagonal of input Hessian by    9.3178350140060706E-003
 Lowest  eigenvalues of input Hessian
    0.000000    0.000000    0.000000    0.000000    0.000000    0.000000
    0.010000    0.010428    0.011146    0.011965    0.012103    0.013420
    0.014041    0.015552    0.017611    0.018777    0.020556    0.021883
 Highest eigenvalues
    2.038695    2.092298    2.123314    2.216066    2.334028    2.352615


........................................................................
.............................. CYCLE   43 ..............................
........................................................................

 iter      E             dE          RMSdq      gap      omega  full diag
   1    -90.2552024 -0.902552E+02  0.125E-02    0.72       0.0  T
   2    -90.2552022  0.138609E-06  0.805E-03    0.73       1.8  T
   3    -90.2552004  0.178522E-05  0.671E-03    0.72       2.2  T
   4    -90.2552032 -0.280139E-05  0.113E-03    0.72      13.0  T
   5    -90.2552033 -0.779796E-07  0.347E-04    0.72      42.5  T
   6    -90.2552033 -0.186357E-08  0.197E-04    0.72      74.8  T
     SCC iter.                  ...        0 min,  0.080 sec
     gradient                   ...        0 min,  0.006 sec
 * total energy  :   -88.9590933 Eh     change       -0.4700287E-05 Eh
   gradient norm :     0.0009733 Eh/α   predicted     0.0000000E+00 (-100.00%)
   displ. norm   :     0.0151090 α      lambda       -0.2332777E-05
   maximum displ.:     0.0088089 α      in ANC's #2, #3, #10, ...

   *** GEOMETRY OPTIMIZATION CONVERGED AFTER 43 ITERATIONS ***

------------------------------------------------------------------------
 total energy gain   :        -0.9521996 Eh     -597.5143 kcal/mol
 total RMSD          :         1.4289859 a0        0.7562 Å
 total power (kW/mol):       -58.1395290 (step) -397.2831 (real)
------------------------------------------------------------------------

 ANCopt (total)                0 d,  0 h,  0 min,  6.293 sec
 optimizer setup                ...        0 min,  0.000 sec (  0.001%)
 model hessian                  ...        0 min,  0.027 sec (  0.429%)
 ANC generation                 ...        0 min,  0.019 sec (  0.300%)
 coordinate transformation      ...        0 min,  0.000 sec (  0.007%)
 single point calculation       ...        0 min,  6.235 sec ( 99.084%)
 optimization log               ...        0 min,  0.004 sec (  0.062%)
 hessian update                 ...        0 min,  0.002 sec (  0.031%)
 rational function              ...        0 min,  0.004 sec (  0.071%)

================
 final structure:
================
 xtb: 6.6.1 (8d0f1dd)
          11012413463D

 46 52  0     0  0            999 V2000
    0.6808    1.5991   -1.1473 C   0  0  0  0  0  0  0  0  0  0  0  0
    1.6294    1.1307   -0.1767 C   0  0  0  0  0  0  0  0  0  0  0  0
   -0.7230    1.3489   -1.0973 C   0  0  0  0  0  0  0  0  0  0  0  0
    1.1648    2.4323   -2.1915 C   0  0  0  0  0  0  0  0  0  0  0  0
    3.0163    1.2212   -0.4613 C   0  0  0  0  0  0  0  0  0  0  0  0
   -1.5957    2.2670   -1.7543 C   0  0  0  0  0  0  0  0  0  0  0  0
    2.5558    2.5036   -2.4502 C   0  0  0  0  0  0  0  0  0  0  0  0
    0.2652    3.2085   -2.9568 C   0  0  0  0  0  0  0  0  0  0  0  0
    3.4483    1.8616   -1.6541 C   0  0  0  0  0  0  0  0  0  0  0  0
   -1.0648    3.2057   -2.6726 C   0  0  0  0  0  0  0  0  0  0  0  0
    1.2552    0.6577    1.0945 C   0  0  0  0  0  0  0  0  0  0  0  0
   -1.3506    0.2251   -0.4726 C   0  0  0  0  0  0  0  0  0  0  0  0
    3.9494    0.7264    0.4619 C   0  0  0  0  0  0  0  0  0  0  0  0
   -2.9773    2.2293   -1.5090 C   0  0  0  0  0  0  0  0  0  0  0  0
    2.1909    0.2070    1.9987 C   0  0  0  0  0  0  0  0  0  0  0  0
   -2.7465    0.2386   -0.2170 C   0  0  0  0  0  0  0  0  0  0  0  0
    3.5445    0.2054    1.6692 C   0  0  0  0  0  0  0  0  0  0  0  0
   -3.5414    1.2769   -0.6961 C   0  0  0  0  0  0  0  0  0  0  0  0
    2.8868    3.0782   -3.3016 H   0  0  0  0  0  0  0  0  0  0  0  0
    0.6640    3.8502   -3.7274 H   0  0  0  0  0  0  0  0  0  0  0  0
    4.5041    1.8805   -1.8758 H   0  0  0  0  0  0  0  0  0  0  0  0
   -1.7439    3.8781   -3.1725 H   0  0  0  0  0  0  0  0  0  0  0  0
    4.9992    0.7798    0.2175 H   0  0  0  0  0  0  0  0  0  0  0  0
   -3.6045    2.9776   -1.9690 H   0  0  0  0  0  0  0  0  0  0  0  0
    4.2690   -0.1745    2.3713 H   0  0  0  0  0  0  0  0  0  0  0  0
   -4.5951    1.2639   -0.4720 H   0  0  0  0  0  0  0  0  0  0  0  0
   -3.3795   -0.7478    0.4470 O   0  0  0  0  0  0  0  0  0  0  0  0
   -2.6786   -1.8436    0.8194 C   0  0  0  0  0  0  0  0  0  0  0  0
   -1.3399   -1.9755    0.4223 C   0  0  0  0  0  0  0  0  0  0  0  0
   -0.6995   -0.9695   -0.2491 N   0  0  0  0  0  0  0  0  0  0  0  0
   -0.6074   -3.1585    0.7332 C   0  0  0  0  0  0  0  0  0  0  0  0
   -3.2737   -2.8563    1.5524 C   0  0  0  0  0  0  0  0  0  0  0  0
   -2.5419   -3.9956    1.8769 C   0  0  0  0  0  0  0  0  0  0  0  0
   -1.2303   -4.1595    1.4756 C   0  0  0  0  0  0  0  0  0  0  0  0
    0.6697   -3.2754    0.2909 N   0  0  0  0  0  0  0  0  0  0  0  0
    1.1238   -2.2895   -0.4204 C   0  0  0  0  0  0  0  0  0  0  0  0
    0.5204   -1.1306   -0.6887 N   0  0  0  0  0  0  0  0  0  0  0  0
    1.8753   -0.1367    2.9722 H   0  0  0  0  0  0  0  0  0  0  0  0
    0.2187    0.7116    1.3997 H   0  0  0  0  0  0  0  0  0  0  0  0
   -4.3021   -2.7481    1.8549 H   0  0  0  0  0  0  0  0  0  0  0  0
   -3.0224   -4.7740    2.4480 H   0  0  0  0  0  0  0  0  0  0  0  0
   -0.6694   -5.0496    1.7067 H   0  0  0  0  0  0  0  0  0  0  0  0
    2.5247   -2.4248   -0.9921 C   0  0  0  0  0  0  0  0  0  0  0  0
    3.4447   -2.3583   -0.0245 F   0  0  0  0  0  0  0  0  0  0  0  0
    2.6824   -3.5848   -1.6222 F   0  0  0  0  0  0  0  0  0  0  0  0
    2.7973   -1.4514   -1.8641 F   0  0  0  0  0  0  0  0  0  0  0  0
 43 44  1  0  0  0  0
 43 45  1  0  0  0  0
 43 46  1  0  0  0  0
 36 43  1  0  0  0  0
  1  2  1  0  0  0  0
  1  3  1  0  0  0  0
  1  4  2  0  0  0  0
  2  5  1  0  0  0  0
  2 11  2  0  0  0  0
  3  6  1  0  0  0  0
  3 12  2  0  0  0  0
  4  7  1  0  0  0  0
  4  8  1  0  0  0  0
  5  9  1  0  0  0  0
  5 13  2  0  0  0  0
  6 10  1  0  0  0  0
  6 14  2  0  0  0  0
  7  9  2  0  0  0  0
  7 19  1  0  0  0  0
  8 10  2  0  0  0  0
  8 20  1  0  0  0  0
  9 21  1  0  0  0  0
 10 22  1  0  0  0  0
 11 15  1  0  0  0  0
 12 16  1  0  0  0  0
 13 17  1  0  0  0  0
 13 23  1  0  0  0  0
 14 18  1  0  0  0  0
 14 24  1  0  0  0  0
 15 17  2  0  0  0  0
 16 18  2  0  0  0  0
 17 25  1  0  0  0  0
 18 26  1  0  0  0  0
 27 28  1  0  0  0  0
 28 29  2  0  0  0  0
 29 30  1  0  0  0  0
 30 12  1  0  0  0  0
 29 31  1  0  0  0  0
 28 32  1  0  0  0  0
 32 33  2  0  0  0  0
 33 34  1  0  0  0  0
 34 31  2  0  0  0  0
 16 27  1  0  0  0  0
 31 35  1  0  0  0  0
 35 36  1  0  0  0  0
 36 37  2  0  0  0  0
 37 30  1  0  0  0  0
 15 38  1  0  0  0  0
 11 39  1  0  0  0  0
 32 40  1  0  0  0  0
 33 41  1  0  0  0  0
 34 42  1  0  0  0  0
M  CHG  1   1   1
M  END

 Bond Distances (Angstroems)
 ---------------------------
C1-C2=1.4357         C1-C3=1.4268         C1-C4=1.4209         C2-C1=1.4357         C2-C5=1.4186         C2-C11=1.4071        
C3-C1=1.4268         C3-C6=1.4269         C3-C12=1.4308        C4-C1=1.4209         C4-C7=1.4166         C4-C8=1.4133         
C5-C2=1.4186         C5-C9=1.4211         C5-C13=1.4028        C6-C3=1.4269         C6-C10=1.4165        C6-C14=1.4037        
C7-C4=1.4166         C7-C9=1.3574         C7-H19=1.0792        C8-C4=1.4133         C8-C10=1.3600        C8-H20=1.0792        
C9-C5=1.4211         C9-C7=1.3574         C9-H21=1.0790        C10-C6=1.4165        C10-C8=1.3600        C10-H22=1.0785       
C11-C2=1.4071        C11-C15=1.3770       C11-H39=1.0818       C12-C3=1.4308        C12-C16=1.4191       C12-N30=1.3788       
C13-C5=1.4028        C13-C17=1.3759       C13-H23=1.0792       C14-C6=1.4037        C14-C18=1.3733       C14-H24=1.0792       
C15-C11=1.3770       C15-C17=1.3932       C15-H38=1.0796       C16-C12=1.4191       C16-C18=1.3927       C16-O27=1.3470       
C17-C13=1.3759       C17-C15=1.3932       C17-H25=1.0780       C18-C14=1.3733       C18-C16=1.3927       C18-H26=1.0773       
H19-C7=1.0792        H20-C8=1.0792        H21-C9=1.0790        H22-C10=1.0785       H23-C13=1.0792       H24-C14=1.0792       
H25-C17=1.0780       H26-C18=1.0773       O27-C16=1.3470       O27-C28=1.3531       C28-O27=1.3531       C28-C29=1.4025       
C28-C32=1.3845       C29-C28=1.4025       C29-N30=1.3686       C29-C31=1.4257       N30-C12=1.3788       N30-C29=1.3686       
N30-N37=1.3067       C31-C29=1.4257       C31-C34=1.3933       C31-N35=1.3565       C32-C28=1.3845       C32-C33=1.3924       
C32-H40=1.0774       C33-C32=1.3924       C33-C34=1.3814       C33-H41=1.0784       C34-C31=1.3933       C34-C33=1.3814       
C34-H42=1.0772       N35-C31=1.3565       N35-C36=1.2977       C36-N35=1.2977       C36-N37=1.3338       C36-C43=1.5191       
N37-N30=1.3067       N37-C36=1.3338       H38-C15=1.0796       H39-C11=1.0818       H40-C32=1.0774       H41-C33=1.0784       
H42-C34=1.0772       C43-C36=1.5191       C43-F44=1.3368       C43-F45=1.3296       C43-F46=1.3350       F44-C43=1.3368       
F45-C43=1.3296       F46-C43=1.3350       
 C  H  Rav=1.0788 sigma=0.0012  Rmin=1.0772  Rmax=1.0818    13
 C  C  Rav=1.4067 sigma=0.0303  Rmin=1.3574  Rmax=1.5191    28
 N  C  Rav=1.3471 sigma=0.0289  Rmin=1.2977  Rmax=1.3788     5
 N  N  Rav=1.3067 sigma=0.0000  Rmin=1.3067  Rmax=1.3067     1
 O  C  Rav=1.3500 sigma=0.0031  Rmin=1.3470  Rmax=1.3531     2
 F  C  Rav=1.3338 sigma=0.0031  Rmin=1.3296  Rmax=1.3368     3

 selected bond angles (degree)
 --------------------
C3-C1-C2=124.69                C4-C1-C2=117.58                C4-C1-C3=117.63                C5-C2-C1=119.31                
C11-C2-C1=123.00               C11-C2-C5=117.56               C6-C3-C1=118.22                C12-C3-C1=125.78               
C12-C3-C6=115.98               C7-C4-C1=119.88                C8-C4-C1=120.21                C8-C4-C7=119.90                
C9-C5-C2=119.62                C13-C5-C2=119.72               C13-C5-C9=120.60               C10-C6-C3=119.71               
C14-C6-C3=120.28               C14-C6-C10=120.00              C9-C7-C4=120.97                H19-C7-C4=118.17               
H19-C7-C9=120.86               C10-C8-C4=120.54               H20-C8-C4=118.56               H20-C8-C10=120.78              
C7-C9-C5=120.37                H21-C9-C5=118.55               H21-C9-C7=120.96               C8-C10-C6=120.23               
H22-C10-C6=118.53              H22-C10-C8=121.17              

 selected dihedral angles (degree)
 ---------------------------------
C5-C2-C1-C3=168.05            C5-C2-C1-C4=344.43            C11-C2-C1-C3=343.84           C11-C2-C1-C4=160.22           
C6-C3-C1-C2=154.92            C6-C3-C1-C4=338.54            C12-C3-C1-C2=333.00           C12-C3-C1-C4=156.62           
C7-C4-C1-C2= 15.77            C7-C4-C1-C3=192.41            C8-C4-C1-C2=196.91            C8-C4-C1-C3= 13.56            
C9-C5-C2-C1=  4.63            C9-C5-C2-C11=188.61           C13-C5-C2-C1=182.07           C13-C5-C2-C11=  6.05          
C10-C6-C3-C1= 14.17           C10-C6-C3-C12=195.89          C14-C6-C3-C1=193.21           C14-C6-C3-C12= 14.94          
C9-C7-C4-C1=355.23            C9-C7-C4-C8=174.08            H19-C7-C4-C1=174.88           H19-C7-C4-C8=353.74           
C10-C8-C4-C1=  2.43           C10-C8-C4-C7=183.58           H20-C8-C4-C1=178.53           H20-C8-C4-C7=359.68           
C7-C9-C5-C2=  6.74            C7-C9-C5-C13=189.33           H21-C9-C5-C2=182.79           H21-C9-C5-C13=  5.37          
C5-C9-C7-C4=353.27            C5-C9-C7-H19=173.62           H21-C9-C7-C4=177.32           H21-C9-C7-H19=357.67          
[...]

          ...................................................
          :                      SETUP                      :
          :.................................................:
          :  # basis functions                 145          :
          :  # atomic orbitals                 145          :
          :  # shells                           79          :
          :  # electrons                       158          :
          :  max. iterations                   250          :
          :  Hamiltonian                  GFN2-xTB          :
          :  restarted?                      false          :
          :  GBSA solvation                  false          :
          :  PC potential                    false          :
          :  electronic temp.          300.0000000     K    :
          :  accuracy                    1.0000000          :
          :  -> integral cutoff          0.2500000E+02      :
          :  -> integral neglect         0.1000000E-07      :
          :  -> SCF convergence          0.1000000E-05 Eh   :
          :  -> wf. convergence          0.1000000E-03 e    :
          :  Broyden damping             0.4000000          :
          ...................................................

 iter      E             dE          RMSdq      gap      omega  full diag
   1    -90.2552033 -0.902552E+02  0.753E-05    0.72       0.0  T
   2    -90.2552033  0.422062E-10  0.699E-05    0.72     211.1  T
   3    -90.2552033 -0.319204E-09  0.249E-05    0.72     592.6  T

   *** convergence criteria satisfied after 3 iterations ***

         #    Occupation            Energy/Eh            Energy/eV
      -------------------------------------------------------------
         1        2.0000           -0.9841731             -26.7807
       ...           ...                  ...                  ...
        73        2.0000           -0.5421000             -14.7513
        74        2.0000           -0.5389607             -14.6659
        75        2.0000           -0.5373936             -14.6232
        76        2.0000           -0.5345817             -14.5467
        77        2.0000           -0.5267676             -14.3341
        78        2.0000           -0.5121384             -13.9360
        79        2.0000           -0.5047625             -13.7353 (HOMO)
        80        0.0000           -0.4781719             -13.0117 (LUMO)
        81                         -0.4209392             -11.4543
        82                         -0.4178087             -11.3692
        83                         -0.3941815             -10.7262
        84                         -0.3792632             -10.3203
       ...                                ...                  ...
       145                          0.5819122              15.8346
      -------------------------------------------------------------
                  HL-Gap            0.0265906 Eh            0.7236 eV
             Fermi-level           -0.4914670 Eh          -13.3735 eV

 SCC (total)                   0 d,  0 h,  0 min,  0.068 sec
 SCC setup                      ...        0 min,  0.000 sec (  0.192%)
 Dispersion                     ...        0 min,  0.000 sec (  0.389%)
 classical contributions        ...        0 min,  0.001 sec (  1.012%)
 integral evaluation            ...        0 min,  0.002 sec (  2.514%)
 iterations                     ...        0 min,  0.047 sec ( 69.633%)
 molecular gradient             ...        0 min,  0.016 sec ( 24.338%)
 printout                       ...        0 min,  0.001 sec (  1.913%)

         :::::::::::::::::::::::::::::::::::::::::::::::::::::
         ::                     SUMMARY                     ::
         :::::::::::::::::::::::::::::::::::::::::::::::::::::
         :: total energy             -88.959093319673 Eh    ::
         :: gradient norm              0.000974446241 Eh/a0 ::
         :: HOMO-LUMO gap              0.723566397172 eV    ::
         ::.................................................::
         :: SCC energy               -90.255203314426 Eh    ::
         :: -> isotropic ES            0.128007200570 Eh    ::
         :: -> anisotropic ES         -0.006024781221 Eh    ::
         :: -> anisotropic XC          0.024894852263 Eh    ::
         :: -> dispersion             -0.070094267502 Eh    ::
         :: repulsion energy           1.294750796814 Eh    ::
         :: add. restraining           0.000000000000 Eh    ::
         :: total charge               1.000000000710 e     ::
         :::::::::::::::::::::::::::::::::::::::::::::::::::::

           -------------------------------------------------
          |                Property Printout                |
           -------------------------------------------------

    * Orbital Energies and Occupations

         #    Occupation            Energy/Eh            Energy/eV
      -------------------------------------------------------------
         1        2.0000           -0.9841731             -26.7807
       ...           ...                  ...                  ...
        67        2.0000           -0.5786729             -15.7465
        68        2.0000           -0.5729337             -15.5903
        69        2.0000           -0.5704090             -15.5216
        70        2.0000           -0.5636190             -15.3369
        71        2.0000           -0.5587128             -15.2033
        72        2.0000           -0.5531015             -15.0507
        73        2.0000           -0.5421000             -14.7513
        74        2.0000           -0.5389607             -14.6659
        75        2.0000           -0.5373936             -14.6232
        76        2.0000           -0.5345817             -14.5467
        77        2.0000           -0.5267676             -14.3341
        78        2.0000           -0.5121384             -13.9360
        79        2.0000           -0.5047625             -13.7353 (HOMO)
        80        0.0000           -0.4781719             -13.0117 (LUMO)
        81                         -0.4209392             -11.4543
        82                         -0.4178087             -11.3692
        83                         -0.3941815             -10.7262
        84                         -0.3792632             -10.3203
        85                         -0.3632981              -9.8858
        86                         -0.3451578              -9.3922
        87                         -0.3370866              -9.1726
        88                         -0.3165958              -8.6150
        89                         -0.3074479              -8.3661
        90                         -0.2689231              -7.3178
       ...                                ...                  ...
       145                          0.5819122              15.8346
      -------------------------------------------------------------
                  HL-Gap            0.0265906 Eh            0.7236 eV
             Fermi-level           -0.4914670 Eh          -13.3735 eV

     #   Z          covCN         q      C6AA      α(0)
     1   6 C        2.976     0.021    27.528     8.606
     2   6 C        2.980     0.017    27.628     8.622
     3   6 C        2.975     0.013    27.723     8.637
     4   6 C        2.988     0.037    27.166     8.550
     5   6 C        2.987     0.028    27.379     8.583
     6   6 C        2.987     0.021    27.541     8.609
     7   6 C        2.917    -0.027    28.676     8.781
     8   6 C        2.917    -0.020    28.502     8.755
     9   6 C        2.916    -0.011    28.281     8.721
    10   6 C        2.918    -0.022    28.556     8.763
    11   6 C        2.919    -0.030    28.745     8.792
    12   6 C        2.935     0.021    27.536     8.606
    13   6 C        2.922    -0.017    28.427     8.743
    14   6 C        2.924    -0.008    28.209     8.710
    15   6 C        2.916    -0.024    28.597     8.769
    16   6 C        2.890     0.152    24.713     8.150
    17   6 C        2.915    -0.014    28.370     8.734
    18   6 C        2.910    -0.046    29.150     8.853
    19   1 H        0.926     0.069     2.093     2.262
    20   1 H        0.926     0.076     2.024     2.225
    21   1 H        0.926     0.073     2.048     2.238
    22   1 H        0.926     0.074     2.046     2.237
    23   1 H        0.926     0.070     2.086     2.258
    24   1 H        0.926     0.093     1.846     2.125
    25   1 H        0.926     0.069     2.092     2.262
    26   1 H        0.926     0.097     1.814     2.106
    27   8 O        1.711    -0.170    16.860     5.544
    28   6 C        2.884     0.140    24.949     8.189
    29   6 C        2.945     0.024    27.470     8.596
    30   7 N        2.863     0.185    18.163     6.330
    31   6 C        2.988     0.106    25.653     8.308
    32   6 C        2.914    -0.042    29.038     8.836
    33   6 C        2.920    -0.006    28.174     8.704
    34   6 C        2.915    -0.036    28.887     8.813
    35   7 N        1.842    -0.208    26.364     7.609
    36   6 C        2.929     0.160    24.540     8.124
    37   7 N        1.937    -0.198    26.106     7.576
    38   1 H        0.926     0.053     2.287     2.365
    39   1 H        0.925     0.024     2.679     2.559
    40   1 H        0.926     0.101     1.776     2.084
    41   1 H        0.926     0.099     1.792     2.093
    42   1 H        0.926     0.108     1.715     2.048
    43   6 C        3.339     0.488    17.217     6.565
    44   9 F        0.791    -0.184    11.067     3.930
    45   9 F        0.791    -0.171    10.936     3.906
    46   9 F        0.791    -0.187    11.097     3.935

 Mol. C6AA /au·bohr⁶  :      33182.257817
 Mol. C8AA /au·bohr⁸  :     844889.947157
 Mol. α(0) /au        :        289.812845


Wiberg/Mayer (AO) data.
largest (>0.10) Wiberg bond orders for each atom

 ---------------------------------------------------------------------------
     #   Z sym  total        # sym  WBO       # sym  WBO       # sym  WBO
 ---------------------------------------------------------------------------
     1   6 C    3.979 --     4 C    1.262     3 C    1.254     2 C    1.195
     2   6 C    3.987 --    11 C    1.309     5 C    1.261     1 C    1.195
     3   6 C    3.981 --     1 C    1.254     6 C    1.241    12 C    1.219
     4   6 C    3.971 --     1 C    1.262     8 C    1.260     7 C    1.245
     5   6 C    3.987 --    13 C    1.325     2 C    1.261     9 C    1.215
     6   6 C    3.978 --    14 C    1.310     3 C    1.241    10 C    1.240
     7   6 C    3.975 --     9 C    1.599     4 C    1.245    19 H    0.962
     8   6 C    3.969 --    10 C    1.577     4 C    1.260    20 H    0.962
     9   6 C    3.946 --     7 C    1.599     5 C    1.215    21 H    0.963
    10   6 C    3.959 --     8 C    1.577     6 C    1.240    22 H    0.962
    11   6 C    3.988 --    15 C    1.483     2 C    1.309    39 H    0.966
    12   6 C    3.941 --    16 C    1.244     3 C    1.219    30 N    1.136
    13   6 C    3.958 --    17 C    1.481     5 C    1.325    23 H    0.964
    14   6 C    3.939 --    18 C    1.477     6 C    1.310    24 H    0.959
    15   6 C    3.977 --    11 C    1.483    17 C    1.376    38 H    0.969
    16   6 C    3.912 --    18 C    1.342    12 C    1.244    27 O    1.093
    17   6 C    3.972 --    13 C    1.481    15 C    1.376    25 H    0.967
    18   6 C    3.964 --    14 C    1.477    16 C    1.342    26 H    0.959
    19   1 H    0.994 --     7 C    0.962
    20   1 H    0.993 --     8 C    0.962
    21   1 H    0.993 --     9 C    0.963
    22   1 H    0.993 --    10 C    0.962
    23   1 H    0.995 --    13 C    0.964
    24   1 H    0.990 --    14 C    0.959
    25   1 H    0.994 --    17 C    0.967
    26   1 H    0.989 --    18 C    0.959
    27   8 O    2.420 --    16 C    1.093    28 C    1.060
    28   6 C    3.921 --    32 C    1.397    29 C    1.261    27 O    1.060
    29   6 C    3.944 --    28 C    1.261    31 C    1.199    30 N    1.172
    30   7 N    3.785 --    37 N    1.245    29 C    1.172    12 C    1.136
    31   6 C    3.968 --    34 C    1.342    35 N    1.225    29 C    1.199
    32   6 C    3.968 --    28 C    1.397    33 C    1.396    40 H    0.960
    33   6 C    3.964 --    34 C    1.465    32 C    1.396    41 H    0.962
    34   6 C    3.972 --    33 C    1.465    31 C    1.342    42 H    0.958
    35   7 N    3.049 --    36 C    1.524    31 C    1.225
    36   6 C    3.976 --    35 N    1.524    37 N    1.323    43 C    0.921
    37   7 N    3.029 --    36 C    1.323    30 N    1.245
    38   1 H    0.997 --    15 C    0.969
    39   1 H    0.999 --    11 C    0.966
    40   1 H    0.989 --    32 C    0.960
    41   1 H    0.989 --    33 C    0.962
    42   1 H    0.988 --    34 C    0.958
    43   6 C    3.855 --    45 F    0.972    46 F    0.961    44 F    0.956
                            36 C    0.921
    44   9 F    1.091 --    43 C    0.956
    45   9 F    1.105 --    43 C    0.972
    46   9 F    1.088 --    43 C    0.961
 ---------------------------------------------------------------------------

Topologies differ in bond orders
Writing corrected topology to xtbtopo.mol

molecular dipole:
                 x           y           z       tot (Debye)
 q only:       -2.047       0.567      -0.198
   full:       -2.354       0.570      -0.105       6.162
molecular quadrupole (traceless):
                xx          xy          yy          xz          yz          zz
 q only:        9.235      19.824       5.495      -1.560     -32.163     -14.730
  q+dip:       15.380      20.610      -1.239      -2.223     -35.903     -14.141
   full:       10.003      22.001       1.315      -0.063     -29.166     -11.317

           -------------------------------------------------
          |                Geometry Summary                 |
           -------------------------------------------------

      molecular mass/u    :      440.3970872
   center of mass at/Å    :        0.3269709      -0.3996852      -0.3983759
  moments of inertia/u·Å² :        0.2761718E+04   0.3113245E+04   0.4936401E+04
rotational constants/cm⁻¹ :        0.6104039E-02   0.5414811E-02   0.3414964E-02

 * 50 selected distances

     #   Z          #   Z                                           value/Å
     1   6 C        3   6 C                                       1.4267533
     1   6 C        4   6 C                                       1.4208969
     2   6 C        5   6 C                                       1.4186229
     3   6 C        6   6 C                                       1.4269341
     4   6 C        7   6 C                                       1.4166475
     4   6 C        8   6 C                                       1.4133311
     5   6 C        9   6 C                                       1.4210541
     7   6 C        9   6 C                                       1.3573831
     6   6 C       10   6 C                                       1.4164965
     8   6 C       10   6 C                                       1.3599795
     2   6 C       11   6 C                                       1.4070933
     3   6 C       12   6 C                                       1.4307849 (max)
     5   6 C       13   6 C                                       1.4027620
     6   6 C       14   6 C                                       1.4036939
    11   6 C       15   6 C                                       1.3770085
    12   6 C       16   6 C                                       1.4191408
    13   6 C       17   6 C                                       1.3758634
    15   6 C       17   6 C                                       1.3931521
    14   6 C       18   6 C                                       1.3733466
    16   6 C       18   6 C                                       1.3927189
     7   6 C       19   1 H                                       1.0791706
     8   6 C       20   1 H                                       1.0791550
     9   6 C       21   1 H                                       1.0790138
    10   6 C       22   1 H                                       1.0785008
    13   6 C       23   1 H                                       1.0792117
    14   6 C       24   1 H                                       1.0792478
    17   6 C       25   1 H                                       1.0779696
    18   6 C       26   1 H                                       1.0773273
    16   6 C       27   8 O                                       1.3469668
    27   8 O       28   6 C                                       1.3531091
    28   6 C       29   6 C                                       1.4025440
    12   6 C       30   7 N                                       1.3787985
    29   6 C       30   7 N                                       1.3685572
    29   6 C       31   6 C                                       1.4256857
    28   6 C       32   6 C                                       1.3844887
    32   6 C       33   6 C                                       1.3924401
    31   6 C       34   6 C                                       1.3933188
    33   6 C       34   6 C                                       1.3813598
    31   6 C       35   7 N                                       1.3564746
    35   7 N       36   6 C                                       1.2977289
    30   7 N       37   7 N                                       1.3067254
    36   6 C       37   7 N                                       1.3337931
    15   6 C       38   1 H                                       1.0796186
    11   6 C       39   1 H                                       1.0818104
    32   6 C       40   1 H                                       1.0774468
    33   6 C       41   1 H                                       1.0783965
    34   6 C       42   1 H                                       1.0771891 (min)
    43   6 C       44   9 F                                       1.3368204
    43   6 C       45   9 F                                       1.3295601
    43   6 C       46   9 F                                       1.3349661

 * 6 distinct bonds (by element types)

   Z      Z             #   av. dist./Å        max./Å        min./Å
   1 H    6 C          13     1.0787737     1.0818104     1.0771891
   6 C    6 C          26     1.4012885     1.4307849     1.3573831
   6 C    7 N           5     1.3470705     1.3787985     1.2977289
   7 N    7 N           1     1.3067254     1.3067254     1.3067254
   6 C    8 O           2     1.3500380     1.3531091     1.3469668
   6 C    9 F           3     1.3337822     1.3368204     1.3295601


optimized geometry written to: xtbopt.mol


           -------------------------------------------------
          | TOTAL ENERGY              -88.959093319673 Eh   |
          | GRADIENT NORM               0.000974446241 Eh/α |
          | HOMO-LUMO GAP               0.723566397172 eV   |
           -------------------------------------------------
########################################################################
[WARNING] Runtime exception occurred
-1- restart_readRestart: Number of electron missmatch in restart file.
########################################################################

------------------------------------------------------------------------
 * finished run on 2024/11/01 at 13:46:31.025     
------------------------------------------------------------------------
 total:
 * wall-time:     0 d,  0 h,  0 min,  6.742 sec
 *  cpu-time:     0 d,  0 h,  0 min, 19.166 sec
Note: The following floating-point exceptions are signalling: IEEE_UNDERFLOW_FLAG
normal termination of xtb
 * ratio c/w:     2.843 speedup
 SCF:
 * wall-time:     0 d,  0 h,  0 min,  0.373 sec
 *  cpu-time:     0 d,  0 h,  0 min,  1.162 sec
 * ratio c/w:     3.119 speedup
 ANC optimizer:
 * wall-time:     0 d,  0 h,  0 min,  6.362 sec
 *  cpu-time:     0 d,  0 h,  0 min, 17.993 sec
 * ratio c/w:     2.828 speedup

