      -----------------------------------------------------------      
     |                   =====================                   |     
     |                           x T B                           |     
     |                   =====================                   |     
     |                         S. Grimme                         |     
     |          Mulliken Center for Theoretical Chemistry        |     
     |                    University of Bonn                     |     
      -----------------------------------------------------------      

   * xtb version 6.6.1 (8d0f1dd) compiled by 'runner@Mac-1690902418499.local' on 2023-08-01

   xtb is free software: you can redistribute it and/or modify it under
   the terms of the GNU Lesser General Public License as published by
   the Free Software Foundation, either version 3 of the License, or
   (at your option) any later version.
   
   xtb is distributed in the hope that it will be useful,
   but WITHOUT ANY WARRANTY; without even the implied warranty of
   MERCHANTABILITY or FITNESS FOR A PARTICULAR PURPOSE.  See the
   GNU Lesser General Public License for more details.
   
   Cite this work as:
   * C. Bannwarth, E. Caldeweyher, S. Ehlert, A. Hansen, P. Pracht,
     J. Seibert, S. Spicher, S. Grimme, WIREs Comput. Mol. Sci., 2020, 11,
     e01493. DOI: 10.1002/wcms.1493
   
   for GFN2-xTB:
   * C. Bannwarth, S. Ehlert and S. Grimme., J. Chem. Theory Comput., 2019,
     15, 1652-1671. DOI: 10.1021/acs.jctc.8b01176
   for GFN1-xTB:
   * S. Grimme, C. Bannwarth, P. Shushkov, J. Chem. Theory Comput., 2017,
     13, 1989-2009. DOI: 10.1021/acs.jctc.7b00118
   for GFN0-xTB:
   * P. Pracht, E. Caldeweyher, S. Ehlert, S. Grimme, ChemRxiv, 2019, preprint.
     DOI: 10.26434/chemrxiv.8326202.v1
   for GFN-FF:
   * S. Spicher and S. Grimme, Angew. Chem. Int. Ed., 2020, 59, 15665-15673.
     DOI: 10.1002/anie.202004239
   
   for ALPB and GBSA implicit solvation:
   * S. Ehlert, M. Stahn, S. Spicher, S. Grimme, J. Chem. Theory Comput.,
     2021, 17, 4250-4261. DOI: 10.1021/acs.jctc.1c00471
   
   for DFT-D4:
   * E. Caldeweyher, C. Bannwarth and S. Grimme, J. Chem. Phys., 2017,
     147, 034112. DOI: 10.1063/1.4993215
   * E. Caldeweyher, S. Ehlert, A. Hansen, H. Neugebauer, S. Spicher,
     C. Bannwarth and S. Grimme, J. Chem. Phys., 2019, 150, 154122.
     DOI: 10.1063/1.5090222
   * E. Caldeweyher, J.-M. Mewes, S. Ehlert and S. Grimme, Phys. Chem. Chem. Phys.
     2020, 22, 8499-8512. DOI: 10.1039/D0CP00502A
   
   for sTDA-xTB:
   * S. Grimme and C. Bannwarth, J. Chem. Phys., 2016, 145, 054103.
     DOI: 10.1063/1.4959605
   
   in the mass-spec context:
   * V. Asgeirsson, C. Bauer and S. Grimme, Chem. Sci., 2017, 8, 4879.
     DOI: 10.1039/c7sc00601b
   * J. Koopman and S. Grimme, ACS Omega 2019, 4, 12, 15120-15133.
     DOI: 10.1021/acsomega.9b02011
   
   for metadynamics refer to:
   * S. Grimme, J. Chem. Theory Comput., 2019, 155, 2847-2862
     DOI: 10.1021/acs.jctc.9b00143
   
   for SPH calculations refer to:
   * S. Spicher and S. Grimme, J. Chem. Theory Comput., 2021, 17, 1701-1714
     DOI: 10.1021/acs.jctc.0c01306
   
   with help from (in alphabetical order)
   P. Atkinson, C. Bannwarth, F. Bohle, G. Brandenburg, E. Caldeweyher
   M. Checinski, S. Dohm, S. Ehlert, S. Ehrlich, I. Gerasimov, C. Hölzer
   A. Katbashev, J. Koopman, C. Lavigne, S. Lehtola, F. März, M. Müller,
   F. Musil, H. Neugebauer, J. Pisarek, C. Plett, P. Pracht, F. Pultar,
   J. Seibert, P. Shushkov, S. Spicher, M. Stahn, M. Steiner, T. Strunk,
   J. Stückrath, T. Rose, and J. Unsleber
   
 * started run on 2024/11/01 at 13:50:04.606     

           -------------------------------------------------
          |                Calculation Setup                |
           -------------------------------------------------

          program call               : xtb stacked_dimer_Blatter2.mol --opt --gfn2 --chrg 1 --uhf 0 --tight
          coordinate file            : stacked_dimer_Blatter2.mol
          omp threads                :                     8

   ID    Z sym.   atoms
    1    6 C      1-18, 28, 29, 31-34, 36, 43, 47-64, 74, 75, 77-80, 82, 89
    2    1 H      19-26, 38-42, 65-72, 84-88
    3    8 O      27, 73
    4    7 N      30, 35, 37, 76, 81, 83
    5    9 F      44-46, 90-92
########################################################################
[WARNING] Please study the warnings concerning your input carefully
-1- prog_main_parseArguments: Unknown option '--tight' provided
########################################################################

           -------------------------------------------------
          |                 G F N 2 - x T B                 |
           -------------------------------------------------

        Reference                      10.1021/acs.jctc.8b01176
      * Hamiltonian:
        H0-scaling (s, p, d)           1.850000    2.230000    2.230000
        zeta-weighting                 0.500000
      * Dispersion:
        s8                             2.700000
        a1                             0.520000
        a2                             5.000000
        s9                             5.000000
      * Repulsion:
        kExp                           1.500000    1.000000
        rExp                           1.000000
      * Coulomb:
        alpha                          2.000000
        third order                    shell-resolved
        anisotropic                    true
        a3                             3.000000
        a5                             4.000000
        cn-shift                       1.200000
        cn-exp                         4.000000
        max-rad                        5.000000

q/qsh data taken from xtbrestart
CAMM data taken from xtbrestart

          ...................................................
          :                      SETUP                      :
          :.................................................:
          :  # basis functions                 290          :
          :  # atomic orbitals                 290          :
          :  # shells                          158          :
          :  # electrons                       317          :
          :  max. iterations                   250          :
          :  Hamiltonian                  GFN2-xTB          :
          :  restarted?                       true          :
          :  GBSA solvation                  false          :
          :  PC potential                    false          :
          :  electronic temp.          300.0000000     K    :
          :  accuracy                    1.0000000          :
          :  -> integral cutoff          0.2500000E+02      :
          :  -> integral neglect         0.1000000E-07      :
          :  -> SCF convergence          0.1000000E-05 Eh   :
          :  -> wf. convergence          0.1000000E-03 e    :
          :  Broyden damping             0.4000000          :
          ...................................................

 iter      E             dE          RMSdq      gap      omega  full diag
   1   -179.3490535 -0.179349E+03  0.202E+00    0.28       0.0  T
   2   -177.0199997  0.232905E+01  0.334E+00    0.29       1.0  T
   3   -180.1270566 -0.310706E+01  0.139E+00    0.45       1.0  T
   4   -179.6060746  0.520982E+00  0.162E+00    0.13       1.0  T
   5   -180.1436137 -0.537539E+00  0.785E-01    0.77       1.0  T
   6   -180.2033338 -0.597200E-01  0.333E-01    0.46       1.0  T
   7   -180.1465146  0.568192E-01  0.563E-01    0.60       1.0  T
   8   -180.2059449 -0.594304E-01  0.229E-01    0.45       1.0  T
   9   -180.2115234 -0.557842E-02  0.146E-01    0.45       1.0  T
  10   -180.2140791 -0.255576E-02  0.684E-02    0.44       1.0  T
  11   -180.2144977 -0.418558E-03  0.409E-02    0.42       1.0  T
  12   -180.2147597 -0.262065E-03  0.218E-02    0.39       1.0  T
  13   -180.2147171  0.426280E-04  0.211E-02    0.38       1.0  T
  14   -180.2148061 -0.889933E-04  0.657E-03    0.38       1.6  T
  15   -180.2148133 -0.721305E-05  0.208E-03    0.39       5.0  T
  16   -180.2148141 -0.809404E-06  0.625E-04    0.39      16.7  T
  17   -180.2148141 -0.200075E-07  0.312E-04    0.39      33.4  T

   *** convergence criteria satisfied after 17 iterations ***

         #    Occupation            Energy/Eh            Energy/eV
      -------------------------------------------------------------
         1        2.0000           -1.0526283             -28.6435
       ...           ...                  ...                  ...
       153        2.0000           -0.4876868             -13.2706
       154        2.0000           -0.4828374             -13.1387
       155        2.0000           -0.4786387             -13.0244
       156        2.0000           -0.4710300             -12.8174
       157        2.0000           -0.4655617             -12.6686
       158        1.8648           -0.4386214             -11.9355
       159        1.1346           -0.4350953             -11.8395 (HOMO)
       160        0.0006           -0.4208706             -11.4525 (LUMO)
       161        0.0000           -0.4160846             -11.3222
       162                         -0.3989383             -10.8557
       163                         -0.3799877             -10.3400
       164                         -0.3772633             -10.2659
       ...                                ...                  ...
       290                          0.5869589              15.9720
      -------------------------------------------------------------
                  HL-Gap            0.0142247 Eh            0.3871 eV
             Fermi-level           -0.4324164 Eh          -11.7667 eV

 SCC (total)                   0 d,  0 h,  0 min,  0.842 sec
 SCC setup                      ...        0 min,  0.000 sec (  0.034%)
 Dispersion                     ...        0 min,  0.001 sec (  0.114%)
 classical contributions        ...        0 min,  0.000 sec (  0.024%)
 integral evaluation            ...        0 min,  0.006 sec (  0.702%)
 iterations                     ...        0 min,  0.798 sec ( 94.743%)
 molecular gradient             ...        0 min,  0.028 sec (  3.311%)
 printout                       ...        0 min,  0.009 sec (  1.070%)

         :::::::::::::::::::::::::::::::::::::::::::::::::::::
         ::                     SUMMARY                     ::
         :::::::::::::::::::::::::::::::::::::::::::::::::::::
         :: total energy            -177.581939851668 Eh    ::
         :: gradient norm              0.405706874037 Eh/a0 ::
         :: HOMO-LUMO gap              0.387073012662 eV    ::
         ::.................................................::
         :: SCC energy              -180.214814145833 Eh    ::
         :: -> isotropic ES            0.225439849621 Eh    ::
         :: -> anisotropic ES          0.000935161528 Eh    ::
         :: -> anisotropic XC          0.043560876259 Eh    ::
         :: -> dispersion             -0.205006574305 Eh    ::
         :: repulsion energy           2.616596593482 Eh    ::
         :: add. restraining           0.000000000000 Eh    ::
         :: total charge               1.000007720398 e     ::
         :::::::::::::::::::::::::::::::::::::::::::::::::::::

      ----------------------------------------------------------- 
     |                   =====================                   |
     |                        A N C O P T                        |
     |                   =====================                   |
     |               Approximate Normal Coordinate               |
     |                Rational Function Optimizer                |
      ----------------------------------------------------------- 

          ...................................................
          :                      SETUP                      :
          :.................................................:
          :   optimization level            normal          :
          :   max. optcycles                   276          :
          :   ANC micro-cycles                  20          :
          :   degrees of freedom               270          :
          :.................................................:
          :   RF solver                   davidson          :
          :   write xtbopt.log                true          :
          :   linear?                        false          :
          :   energy convergence         0.5000000E-05 Eh   :
          :   grad. convergence          0.1000000E-02 Eh/α :
          :   maxmium RF displ.          1.0000000          :
          :   Hlow (freq-cutoff)         0.1000000E-01      :
          :   Hmax (freq-cutoff)         5.0000000          :
          :   S6 in model hess.         20.0000000          :
          ...................................................

generating ANC from model Hessian ...
Using Lindh-Hessian (1995)
 Shifting diagonal of input Hessian by    9.1768663321879565E-003
 Lowest  eigenvalues of input Hessian
    0.000000    0.000000    0.000000    0.000000    0.000000    0.000000
    0.010000    0.010421    0.011158    0.011443    0.011751    0.012234
    0.012523    0.013141    0.013982    0.014120    0.015074    0.015344
 Highest eigenvalues
    2.238956    2.252558    2.279803    2.292702    2.316882    2.329136


........................................................................
.............................. CYCLE    1 ..............................
........................................................................

 iter      E             dE          RMSdq      gap      omega  full diag
   1   -180.2148142 -0.180215E+03  0.112E-04    0.39       0.0  T
   2   -180.2148142  0.806290E-08  0.213E-04    0.39      48.9  T
   3   -180.2148142 -0.745649E-08  0.114E-04    0.39      91.5  T
     SCC iter.                  ...        0 min,  0.110 sec
     gradient                   ...        0 min,  0.028 sec
 * total energy  :  -177.5819399 Eh     change       -0.1359641E-07 Eh
   gradient norm :     0.4057122 Eh/α   predicted     0.0000000E+00 (-100.00%)
   displ. norm   :     0.6766877 α      lambda       -0.2440626E+00
   maximum displ.:     0.1874373 α      in ANC's #160, #169, #135, ...

........................................................................
.............................. CYCLE    2 ..............................
........................................................................

 iter      E             dE          RMSdq      gap      omega  full diag
   1   -180.3436390 -0.180344E+03  0.500E-01    0.25       0.0  T
   2   -180.1731606  0.170478E+00  0.906E-01    0.92       1.0  T
   3   -180.3805808 -0.207420E+00  0.317E-01    0.39       1.0  T
   4   -180.3550066  0.255742E-01  0.439E-01    0.45       1.0  T
   5   -180.3783820 -0.233753E-01  0.258E-01    0.30       1.0  T
   6   -180.3900005 -0.116186E-01  0.954E-02    0.34       1.0  T
   7   -180.3909826 -0.982016E-03  0.457E-02    0.36       1.0  T
   8   -180.3913623 -0.379739E-03  0.168E-02    0.38       1.0  T
   9   -180.3913788 -0.164572E-04  0.783E-03    0.38       1.3  T
  10   -180.3913862 -0.747144E-05  0.283E-03    0.39       3.7  T
  11   -180.3913870 -0.796766E-06  0.149E-03    0.39       7.0  T
  12   -180.3913873 -0.286669E-06  0.782E-04    0.39      13.3  T
  13   -180.3913874 -0.581630E-07  0.400E-04    0.39      26.0  T
     SCC iter.                  ...        0 min,  0.598 sec
     gradient                   ...        0 min,  0.028 sec
 * total energy  :  -177.7784306 Eh     change       -0.1964907E+00 Eh
   gradient norm :     0.2528999 Eh/α   predicted    -0.1779237E+00 (  -9.45%)
   displ. norm   :     0.7120745 α      lambda       -0.1674165E+00
   maximum displ.:     0.2179390 α      in ANC's #160, #169, #54, ...

........................................................................
.............................. CYCLE    3 ..............................
........................................................................

 iter      E             dE          RMSdq      gap      omega  full diag
   1   -180.4402631 -0.180440E+03  0.573E-01    0.20       0.0  T
   2   -180.0884560  0.351807E+00  0.118E+00    0.88       1.0  T
   3   -180.5069064 -0.418450E+00  0.313E-01    0.36       1.0  T
   4   -180.5038730  0.303332E-02  0.297E-01    0.42       1.0  T
   5   -180.5025577  0.131536E-02  0.263E-01    0.30       1.0  T
   6   -180.5168419 -0.142842E-01  0.670E-02    0.33       1.0  T
   7   -180.5171588 -0.316921E-03  0.311E-02    0.34       1.0  T
   8   -180.5172543 -0.954447E-04  0.127E-02    0.34       1.0  T
   9   -180.5172565 -0.220895E-05  0.917E-03    0.34       1.1  T
  10   -180.5172655 -0.902081E-05  0.392E-03    0.34       2.7  T
  11   -180.5172681 -0.258258E-05  0.163E-03    0.34       6.4  T
  12   -180.5172683 -0.168046E-06  0.769E-04    0.34      13.6  T
  13   -180.5172683 -0.449138E-07  0.341E-04    0.34      30.6  T
     SCC iter.                  ...        0 min,  0.608 sec
     gradient                   ...        0 min,  0.028 sec
 * total energy  :  -177.9181947 Eh     change       -0.1397641E+00 Eh
   gradient norm :     0.1796977 Eh/α   predicted    -0.1261526E+00 (  -9.74%)
   displ. norm   :     0.7738142 α      lambda       -0.1289622E+00
   maximum displ.:     0.2174054 α      in ANC's #160, #169, #54, ...

........................................................................
.............................. CYCLE    4 ..............................
........................................................................

 iter      E             dE          RMSdq      gap      omega  full diag
   1   -180.5352144 -0.180535E+03  0.563E-01    0.17       0.0  T
   2   -180.1046888  0.430526E+00  0.125E+00    0.73       1.0  T
   3   -180.6035513 -0.498862E+00  0.277E-01    0.26       1.0  T
   4   -180.6007406  0.281071E-02  0.250E-01    0.27       1.0  T
   5   -180.5997180  0.102262E-02  0.264E-01    0.31       1.0  T
   6   -180.6112578 -0.115398E-01  0.861E-02    0.27       1.0  T
   7   -180.6123721 -0.111424E-02  0.330E-02    0.27       1.0  T
   8   -180.6125490 -0.176959E-03  0.967E-03    0.26       1.1  T
   9   -180.6125548 -0.579170E-05  0.497E-03    0.26       2.1  T
  10   -180.6125536  0.126723E-05  0.348E-03    0.26       3.0  T
  11   -180.6125557 -0.209455E-05  0.138E-03    0.26       7.5  T
  12   -180.6125560 -0.362859E-06  0.551E-04    0.26      18.9  T
  13   -180.6125560 -0.221128E-07  0.248E-04    0.26      42.0  T
     SCC iter.                  ...        0 min,  0.591 sec
     gradient                   ...        0 min,  0.027 sec
 * total energy  :  -178.0273992 Eh     change       -0.1092045E+00 Eh
   gradient norm :     0.1517359 Eh/α   predicted    -0.1030917E+00 (  -5.60%)
   displ. norm   :     0.7921703 α      lambda       -0.1000648E+00
   maximum displ.:     0.1797552 α      in ANC's #160, #169, #54, ...

........................................................................
.............................. CYCLE    5 ..............................
........................................................................

 iter      E             dE          RMSdq      gap      omega  full diag
   1   -180.6449777 -0.180645E+03  0.478E-01    0.15       0.0  T
   2   -180.3392304  0.305747E+00  0.106E+00    0.53       1.0  T
   3   -180.6848349 -0.345605E+00  0.248E-01    0.16       1.0  T
   4   -180.6874313 -0.259636E-02  0.201E-01    0.22       1.0  T
   5   -180.6810129  0.641833E-02  0.266E-01    0.22       1.0  T
   6   -180.6929658 -0.119529E-01  0.892E-02    0.21       1.0  T
   7   -180.6943468 -0.138100E-02  0.404E-02    0.20       1.0  T
   8   -180.6947511 -0.404266E-03  0.998E-03    0.19       1.0  T
   9   -180.6947650 -0.139376E-04  0.411E-03    0.20       2.5  T
  10   -180.6947659 -0.887233E-06  0.294E-03    0.20       3.5  T
  11   -180.6947672 -0.126997E-05  0.119E-03    0.20       8.7  T
  12   -180.6947675 -0.286614E-06  0.374E-04    0.20      27.9  T
  13   -180.6947675 -0.929529E-08  0.223E-04    0.20      46.8  T
     SCC iter.                  ...        0 min,  0.604 sec
     gradient                   ...        0 min,  0.030 sec
 * total energy  :  -178.1156991 Eh     change       -0.8829994E-01 Eh
   gradient norm :     0.1403918 Eh/α   predicted    -0.8142955E-01 (  -7.78%)
   displ. norm   :     0.8162273 α      lambda       -0.8725167E-01
   maximum displ.:     0.1817135 α      in ANC's #169, #22, #54, ...

........................................................................
.............................. CYCLE    6 ..............................
........................................................................

 iter      E             dE          RMSdq      gap      omega  full diag
   1   -180.7491581 -0.180749E+03  0.374E-01    0.11       0.0  T
   2   -180.6589077  0.902504E-01  0.669E-01    0.30       1.0  T
   3   -180.7579432 -0.990355E-01  0.278E-01    0.19       1.0  T
   4   -180.7541524  0.379077E-02  0.288E-01    0.14       1.0  T
   5   -180.7652142 -0.110618E-01  0.162E-01    0.17       1.0  T
   6   -180.7702713 -0.505716E-02  0.523E-02    0.14       1.0  T
   7   -180.7706807 -0.409354E-03  0.246E-02    0.14       1.0  T
   8   -180.7708045 -0.123786E-03  0.859E-03    0.13       1.2  T
   9   -180.7708139 -0.948529E-05  0.425E-03    0.13       2.5  T
  10   -180.7708174 -0.348956E-05  0.132E-03    0.13       7.9  T
  11   -180.7708177 -0.226919E-06  0.499E-04    0.13      20.9  T
  12   -180.7708177  0.808029E-10  0.330E-04    0.13      31.6  T
     SCC iter.                  ...        0 min,  0.423 sec
     gradient                   ...        0 min,  0.026 sec
 * total energy  :  -178.1845539 Eh     change       -0.6885478E-01 Eh
   gradient norm :     0.0933461 Eh/α   predicted    -0.7269056E-01 (   5.57%)
   displ. norm   :     0.7408552 α      lambda       -0.4998603E-01
   maximum displ.:     0.2085063 α      in ANC's #22, #16, #41, ...

........................................................................
.............................. CYCLE    7 ..............................
........................................................................

 iter      E             dE          RMSdq      gap      omega  full diag
   1   -180.8224231 -0.180822E+03  0.212E-01    0.09       0.0  T
   2   -180.8166480  0.577515E-02  0.206E-01    0.13       1.0  T
   3   -180.8170392 -0.391221E-03  0.217E-01    0.14       1.0  T
   4   -180.8093452  0.769396E-02  0.278E-01    0.12       1.0  T
   5   -180.8242645 -0.149193E-01  0.817E-02    0.12       1.0  T
   6   -180.8256257 -0.136117E-02  0.170E-02    0.11       1.0  T
   7   -180.8256743 -0.485497E-04  0.529E-03    0.11       2.0  T
   8   -180.8256752 -0.903448E-06  0.358E-03    0.10       2.9  T
   9   -180.8256773 -0.211214E-05  0.111E-03    0.10       9.4  T
  10   -180.8256773 -0.613320E-07  0.778E-04    0.10      13.4  T
  11   -180.8256774 -0.113719E-06  0.254E-04    0.10      41.0  T
     SCC iter.                  ...        0 min,  0.403 sec
     gradient                   ...        0 min,  0.027 sec
 * total energy  :  -178.2265517 Eh     change       -0.4199774E-01 Eh
   gradient norm :     0.0662731 Eh/α   predicted    -0.3871086E-01 (  -7.83%)
   displ. norm   :     0.7721348 α      lambda       -0.3737751E-01
   maximum displ.:     0.2373797 α      in ANC's #22, #16, #21, ...

........................................................................
.............................. CYCLE    8 ..............................
........................................................................

 iter      E             dE          RMSdq      gap      omega  full diag
   1   -180.8653844 -0.180865E+03  0.172E-01    0.08       0.0  T
   2   -180.8633684  0.201600E-02  0.143E-01    0.11       1.0  T
   3   -180.8426465  0.207219E-01  0.335E-01    0.14       1.0  T
   4   -180.8621622 -0.195158E-01  0.148E-01    0.10       1.0  T
   5   -180.8662833 -0.412103E-02  0.254E-02    0.09       1.0  T
   6   -180.8663826 -0.992912E-04  0.660E-03    0.09       1.6  T
   7   -180.8663869 -0.432395E-05  0.333E-03    0.09       3.1  T
   8   -180.8663874 -0.475024E-06  0.169E-03    0.09       6.2  T
   9   -180.8663877 -0.343073E-06  0.673E-04    0.09      15.5  T
  10   -180.8663878 -0.474687E-07  0.338E-04    0.09      30.8  T
     SCC iter.                  ...        0 min,  0.383 sec
     gradient                   ...        0 min,  0.027 sec
 * total energy  :  -178.2580078 Eh     change       -0.3145618E-01 Eh
   gradient norm :     0.0513939 Eh/α   predicted    -0.2983086E-01 (  -5.17%)
   displ. norm   :     0.7771263 α      lambda       -0.2721016E-01
   maximum displ.:     0.2526771 α      in ANC's #22, #21, #20, ...

........................................................................
.............................. CYCLE    9 ..............................
........................................................................

 iter      E             dE          RMSdq      gap      omega  full diag
   1   -180.8912936 -0.180891E+03  0.148E-01    0.07       0.0  T
   2   -180.8894647  0.182894E-02  0.128E-01    0.09       1.0  T
   3   -180.8642417  0.252229E-01  0.358E-01    0.15       1.0  T
   4   -180.8904724 -0.262307E-01  0.792E-02    0.08       1.0  T
   5   -180.8915783 -0.110584E-02  0.186E-02    0.08       1.0  T
   6   -180.8916359 -0.576170E-04  0.584E-03    0.08       1.8  T
   7   -180.8916395 -0.359184E-05  0.323E-03    0.08       3.2  T
   8   -180.8916406 -0.113063E-05  0.148E-03    0.08       7.0  T
   9   -180.8916410 -0.374759E-06  0.448E-04    0.08      23.3  T
  10   -180.8916410 -0.117718E-07  0.271E-04    0.08      38.5  T
     SCC iter.                  ...        0 min,  0.499 sec
     gradient                   ...        0 min,  0.027 sec
 * total energy  :  -178.2811090 Eh     change       -0.2310112E-01 Eh
   gradient norm :     0.0417267 Eh/α   predicted    -0.2182154E-01 (  -5.54%)
   displ. norm   :     0.7800010 α      lambda       -0.2044180E-01
   maximum displ.:     0.2562495 α      in ANC's #22, #21, #20, ...

........................................................................
.............................. CYCLE   10 ..............................
........................................................................

 iter      E             dE          RMSdq      gap      omega  full diag
   1   -180.9077728 -0.180908E+03  0.135E-01    0.07       0.0  T
   2   -180.9074465  0.326318E-03  0.904E-02    0.08       1.0  T
   3   -180.8819374  0.255090E-01  0.341E-01    0.13       1.0  T
   4   -180.9065572 -0.246198E-01  0.829E-02    0.08       1.0  T
   5   -180.9078835 -0.132629E-02  0.150E-02    0.07       1.0  T
   6   -180.9079261 -0.425462E-04  0.420E-03    0.07       2.5  T
   7   -180.9079269 -0.776364E-06  0.278E-03    0.07       3.8  T
   8   -180.9079280 -0.117890E-05  0.850E-04    0.07      12.3  T
   9   -180.9079281 -0.858896E-07  0.358E-04    0.07      29.1  T
  10   -180.9079281 -0.820268E-08  0.187E-04    0.07      55.8  T
     SCC iter.                  ...        0 min,  0.458 sec
     gradient                   ...        0 min,  0.027 sec
 * total energy  :  -178.2985852 Eh     change       -0.1747626E-01 Eh
   gradient norm :     0.0353529 Eh/α   predicted    -0.1643931E-01 (  -5.93%)
   displ. norm   :     0.7790111 α      lambda       -0.1584131E-01
   maximum displ.:     0.2480334 α      in ANC's #22, #21, #20, ...

........................................................................
.............................. CYCLE   11 ..............................
........................................................................

 iter      E             dE          RMSdq      gap      omega  full diag
   1   -180.9190570 -0.180919E+03  0.130E-01    0.07       0.0  T
   2   -180.9190650 -0.804044E-05  0.788E-02    0.07       1.0  T
   3   -180.9178546  0.121043E-02  0.819E-02    0.08       1.0  T
   4   -180.9100076  0.784701E-02  0.199E-01    0.08       1.0  T
   5   -180.9191360 -0.912840E-02  0.101E-02    0.07       1.0  T
   6   -180.9191496 -0.136711E-04  0.446E-03    0.07       2.3  T
   7   -180.9191524 -0.276477E-05  0.170E-03    0.07       6.1  T
   8   -180.9191525 -0.145692E-06  0.748E-04    0.07      13.9  T
   9   -180.9191526 -0.692282E-07  0.296E-04    0.07      35.2  T
     SCC iter.                  ...        0 min,  0.430 sec
     gradient                   ...        0 min,  0.028 sec
 * total energy  :  -178.3121960 Eh     change       -0.1361080E-01 Eh
   gradient norm :     0.0309378 Eh/α   predicted    -0.1272737E-01 (  -6.49%)
   displ. norm   :     0.7775511 α      lambda       -0.1262031E-01
   maximum displ.:     0.2264737 α      in ANC's #21, #20, #22, ...

........................................................................
.............................. CYCLE   12 ..............................
........................................................................

 iter      E             dE          RMSdq      gap      omega  full diag
   1   -180.9282360 -0.180928E+03  0.129E-01    0.07       0.0  T
   2   -180.9282524 -0.164468E-04  0.770E-02    0.07       1.0  T
   3   -180.9278869  0.365530E-03  0.475E-02    0.07       1.0  T
   4   -180.9282571 -0.370190E-03  0.150E-02    0.06       1.0  T
   5   -180.9279191  0.337981E-03  0.410E-02    0.07       1.0  T
   6   -180.9283033 -0.384223E-03  0.346E-03    0.07       3.0  T
   7   -180.9283042 -0.920121E-06  0.169E-03    0.07       6.2  T
   8   -180.9283045 -0.244941E-06  0.524E-04    0.07      19.9  T
   9   -180.9283045 -0.192613E-07  0.254E-04    0.07      41.1  T
     SCC iter.                  ...        0 min,  0.471 sec
     gradient                   ...        0 min,  0.028 sec
 * total energy  :  -178.3230488 Eh     change       -0.1085280E-01 Eh
   gradient norm :     0.0271063 Eh/α   predicted    -0.1012519E-01 (  -6.70%)
   displ. norm   :     0.7717049 α      lambda       -0.1012436E-01
   maximum displ.:     0.2202020 α      in ANC's #21, #20, #11, ...

........................................................................
.............................. CYCLE   13 ..............................
........................................................................

 iter      E             dE          RMSdq      gap      omega  full diag
   1   -180.9352517 -0.180935E+03  0.129E-01    0.07       0.0  T
   2   -180.9349036  0.348024E-03  0.842E-02    0.07       1.0  T
   3   -180.9003240  0.345796E-01  0.391E-01    0.16       1.0  T
   4   -180.9349768 -0.346528E-01  0.383E-02    0.07       1.0  T
   5   -180.9353007 -0.323899E-03  0.728E-03    0.07       1.4  T
   6   -180.9353067 -0.603616E-05  0.406E-03    0.07       2.6  T
   7   -180.9353088 -0.208895E-05  0.172E-03    0.07       6.1  T
   8   -180.9353091 -0.332258E-06  0.537E-04    0.07      19.4  T
   9   -180.9353092 -0.295377E-07  0.245E-04    0.07      42.5  T
     SCC iter.                  ...        0 min,  0.464 sec
     gradient                   ...        0 min,  0.027 sec
 * total energy  :  -178.3316826 Eh     change       -0.8633722E-02 Eh
   gradient norm :     0.0228046 Eh/α   predicted    -0.8076858E-02 (  -6.45%)
   displ. norm   :     0.7656634 α      lambda       -0.7961989E-02
   maximum displ.:     0.2143505 α      in ANC's #20, #21, #16, ...

........................................................................
.............................. CYCLE   14 ..............................
........................................................................

 iter      E             dE          RMSdq      gap      omega  full diag
   1   -180.9412313 -0.180941E+03  0.132E-01    0.07       0.0  T
   2   -180.9396407  0.159061E-02  0.111E-01    0.09       1.0  T
   3   -180.9070403  0.326003E-01  0.391E-01    0.16       1.0  T
   4   -180.9405808 -0.335404E-01  0.548E-02    0.07       1.0  T
   5   -180.9412943 -0.713511E-03  0.533E-03    0.07       2.0  T
   6   -180.9412943 -0.481733E-07  0.422E-03    0.07       2.5  T
   7   -180.9412966 -0.230625E-05  0.171E-03    0.07       6.1  T
   8   -180.9412970 -0.382864E-06  0.753E-04    0.07      13.9  T
   9   -180.9412971 -0.948882E-07  0.258E-04    0.07      40.5  T
     SCC iter.                  ...        0 min,  0.313 sec
     gradient                   ...        0 min,  0.027 sec
 * total energy  :  -178.3383620 Eh     change       -0.6679475E-02 Eh
   gradient norm :     0.0187463 Eh/α   predicted    -0.6314824E-02 (  -5.46%)
   displ. norm   :     0.7476351 α      lambda       -0.6070436E-02
   maximum displ.:     0.2067176 α      in ANC's #16, #20, #11, ...

........................................................................
.............................. CYCLE   15 ..............................
........................................................................

 iter      E             dE          RMSdq      gap      omega  full diag
   1   -180.9447744 -0.180945E+03  0.128E-01    0.07       0.0  T
   2   -180.9416987  0.307578E-02  0.135E-01    0.10       1.0  T
   3   -180.9183938  0.233048E-01  0.344E-01    0.13       1.0  T
   4   -180.9446284 -0.262346E-01  0.325E-02    0.07       1.0  T
   5   -180.9448552 -0.226743E-03  0.560E-03    0.07       1.9  T
   6   -180.9448580 -0.284890E-05  0.312E-03    0.07       3.3  T
   7   -180.9448586 -0.635160E-06  0.155E-03    0.07       6.7  T
   8   -180.9448589 -0.228899E-06  0.722E-04    0.07      14.4  T
   9   -180.9448590 -0.861104E-07  0.274E-04    0.07      38.1  T
     SCC iter.                  ...        0 min,  0.330 sec
     gradient                   ...        0 min,  0.026 sec
 * total energy  :  -178.3433107 Eh     change       -0.4948674E-02 Eh
   gradient norm :     0.0168559 Eh/α   predicted    -0.4731805E-02 (  -4.38%)
   displ. norm   :     0.7249114 α      lambda       -0.4468794E-02
   maximum displ.:     0.2010601 α      in ANC's #16, #17, #20, ...

........................................................................
.............................. CYCLE   16 ..............................
........................................................................

 iter      E             dE          RMSdq      gap      omega  full diag
   1   -180.9475091 -0.180948E+03  0.128E-01    0.07       0.0  T
   2   -180.9417137  0.579544E-02  0.174E-01    0.12       1.0  T
   3   -180.9302755  0.114382E-01  0.280E-01    0.10       1.0  T
   4   -180.9474663 -0.171908E-01  0.314E-02    0.08       1.0  T
   5   -180.9475838 -0.117432E-03  0.166E-02    0.08       1.0  T
   6   -180.9476447 -0.609447E-04  0.373E-03    0.08       2.8  T
   7   -180.9476449 -0.218653E-06  0.268E-03    0.08       3.9  T
   8   -180.9476461 -0.113220E-05  0.144E-03    0.08       7.2  T
   9   -180.9476465 -0.400554E-06  0.600E-04    0.08      17.4  T
  10   -180.9476465 -0.723726E-07  0.135E-04    0.08      77.1  T
     SCC iter.                  ...        0 min,  0.514 sec
     gradient                   ...        0 min,  0.028 sec
 * total energy  :  -178.3468909 Eh     change       -0.3580211E-02 Eh
   gradient norm :     0.0160965 Eh/α   predicted    -0.3408565E-02 (  -4.79%)
   displ. norm   :     0.6846465 α      lambda       -0.3245781E-02
   maximum displ.:     0.1934852 α      in ANC's #16, #17, #4, ...

........................................................................
.............................. CYCLE   17 ..............................
........................................................................

 iter      E             dE          RMSdq      gap      omega  full diag
   1   -180.9502342 -0.180950E+03  0.115E-01    0.08       0.0  T
   2   -180.9430271  0.720714E-02  0.188E-01    0.13       1.0  T
   3   -180.9406609  0.236623E-02  0.212E-01    0.09       1.0  T
   4   -180.9499099 -0.924903E-02  0.481E-02    0.08       1.0  T
   5   -180.9502788 -0.368914E-03  0.232E-02    0.08       1.0  T
   6   -180.9504015 -0.122716E-03  0.471E-03    0.08       2.2  T
   7   -180.9504033 -0.177538E-05  0.310E-03    0.08       3.4  T
   8   -180.9504050 -0.166403E-05  0.164E-03    0.08       6.4  T
   9   -180.9504055 -0.516117E-06  0.717E-04    0.08      14.5  T
  10   -180.9504056 -0.109353E-06  0.120E-04    0.08      86.9  T
     SCC iter.                  ...        0 min,  0.448 sec
     gradient                   ...        0 min,  0.027 sec
 * total energy  :  -178.3495261 Eh     change       -0.2635152E-02 Eh
   gradient norm :     0.0147024 Eh/α   predicted    -0.2383606E-02 (  -9.55%)
   displ. norm   :     0.6709154 α      lambda       -0.2566220E-02
   maximum displ.:     0.1935221 α      in ANC's #17, #16, #4, ...

........................................................................
.............................. CYCLE   18 ..............................
........................................................................

 iter      E             dE          RMSdq      gap      omega  full diag
   1   -180.9521099 -0.180952E+03  0.109E-01    0.08       0.0  T
   2   -180.9443679  0.774199E-02  0.194E-01    0.13       1.0  T
   3   -180.9458036 -0.143575E-02  0.174E-01    0.08       1.0  T
   4   -180.9517010 -0.589741E-02  0.516E-02    0.08       1.0  T
   5   -180.9521809 -0.479838E-03  0.220E-02    0.08       1.0  T
   6   -180.9522934 -0.112550E-03  0.344E-03    0.08       3.0  T
   7   -180.9522940 -0.534971E-06  0.244E-03    0.08       4.3  T
   8   -180.9522949 -0.890056E-06  0.138E-03    0.08       7.6  T
   9   -180.9522953 -0.405785E-06  0.402E-04    0.08      25.9  T
  10   -180.9522953 -0.274337E-07  0.104E-04    0.08     100.5  T
     SCC iter.                  ...        0 min,  0.617 sec
     gradient                   ...        0 min,  0.027 sec
 * total energy  :  -178.3516127 Eh     change       -0.2086630E-02 Eh
   gradient norm :     0.0162133 Eh/α   predicted    -0.1860677E-02 ( -10.83%)
   displ. norm   :     0.6681077 α      lambda       -0.2354822E-02
   maximum displ.:     0.2440754 α      in ANC's #4, #17, #16, ...

........................................................................
.............................. CYCLE   19 ..............................
........................................................................

 iter      E             dE          RMSdq      gap      omega  full diag
   1   -180.9563343 -0.180956E+03  0.110E-01    0.08       0.0  T
   2   -180.9486794  0.765499E-02  0.194E-01    0.13       1.0  T
   3   -180.9492457 -0.566302E-03  0.183E-01    0.08       1.0  T
   4   -180.9557656 -0.651991E-02  0.580E-02    0.09       1.0  T
   5   -180.9564289 -0.663380E-03  0.198E-02    0.08       1.0  T
   6   -180.9565223 -0.933212E-04  0.259E-03    0.08       4.0  T
   7   -180.9565222  0.100544E-06  0.191E-03    0.08       5.4  T
   8   -180.9565225 -0.319038E-06  0.129E-03    0.08       8.1  T
   9   -180.9565229 -0.370108E-06  0.291E-04    0.08      35.8  T
  10   -180.9565229 -0.713203E-08  0.129E-04    0.08      80.8  T
     SCC iter.                  ...        0 min,  0.335 sec
     gradient                   ...        0 min,  0.027 sec
 * total energy  :  -178.3533837 Eh     change       -0.1770969E-02 Eh
   gradient norm :     0.0131428 Eh/α   predicted    -0.1702975E-02 (  -3.84%)
   displ. norm   :     0.6573535 α      lambda       -0.2012833E-02
   maximum displ.:     0.2312904 α      in ANC's #4, #16, #2, ...

........................................................................
.............................. CYCLE   20 ..............................
........................................................................

 iter      E             dE          RMSdq      gap      omega  full diag
   1   -180.9566795 -0.180957E+03  0.964E-02    0.08       0.0  T
   2   -180.9559030  0.776575E-03  0.818E-02    0.08       1.0  T
   3   -180.9338126  0.220904E-01  0.313E-01    0.12       1.0  T
   4   -180.9566753 -0.228627E-01  0.176E-02    0.08       1.0  T
   5   -180.9567136 -0.383058E-04  0.582E-03    0.08       1.8  T
   6   -180.9567184 -0.477712E-05  0.222E-03    0.08       4.7  T
   7   -180.9567186 -0.224378E-06  0.135E-03    0.08       7.7  T
   8   -180.9567187 -0.148046E-06  0.551E-04    0.08      18.9  T
   9   -180.9567188 -0.372804E-07  0.279E-04    0.08      37.3  T
     SCC iter.                  ...        0 min,  0.335 sec
     gradient                   ...        0 min,  0.027 sec
 * total energy  :  -178.3548832 Eh     change       -0.1499564E-02 Eh
   gradient norm :     0.0168874 Eh/α   predicted    -0.1441306E-02 (  -3.89%)
   displ. norm   :     0.5867206 α      lambda       -0.1546914E-02
   maximum displ.:     0.2526301 α      in ANC's #4, #2, #16, ...
 * RMSD in coord.:     1.2717387 α      energy gain  -0.7729434E+00 Eh

generating ANC from model Hessian ...
Using Lindh-Hessian (1995)
 Shifting diagonal of input Hessian by    9.9231834914519108E-003
 Lowest  eigenvalues of input Hessian
    0.000000    0.000000    0.000000    0.000000    0.000000    0.000000
    0.010000    0.010194    0.010315    0.010436    0.010655    0.010750
    0.011091    0.011258    0.011441    0.011593    0.012037    0.012164
 Highest eigenvalues
    2.193917    2.201671    2.265051    2.288319    2.305801    2.326125


........................................................................
.............................. CYCLE   21 ..............................
........................................................................

 iter      E             dE          RMSdq      gap      omega  full diag
   1   -180.9578943 -0.180958E+03  0.792E-02    0.08       0.0  T
   2   -180.9556379  0.225638E-02  0.108E-01    0.07       1.0  T
   3   -180.9519308  0.370714E-02  0.164E-01    0.11       1.0  T
   4   -180.9578361 -0.590529E-02  0.239E-02    0.08       1.0  T
   5   -180.9578755 -0.394292E-04  0.157E-02    0.08       1.0  T
   6   -180.9579358 -0.603087E-04  0.222E-03    0.07       4.7  T
   7   -180.9579344  0.142018E-05  0.298E-03    0.07       3.5  T
   8   -180.9579365 -0.207455E-05  0.413E-04    0.07      25.2  T
   9   -180.9579365  0.597262E-08  0.382E-04    0.07      27.3  T
  10   -180.9579365 -0.261646E-07  0.113E-04    0.07      92.2  T
     SCC iter.                  ...        0 min,  0.424 sec
     gradient                   ...        0 min,  0.027 sec
 * total energy  :  -178.3561903 Eh     change       -0.1307029E-02 Eh
   gradient norm :     0.0157425 Eh/α   predicted     0.0000000E+00 (-100.00%)
   displ. norm   :     0.3015281 α      lambda       -0.1985740E-02
   maximum displ.:     0.1501675 α      in ANC's #3, #25, #12, ...

........................................................................
.............................. CYCLE   22 ..............................
........................................................................

 iter      E             dE          RMSdq      gap      omega  full diag
   1   -180.9602297 -0.180960E+03  0.889E-02    0.08       0.0  T
   2   -180.9481479  0.120818E-01  0.233E-01    0.09       1.0  T
   3   -180.9584351 -0.102872E-01  0.101E-01    0.09       1.0  T
   4   -180.9603489 -0.191378E-02  0.151E-02    0.07       1.0  T
   5   -180.9603824 -0.334973E-04  0.713E-03    0.07       1.5  T
   6   -180.9603942 -0.118409E-04  0.142E-03    0.07       7.3  T
   7   -180.9603942  0.526930E-08  0.965E-04    0.07      10.8  T
   8   -180.9603944 -0.135757E-06  0.332E-04    0.07      31.4  T
     SCC iter.                  ...        0 min,  0.315 sec
     gradient                   ...        0 min,  0.026 sec
 * total energy  :  -178.3575640 Eh     change       -0.1373777E-02 Eh
   gradient norm :     0.0081827 Eh/α   predicted    -0.1085399E-02 ( -20.99%)
   displ. norm   :     0.4189440 α      lambda       -0.1476035E-02
   maximum displ.:     0.2248053 α      in ANC's #3, #10, #25, ...

........................................................................
.............................. CYCLE   23 ..............................
........................................................................

 iter      E             dE          RMSdq      gap      omega  full diag
   1   -180.9617242 -0.180962E+03  0.864E-02    0.07       0.0  T
   2   -180.9469523  0.147719E-01  0.256E-01    0.09       1.0  T
   3   -180.9606213 -0.136689E-01  0.857E-02    0.08       1.0  T
   4   -180.9618501 -0.122880E-02  0.189E-02    0.07       1.0  T
   5   -180.9619194 -0.693786E-04  0.580E-03    0.07       1.8  T
   6   -180.9619263 -0.684772E-05  0.182E-03    0.07       5.7  T
   7   -180.9619265 -0.202735E-06  0.931E-04    0.07      11.2  T
   8   -180.9619266 -0.117236E-06  0.299E-04    0.07      34.9  T
     SCC iter.                  ...        0 min,  0.296 sec
     gradient                   ...        0 min,  0.031 sec
 * total energy  :  -178.3587382 Eh     change       -0.1174135E-02 Eh
   gradient norm :     0.0063378 Eh/α   predicted    -0.8675548E-03 ( -26.11%)
   displ. norm   :     0.5765419 α      lambda       -0.1490190E-02
   maximum displ.:     0.3158371 α      in ANC's #3, #10, #5, ...

........................................................................
.............................. CYCLE   24 ..............................
........................................................................

 iter      E             dE          RMSdq      gap      omega  full diag
   1   -180.9631357 -0.180963E+03  0.872E-02    0.07       0.0  T
   2   -180.9554550  0.768066E-02  0.188E-01    0.07       1.0  T
   3   -180.9602368 -0.478173E-02  0.120E-01    0.09       1.0  T
   4   -180.9631816 -0.294487E-02  0.189E-02    0.07       1.0  T
   5   -180.9632015 -0.198678E-04  0.129E-02    0.07       1.0  T
   6   -180.9632401 -0.386125E-04  0.259E-03    0.07       4.0  T
   7   -180.9632396  0.536727E-06  0.250E-03    0.07       4.2  T
   8   -180.9632410 -0.144802E-05  0.377E-04    0.07      27.7  T
   9   -180.9632410  0.557918E-09  0.290E-04    0.07      36.0  T
  10   -180.9632410 -0.124271E-07  0.119E-04    0.07      87.8  T
     SCC iter.                  ...        0 min,  0.363 sec
     gradient                   ...        0 min,  0.027 sec
 * total energy  :  -178.3599669 Eh     change       -0.1228676E-02 Eh
   gradient norm :     0.0089086 Eh/α   predicted    -0.9927653E-03 ( -19.20%)
   displ. norm   :     0.6242360 α      lambda       -0.1352362E-02
   maximum displ.:     0.3614800 α      in ANC's #3, #5, #10, ...

........................................................................
.............................. CYCLE   25 ..............................
........................................................................

 iter      E             dE          RMSdq      gap      omega  full diag
   1   -180.9645744 -0.180965E+03  0.766E-02    0.07       0.0  T
   2   -180.9643969  0.177508E-03  0.534E-02    0.07       1.0  T
   3   -180.9431285  0.212684E-01  0.298E-01    0.11       1.0  T
   4   -180.9645387 -0.214102E-01  0.180E-02    0.07       1.0  T
   5   -180.9645906 -0.519274E-04  0.384E-03    0.07       2.7  T
   6   -180.9645924 -0.177901E-05  0.173E-03    0.07       6.0  T
   7   -180.9645926 -0.162856E-06  0.847E-04    0.07      12.3  T
   8   -180.9645926 -0.192017E-07  0.445E-04    0.07      23.4  T
     SCC iter.                  ...        0 min,  0.306 sec
     gradient                   ...        0 min,  0.028 sec
 * total energy  :  -178.3610871 Eh     change       -0.1120282E-02 Eh
   gradient norm :     0.0105723 Eh/α   predicted    -0.9396710E-03 ( -16.12%)
   displ. norm   :     0.6077237 α      lambda       -0.1225568E-02
   maximum displ.:     0.3801056 α      in ANC's #3, #5, #8, ...

........................................................................
.............................. CYCLE   26 ..............................
........................................................................

 iter      E             dE          RMSdq      gap      omega  full diag
   1   -180.9667812 -0.180967E+03  0.755E-02    0.06       0.0  T
   2   -180.9572064  0.957485E-02  0.206E-01    0.13       1.0  T
   3   -180.9657662 -0.855978E-02  0.803E-02    0.06       1.0  T
   4   -180.9665866 -0.820454E-03  0.417E-02    0.07       1.0  T
   5   -180.9669513 -0.364696E-03  0.132E-02    0.07       1.0  T
   6   -180.9669933 -0.419794E-04  0.201E-03    0.07       5.2  T
   7   -180.9669936 -0.352809E-06  0.122E-03    0.07       8.6  T
   8   -180.9669934  0.228444E-06  0.147E-03    0.07       7.1  T
   9   -180.9669939 -0.500642E-06  0.317E-04    0.07      32.9  T
  10   -180.9669939 -0.118332E-07  0.198E-04    0.07      52.7  T
     SCC iter.                  ...        0 min,  0.345 sec
     gradient                   ...        0 min,  0.027 sec
 * total energy  :  -178.3621170 Eh     change       -0.1029896E-02 Eh
   gradient norm :     0.0079025 Eh/α   predicted    -0.8391047E-03 ( -18.53%)
   displ. norm   :     0.6260013 α      lambda       -0.1085066E-02
   maximum displ.:     0.4095585 α      in ANC's #3, #5, #4, ...

........................................................................
.............................. CYCLE   27 ..............................
........................................................................

 iter      E             dE          RMSdq      gap      omega  full diag
   1   -180.9679445 -0.180968E+03  0.792E-02    0.06       0.0  T
   2   -180.9548293  0.131152E-01  0.241E-01    0.16       1.0  T
   3   -180.9676544 -0.128251E-01  0.634E-02    0.06       1.0  T
   4   -180.9678275 -0.173068E-03  0.439E-02    0.07       1.0  T
   5   -180.9682947 -0.467187E-03  0.589E-03    0.07       1.8  T
   6   -180.9682993 -0.458483E-05  0.356E-03    0.07       2.9  T
   7   -180.9683018 -0.252465E-05  0.154E-03    0.07       6.8  T
   8   -180.9683020 -0.219599E-06  0.925E-04    0.07      11.3  T
   9   -180.9683022 -0.145616E-06  0.482E-04    0.07      21.6  T
     SCC iter.                  ...        0 min,  0.369 sec
     gradient                   ...        0 min,  0.027 sec
 * total energy  :  -178.3630559 Eh     change       -0.9388411E-03 Eh
   gradient norm :     0.0058802 Eh/α   predicted    -0.7551400E-03 ( -19.57%)
   displ. norm   :     0.6338346 α      lambda       -0.9850893E-03
   maximum displ.:     0.4190651 α      in ANC's #3, #5, #4, ...

........................................................................
.............................. CYCLE   28 ..............................
........................................................................

 iter      E             dE          RMSdq      gap      omega  full diag
   1   -180.9690653 -0.180969E+03  0.796E-02    0.06       0.0  T
   2   -180.9547645  0.143008E-01  0.252E-01    0.16       1.0  T
   3   -180.9689078 -0.141433E-01  0.603E-02    0.06       1.0  T
   4   -180.9689792 -0.714166E-04  0.445E-02    0.07       1.0  T
   5   -180.9694758 -0.496605E-03  0.396E-03    0.07       2.6  T
   6   -180.9694755  0.316889E-06  0.349E-03    0.07       3.0  T
   7   -180.9694772 -0.167930E-05  0.240E-03    0.07       4.4  T
   8   -180.9694784 -0.117156E-05  0.562E-04    0.07      18.5  T
   9   -180.9694783  0.304292E-07  0.614E-04    0.07      17.0  T
  10   -180.9694784 -0.875984E-07  0.167E-04    0.07      62.3  T
     SCC iter.                  ...        0 min,  0.360 sec
     gradient                   ...        0 min,  0.027 sec
 * total energy  :  -178.3639205 Eh     change       -0.8646655E-03 Eh
   gradient norm :     0.0050734 Eh/α   predicted    -0.6904230E-03 ( -20.15%)
   displ. norm   :     0.6605620 α      lambda       -0.9065289E-03
   maximum displ.:     0.4326988 α      in ANC's #3, #5, #4, ...

........................................................................
.............................. CYCLE   29 ..............................
........................................................................

 iter      E             dE          RMSdq      gap      omega  full diag
   1   -180.9693129 -0.180969E+03  0.755E-02    0.06       0.0  T
   2   -180.9579616  0.113512E-01  0.222E-01    0.14       1.0  T
   3   -180.9683007 -0.103391E-01  0.810E-02    0.06       1.0  T
   4   -180.9689704 -0.669685E-03  0.495E-02    0.07       1.0  T
   5   -180.9695330 -0.562665E-03  0.127E-02    0.07       1.0  T
   6   -180.9695720 -0.389812E-04  0.181E-03    0.07       5.8  T
   7   -180.9695724 -0.372724E-06  0.916E-04    0.07      11.4  T
   8   -180.9695718  0.534882E-06  0.161E-03    0.07       6.5  T
   9   -180.9695725 -0.630069E-06  0.318E-04    0.07      32.8  T
     SCC iter.                  ...        0 min,  0.299 sec
     gradient                   ...        0 min,  0.027 sec
 * total energy  :  -178.3647213 Eh     change       -0.8007187E-03 Eh
   gradient norm :     0.0056834 Eh/α   predicted    -0.6510435E-03 ( -18.69%)
   displ. norm   :     0.6724413 α      lambda       -0.8639255E-03
   maximum displ.:     0.4406476 α      in ANC's #3, #5, #4, ...

........................................................................
.............................. CYCLE   30 ..............................
........................................................................

 iter      E             dE          RMSdq      gap      omega  full diag
   1   -180.9713616 -0.180971E+03  0.778E-02    0.06       0.0  T
   2   -180.9592589  0.121027E-01  0.229E-01    0.14       1.0  T
   3   -180.9701795 -0.109206E-01  0.862E-02    0.06       1.0  T
   4   -180.9709312 -0.751643E-03  0.535E-02    0.07       1.0  T
   5   -180.9716142 -0.683039E-03  0.105E-02    0.07       1.0  T
   6   -180.9716398 -0.255667E-04  0.267E-03    0.07       3.9  T
   7   -180.9716412 -0.146813E-05  0.943E-04    0.07      11.1  T
   8   -180.9716406  0.683664E-06  0.173E-03    0.07       6.0  T
   9   -180.9716413 -0.709958E-06  0.444E-04    0.07      23.5  T
  10   -180.9716413 -0.463206E-07  0.919E-05    0.07     113.5  T
     SCC iter.                  ...        0 min,  0.333 sec
     gradient                   ...        0 min,  0.028 sec
 * total energy  :  -178.3654357 Eh     change       -0.7144345E-03 Eh
   gradient norm :     0.0074584 Eh/α   predicted    -0.6272878E-03 ( -12.20%)
   displ. norm   :     0.7035935 α      lambda       -0.8084283E-03
   maximum displ.:     0.4566059 α      in ANC's #3, #5, #4, ...

........................................................................
.............................. CYCLE   31 ..............................
........................................................................

 iter      E             dE          RMSdq      gap      omega  full diag
   1   -180.9692934 -0.180969E+03  0.719E-02    0.06       0.0  T
   2   -180.9644531  0.484027E-02  0.146E-01    0.10       1.0  T
   3   -180.9653184 -0.865292E-03  0.134E-01    0.07       1.0  T
   4   -180.9692161 -0.389766E-02  0.279E-02    0.07       1.0  T
   5   -180.9693283 -0.112273E-03  0.145E-02    0.07       1.0  T
   6   -180.9693791 -0.508209E-04  0.287E-03    0.07       3.6  T
   7   -180.9693804 -0.129870E-05  0.117E-03    0.07       8.9  T
   8   -180.9693807 -0.217012E-06  0.322E-04    0.07      32.3  T
   9   -180.9693807 -0.707431E-08  0.172E-04    0.07      60.6  T
     SCC iter.                  ...        0 min,  0.356 sec
     gradient                   ...        0 min,  0.026 sec
 * total energy  :  -178.3660488 Eh     change       -0.6131535E-03 Eh
   gradient norm :     0.0077120 Eh/α   predicted    -0.6043196E-03 (  -1.44%)
   displ. norm   :     0.6146872 α      lambda       -0.5938360E-03
   maximum displ.:     0.4062013 α      in ANC's #3, #5, #4, ...

........................................................................
.............................. CYCLE   32 ..............................
........................................................................

 iter      E             dE          RMSdq      gap      omega  full diag
   1   -180.9704209 -0.180970E+03  0.612E-02    0.06       0.0  T
   2   -180.9672891  0.313182E-02  0.118E-01    0.09       1.0  T
   3   -180.9669598  0.329328E-03  0.124E-01    0.06       1.0  T
   4   -180.9703867 -0.342687E-02  0.193E-02    0.07       1.0  T
   5   -180.9704405 -0.538308E-04  0.104E-02    0.07       1.0  T
   6   -180.9704665 -0.259698E-04  0.199E-03    0.07       5.2  T
   7   -180.9704670 -0.573114E-06  0.907E-04    0.07      11.5  T
   8   -180.9704672 -0.163621E-06  0.210E-04    0.07      49.7  T
     SCC iter.                  ...        0 min,  0.307 sec
     gradient                   ...        0 min,  0.026 sec
 * total energy  :  -178.3665565 Eh     change       -0.5076348E-03 Eh
   gradient norm :     0.0052230 Eh/α   predicted    -0.4091062E-03 ( -19.41%)
   displ. norm   :     0.6338987 α      lambda       -0.5149340E-03
   maximum displ.:     0.4228469 α      in ANC's #3, #5, #4, ...

........................................................................
.............................. CYCLE   33 ..............................
........................................................................

 iter      E             dE          RMSdq      gap      omega  full diag
   1   -180.9720104 -0.180972E+03  0.599E-02    0.06       0.0  T
   2   -180.9711459  0.864498E-03  0.682E-02    0.07       1.0  T
   3   -180.9631686  0.797724E-02  0.192E-01    0.08       1.0  T
   4   -180.9720133 -0.884466E-02  0.927E-03    0.07       1.1  T
   5   -180.9720179 -0.465168E-05  0.559E-03    0.07       1.9  T
   6   -180.9720248 -0.690111E-05  0.163E-03    0.07       6.4  T
   7   -180.9720252 -0.406944E-06  0.555E-04    0.06      18.8  T
   8   -180.9720253 -0.316226E-07  0.196E-04    0.07      53.1  T
     SCC iter.                  ...        0 min,  0.320 sec
     gradient                   ...        0 min,  0.037 sec
 * total energy  :  -178.3670017 Eh     change       -0.4452574E-03 Eh
   gradient norm :     0.0040777 Eh/α   predicted    -0.3609284E-03 ( -18.94%)
   displ. norm   :     0.6502177 α      lambda       -0.4484213E-03
   maximum displ.:     0.4333824 α      in ANC's #3, #4, #5, ...

........................................................................
.............................. CYCLE   34 ..............................
........................................................................

 iter      E             dE          RMSdq      gap      omega  full diag
   1   -180.9725906 -0.180973E+03  0.609E-02    0.06       0.0  T
   2   -180.9721915  0.399109E-03  0.534E-02    0.07       1.0  T
   3   -180.9589125  0.132791E-01  0.237E-01    0.09       1.0  T
   4   -180.9725859 -0.136735E-01  0.963E-03    0.06       1.1  T
   5   -180.9725982 -0.122189E-04  0.332E-03    0.07       3.1  T
   6   -180.9726000 -0.186851E-05  0.142E-03    0.07       7.3  T
   7   -180.9726003 -0.249648E-06  0.490E-04    0.07      21.3  T
   8   -180.9726003 -0.868718E-08  0.219E-04    0.07      47.5  T
     SCC iter.                  ...        0 min,  0.309 sec
     gradient                   ...        0 min,  0.027 sec
 * total energy  :  -178.3673928 Eh     change       -0.3910691E-03 Eh
   gradient norm :     0.0038212 Eh/α   predicted    -0.3190052E-03 ( -18.43%)
   displ. norm   :     0.6379924 α      lambda       -0.3830645E-03
   maximum displ.:     0.4249518 α      in ANC's #3, #4, #1, ...

........................................................................
.............................. CYCLE   35 ..............................
........................................................................

 iter      E             dE          RMSdq      gap      omega  full diag
   1   -180.9733335 -0.180973E+03  0.602E-02    0.07       0.0  T
   2   -180.9728253  0.508180E-03  0.571E-02    0.07       1.0  T
   3   -180.9614665  0.113588E-01  0.221E-01    0.08       1.0  T
   4   -180.9733297 -0.118632E-01  0.961E-03    0.07       1.1  T
   5   -180.9733417 -0.120102E-04  0.334E-03    0.07       3.1  T
   6   -180.9733437 -0.197133E-05  0.134E-03    0.07       7.8  T
   7   -180.9733439 -0.199332E-06  0.494E-04    0.07      21.1  T
   8   -180.9733439 -0.108253E-07  0.223E-04    0.07      46.7  T
     SCC iter.                  ...        0 min,  0.293 sec
     gradient                   ...        0 min,  0.027 sec
 * total energy  :  -178.3677202 Eh     change       -0.3273742E-03 Eh
   gradient norm :     0.0038311 Eh/α   predicted    -0.2694931E-03 ( -17.68%)
   displ. norm   :     0.6115564 α      lambda       -0.2983863E-03
   maximum displ.:     0.4064554 α      in ANC's #3, #1, #4, ...

........................................................................
.............................. CYCLE   36 ..............................
........................................................................

 iter      E             dE          RMSdq      gap      omega  full diag
   1   -180.9732805 -0.180973E+03  0.580E-02    0.07       0.0  T
   2   -180.9716456  0.163495E-02  0.879E-02    0.08       1.0  T
   3   -180.9684353  0.321033E-02  0.143E-01    0.07       1.0  T
   4   -180.9732379 -0.480267E-02  0.172E-02    0.07       1.0  T
   5   -180.9732924 -0.544700E-04  0.709E-03    0.07       1.5  T
   6   -180.9733040 -0.116168E-04  0.163E-03    0.07       6.4  T
   7   -180.9733043 -0.304948E-06  0.764E-04    0.07      13.6  T
   8   -180.9733044 -0.107158E-06  0.227E-04    0.07      45.9  T
     SCC iter.                  ...        0 min,  0.289 sec
     gradient                   ...        0 min,  0.026 sec
 * total energy  :  -178.3679690 Eh     change       -0.2488114E-03 Eh
   gradient norm :     0.0036262 Eh/α   predicted    -0.2049920E-03 ( -17.61%)
   displ. norm   :     0.5510423 α      lambda       -0.2131725E-03
   maximum displ.:     0.3656911 α      in ANC's #3, #1, #4, ...

........................................................................
.............................. CYCLE   37 ..............................
........................................................................

 iter      E             dE          RMSdq      gap      omega  full diag
   1   -180.9737779 -0.180974E+03  0.522E-02    0.07       0.0  T
   2   -180.9713236  0.245438E-02  0.104E-01    0.09       1.0  T
   3   -180.9714757 -0.152138E-03  0.101E-01    0.07       1.0  T
   4   -180.9736924 -0.221673E-02  0.221E-02    0.07       1.0  T
   5   -180.9737972 -0.104817E-03  0.788E-03    0.07       1.3  T
   6   -180.9738120 -0.147527E-04  0.151E-03    0.07       6.9  T
   7   -180.9738122 -0.254704E-06  0.746E-04    0.07      14.0  T
   8   -180.9738124 -0.107560E-06  0.205E-04    0.07      50.8  T
     SCC iter.                  ...        0 min,  0.319 sec
     gradient                   ...        0 min,  0.027 sec
 * total energy  :  -178.3681411 Eh     change       -0.1720662E-03 Eh
   gradient norm :     0.0031994 Eh/α   predicted    -0.1389521E-03 ( -19.24%)
   displ. norm   :     0.4730212 α      lambda       -0.1369277E-03
   maximum displ.:     0.3128282 α      in ANC's #3, #1, #4, ...

........................................................................
.............................. CYCLE   38 ..............................
........................................................................

 iter      E             dE          RMSdq      gap      omega  full diag
   1   -180.9733401 -0.180973E+03  0.443E-02    0.07       0.0  T
   2   -180.9703654  0.297465E-02  0.113E-01    0.09       1.0  T
   3   -180.9723349 -0.196941E-02  0.688E-02    0.07       1.0  T
   4   -180.9732647 -0.929835E-03  0.216E-02    0.07       1.0  T
   5   -180.9733711 -0.106379E-03  0.665E-03    0.07       1.6  T
   6   -180.9733817 -0.106228E-04  0.101E-03    0.07      10.3  T
   7   -180.9733817 -0.418953E-07  0.597E-04    0.07      17.5  T
   8   -180.9733818 -0.607008E-07  0.182E-04    0.07      57.2  T
     SCC iter.                  ...        0 min,  0.265 sec
     gradient                   ...        0 min,  0.026 sec
 * total energy  :  -178.3682475 Eh     change       -0.1064049E-03 Eh
   gradient norm :     0.0024748 Eh/α   predicted    -0.8378758E-04 ( -21.26%)
   displ. norm   :     0.3740584 α      lambda       -0.8832623E-04
   maximum displ.:     0.2451885 α      in ANC's #3, #1, #4, ...

........................................................................
.............................. CYCLE   39 ..............................
........................................................................

 iter      E             dE          RMSdq      gap      omega  full diag
   1   -180.9745962 -0.180975E+03  0.340E-02    0.07       0.0  T
   2   -180.9734245  0.117161E-02  0.715E-02    0.08       1.0  T
   3   -180.9736445 -0.219984E-03  0.649E-02    0.07       1.0  T
   4   -180.9745590 -0.914466E-03  0.147E-02    0.07       1.0  T
   5   -180.9746083 -0.493048E-04  0.424E-03    0.07       2.5  T
   6   -180.9746124 -0.411320E-05  0.860E-04    0.07      12.1  T
   7   -180.9746125 -0.834682E-07  0.329E-04    0.07      31.7  T
   8   -180.9746125 -0.724197E-08  0.136E-04    0.07      76.8  T
     SCC iter.                  ...        0 min,  0.401 sec
     gradient                   ...        0 min,  0.026 sec
 * total energy  :  -178.3683084 Eh     change       -0.6096136E-04 Eh
   gradient norm :     0.0025640 Eh/α   predicted    -0.5034789E-04 ( -17.41%)
   displ. norm   :     0.2817064 α      lambda       -0.5130605E-04
   maximum displ.:     0.1824293 α      in ANC's #3, #1, #4, ...

........................................................................
.............................. CYCLE   40 ..............................
........................................................................

 iter      E             dE          RMSdq      gap      omega  full diag
   1   -180.9738082 -0.180974E+03  0.257E-02    0.07       0.0  T
   2   -180.9726859  0.112235E-02  0.689E-02    0.08       1.0  T
   3   -180.9734879 -0.801984E-03  0.391E-02    0.07       1.0  T
   4   -180.9738017 -0.313829E-03  0.958E-03    0.07       1.1  T
   5   -180.9738216 -0.199089E-04  0.282E-03    0.07       3.7  T
   6   -180.9738234 -0.178565E-05  0.577E-04    0.07      18.1  T
   7   -180.9738234 -0.134825E-07  0.298E-04    0.07      35.0  T
   8   -180.9738234 -0.707274E-08  0.992E-05    0.07     105.1  T
     SCC iter.                  ...        0 min,  0.283 sec
     gradient                   ...        0 min,  0.026 sec
 * total energy  :  -178.3683404 Eh     change       -0.3196939E-04 Eh
   gradient norm :     0.0021389 Eh/α   predicted    -0.2769148E-04 ( -13.38%)
   displ. norm   :     0.1324392 α      lambda       -0.2456394E-04
   maximum displ.:     0.0808632 α      in ANC's #3, #1, #4, ...

........................................................................
.............................. CYCLE   41 ..............................
........................................................................

 iter      E             dE          RMSdq      gap      omega  full diag
   1   -180.9742370 -0.180974E+03  0.127E-02    0.07       0.0  T
   2   -180.9742267  0.102981E-04  0.980E-03    0.07       1.1  T
   3   -180.9734978  0.728936E-03  0.547E-02    0.07       1.0  T
   4   -180.9742355 -0.737717E-03  0.329E-03    0.07       3.2  T
   5   -180.9742372 -0.172073E-05  0.113E-03    0.07       9.2  T
   6   -180.9742375 -0.266185E-06  0.320E-04    0.07      32.5  T
   7   -180.9742375 -0.126606E-07  0.114E-04    0.07      91.3  T
     SCC iter.                  ...        0 min,  0.319 sec
     gradient                   ...        0 min,  0.027 sec
 * total energy  :  -178.3683591 Eh     change       -0.1873284E-04 Eh
   gradient norm :     0.0016796 Eh/α   predicted    -0.1249866E-04 ( -33.28%)
   displ. norm   :     0.1605503 α      lambda       -0.2445676E-04
   maximum displ.:     0.0962698 α      in ANC's #1, #3, #9, ...

........................................................................
.............................. CYCLE   42 ..............................
........................................................................

 iter      E             dE          RMSdq      gap      omega  full diag
   1   -180.9749929 -0.180975E+03  0.221E-02    0.07       0.0  T
   2   -180.9747524  0.240563E-03  0.341E-02    0.07       1.0  T
   3   -180.9744566  0.295791E-03  0.477E-02    0.08       1.0  T
   4   -180.9749901 -0.533497E-03  0.542E-03    0.07       1.9  T
   5   -180.9749959 -0.582512E-05  0.140E-03    0.07       7.5  T
   6   -180.9749963 -0.376520E-06  0.504E-04    0.07      20.7  T
   7   -180.9749963 -0.289929E-07  0.258E-04    0.07      40.5  T
     SCC iter.                  ...        0 min,  0.363 sec
     gradient                   ...        0 min,  0.027 sec
 * total energy  :  -178.3683819 Eh     change       -0.2275116E-04 Eh
   gradient norm :     0.0021110 Eh/α   predicted    -0.1237204E-04 ( -45.62%)
   displ. norm   :     0.0497877 α      lambda       -0.1279646E-04
   maximum displ.:     0.0284854 α      in ANC's #1, #17, #2, ...
 * RMSD in coord.:     1.0434638 α      energy gain  -0.1349864E-01 Eh

generating ANC from model Hessian ...
Using Lindh-Hessian (1995)
 Shifting diagonal of input Hessian by    9.9440699006804051E-003
 Lowest  eigenvalues of input Hessian
    0.000000    0.000000    0.000000    0.000000    0.000000    0.000000
    0.010000    0.010153    0.010263    0.010386    0.010471    0.010800
    0.010992    0.011199    0.011584    0.011823    0.012019    0.012055
 Highest eigenvalues
    2.204594    2.206057    2.299171    2.313240    2.320165    2.334806


........................................................................
.............................. CYCLE   43 ..............................
........................................................................

 iter      E             dE          RMSdq      gap      omega  full diag
   1   -180.9744621 -0.180974E+03  0.916E-03    0.07       0.0  T
   2   -180.9743788  0.832635E-04  0.192E-02    0.07       1.0  T
   3   -180.9744010 -0.221755E-04  0.165E-02    0.08       1.0  T
   4   -180.9744608 -0.598476E-04  0.304E-03    0.07       3.4  T
   5   -180.9744631 -0.228698E-05  0.460E-04    0.07      22.7  T
   6   -180.9744632 -0.393400E-07  0.149E-04    0.07      70.0  T
   7   -180.9744632 -0.106425E-08  0.974E-05    0.07     107.1  T
     SCC iter.                  ...        0 min,  0.247 sec
     gradient                   ...        0 min,  0.026 sec
 * total energy  :  -178.3683925 Eh     change       -0.1058140E-04 Eh
   gradient norm :     0.0015353 Eh/α   predicted     0.0000000E+00 (-100.00%)
   displ. norm   :     0.0376948 α      lambda       -0.1174547E-04
   maximum displ.:     0.0212648 α      in ANC's #1, #25, #8, ...

........................................................................
.............................. CYCLE   44 ..............................
........................................................................

 iter      E             dE          RMSdq      gap      omega  full diag
   1   -180.9744090 -0.180974E+03  0.562E-03    0.07       0.0  T
   2   -180.9744090 -0.713758E-07  0.340E-03    0.07       3.1  T
   3   -180.9743981  0.109807E-04  0.665E-03    0.07       1.6  T
   4   -180.9744048 -0.673386E-05  0.426E-03    0.07       2.4  T
   5   -180.9744091 -0.429489E-05  0.392E-04    0.07      26.6  T
   6   -180.9744091 -0.201386E-07  0.164E-04    0.07      63.4  T
   7   -180.9744091 -0.160176E-08  0.839E-05    0.07     124.3  T
     SCC iter.                  ...        0 min,  0.236 sec
     gradient                   ...        0 min,  0.025 sec
 * total energy  :  -178.3684079 Eh     change       -0.1543352E-04 Eh
   gradient norm :     0.0006149 Eh/α   predicted    -0.6046260E-05 ( -60.82%)
   displ. norm   :     0.1368894 α      lambda       -0.3096720E-04
   maximum displ.:     0.0752058 α      in ANC's #1, #25, #8, ...

........................................................................
.............................. CYCLE   45 ..............................
........................................................................

 iter      E             dE          RMSdq      gap      omega  full diag
   1   -180.9740438 -0.180974E+03  0.180E-02    0.07       0.0  T
   2   -180.9740272  0.165340E-04  0.136E-02    0.07       1.0  T
   3   -180.9726782  0.134903E-02  0.745E-02    0.08       1.0  T
   4   -180.9740441 -0.136588E-02  0.297E-03    0.07       3.5  T
   5   -180.9740451 -0.961988E-06  0.103E-03    0.07      10.1  T
   6   -180.9740452 -0.116910E-06  0.496E-04    0.07      21.0  T
   7   -180.9740452  0.538867E-08  0.366E-04    0.07      28.5  T
     SCC iter.                  ...        0 min,  0.260 sec
     gradient                   ...        0 min,  0.027 sec
 * total energy  :  -178.3684394 Eh     change       -0.3149839E-04 Eh
   gradient norm :     0.0019195 Eh/α   predicted    -0.1561605E-04 ( -50.42%)
   displ. norm   :     0.1171464 α      lambda       -0.1588635E-04
   maximum displ.:     0.0691109 α      in ANC's #1, #8, #25, ...

........................................................................
.............................. CYCLE   46 ..............................
........................................................................

 iter      E             dE          RMSdq      gap      omega  full diag
   1   -180.9740327 -0.180974E+03  0.133E-02    0.07       0.0  T
   2   -180.9740141  0.186409E-04  0.117E-02    0.07       1.0  T
   3   -180.9734010  0.613010E-03  0.509E-02    0.08       1.0  T
   4   -180.9740328 -0.631789E-03  0.237E-03    0.07       4.4  T
   5   -180.9740335 -0.631302E-06  0.768E-04    0.07      13.6  T
   6   -180.9740335 -0.764635E-07  0.383E-04    0.07      27.2  T
     SCC iter.                  ...        0 min,  0.200 sec
     gradient                   ...        0 min,  0.026 sec
 * total energy  :  -178.3684592 Eh     change       -0.1976881E-04 Eh
   gradient norm :     0.0024114 Eh/α   predicted    -0.8179818E-05 ( -58.62%)
   displ. norm   :     0.1112813 α      lambda       -0.2423087E-04
   maximum displ.:     0.0670253 α      in ANC's #1, #8, #25, ...

........................................................................
.............................. CYCLE   47 ..............................
........................................................................

 iter      E             dE          RMSdq      gap      omega  full diag
   1   -180.9741783 -0.180974E+03  0.122E-02    0.07       0.0  T
   2   -180.9739166  0.261627E-03  0.331E-02    0.07       1.0  T
   3   -180.9741084 -0.191757E-03  0.185E-02    0.07       1.0  T
   4   -180.9741809 -0.725117E-04  0.242E-03    0.07       4.3  T
   5   -180.9741816 -0.694924E-06  0.652E-04    0.07      16.0  T
   6   -180.9741817 -0.443597E-07  0.354E-04    0.07      29.5  T
     SCC iter.                  ...        0 min,  0.319 sec
     gradient                   ...        0 min,  0.026 sec
 * total energy  :  -178.3684808 Eh     change       -0.2168034E-04 Eh
   gradient norm :     0.0020013 Eh/α   predicted    -0.1226618E-04 ( -43.42%)
   displ. norm   :     0.2083960 α      lambda       -0.4323226E-04
   maximum displ.:     0.1263741 α      in ANC's #1, #8, #25, ...

........................................................................
.............................. CYCLE   48 ..............................
........................................................................

 iter      E             dE          RMSdq      gap      omega  full diag
   1   -180.9743368 -0.180974E+03  0.231E-02    0.07       0.0  T
   2   -180.9724608  0.187609E-02  0.878E-02    0.07       1.0  T
   3   -180.9742165 -0.175576E-02  0.269E-02    0.07       1.0  T
   4   -180.9743557 -0.139212E-03  0.467E-03    0.07       2.2  T
   5   -180.9743585 -0.276064E-05  0.128E-03    0.07       8.1  T
   6   -180.9743587 -0.187084E-06  0.636E-04    0.07      16.4  T
   7   -180.9743587  0.160730E-07  0.502E-04    0.07      20.8  T
     SCC iter.                  ...        0 min,  0.254 sec
     gradient                   ...        0 min,  0.027 sec
 * total energy  :  -178.3685160 Eh     change       -0.3511348E-04 Eh
   gradient norm :     0.0011426 Eh/α   predicted    -0.2255987E-04 ( -35.75%)
   displ. norm   :     0.3477113 α      lambda       -0.3679388E-04
   maximum displ.:     0.2137437 α      in ANC's #1, #8, #2, ...

........................................................................
.............................. CYCLE   49 ..............................
........................................................................

 iter      E             dE          RMSdq      gap      omega  full diag
   1   -180.9742512 -0.180974E+03  0.387E-02    0.07       0.0  T
   2   -180.9675838  0.666742E-02  0.165E-01    0.08       1.0  T
   3   -180.9740120 -0.642819E-02  0.408E-02    0.07       1.0  T
   4   -180.9743191 -0.307135E-03  0.816E-03    0.07       1.3  T
   5   -180.9743285 -0.939803E-05  0.198E-03    0.07       5.3  T
   6   -180.9743289 -0.373929E-06  0.989E-04    0.07      10.5  T
   7   -180.9743289  0.317510E-07  0.731E-04    0.07      14.3  T
     SCC iter.                  ...        0 min,  0.238 sec
     gradient                   ...        0 min,  0.027 sec
 * total energy  :  -178.3685538 Eh     change       -0.3788918E-04 Eh
   gradient norm :     0.0016718 Eh/α   predicted    -0.1938567E-04 ( -48.84%)
   displ. norm   :     0.1733533 α      lambda       -0.2003231E-04
   maximum displ.:     0.1100061 α      in ANC's #1, #8, #2, ...

........................................................................
.............................. CYCLE   50 ..............................
........................................................................

 iter      E             dE          RMSdq      gap      omega  full diag
   1   -180.9748447 -0.180975E+03  0.197E-02    0.07       0.0  T
   2   -180.9729100  0.193468E-02  0.889E-02    0.07       1.0  T
   3   -180.9747931 -0.188310E-02  0.198E-02    0.07       1.0  T
   4   -180.9748643 -0.712619E-04  0.389E-03    0.07       2.7  T
   5   -180.9748661 -0.176935E-05  0.973E-04    0.07      10.7  T
   6   -180.9748662 -0.102336E-06  0.444E-04    0.07      23.5  T
   7   -180.9748662  0.207478E-09  0.307E-04    0.07      34.0  T
     SCC iter.                  ...        0 min,  0.344 sec
     gradient                   ...        0 min,  0.027 sec
 * total energy  :  -178.3685780 Eh     change       -0.2416605E-04 Eh
   gradient norm :     0.0016780 Eh/α   predicted    -0.1015238E-04 ( -57.99%)
   displ. norm   :     0.2169965 α      lambda       -0.2331900E-04
   maximum displ.:     0.1351818 α      in ANC's #1, #2, #8, ...

........................................................................
.............................. CYCLE   51 ..............................
........................................................................

 iter      E             dE          RMSdq      gap      omega  full diag
   1   -180.9748639 -0.180975E+03  0.248E-02    0.07       0.0  T
   2   -180.9722803  0.258363E-02  0.103E-01    0.07       1.0  T
   3   -180.9747750 -0.249467E-02  0.252E-02    0.07       1.0  T
   4   -180.9748899 -0.114927E-03  0.470E-03    0.07       2.2  T
   5   -180.9748925 -0.262034E-05  0.107E-03    0.07       9.7  T
   6   -180.9748926 -0.962644E-07  0.554E-04    0.07      18.8  T
   7   -180.9748926  0.125758E-08  0.378E-04    0.07      27.6  T
     SCC iter.                  ...        0 min,  0.237 sec
     gradient                   ...        0 min,  0.026 sec
 * total energy  :  -178.3686091 Eh     change       -0.3104273E-04 Eh
   gradient norm :     0.0012219 Eh/α   predicted    -0.1190708E-04 ( -61.64%)
   displ. norm   :     0.2754784 α      lambda       -0.3032799E-04
   maximum displ.:     0.1703583 α      in ANC's #1, #2, #4, ...

[...]
    44   9 F        0.791    -0.186    11.091     3.934
    45   9 F        0.791    -0.178    11.006     3.919
    46   9 F        0.791    -0.190    11.129     3.941
    47   6 C        2.977     0.013    27.724     8.637
    48   6 C        2.980     0.014    27.700     8.633
    49   6 C        2.978     0.003    27.960     8.674
    50   6 C        2.988     0.022    27.504     8.603
    51   6 C        2.988     0.021    27.524     8.606
    52   6 C        2.989     0.011    27.771     8.644
    53   6 C        2.917    -0.032    28.803     8.801
    54   6 C        2.918    -0.027    28.684     8.783
    55   6 C        2.916    -0.023    28.573     8.766
    56   6 C        2.918    -0.033    28.830     8.805
    57   6 C        2.919    -0.033    28.816     8.803
    58   6 C        2.927     0.022    27.522     8.603
    59   6 C        2.923    -0.023    28.590     8.768
    60   6 C        2.923    -0.025    28.630     8.775
    61   6 C        2.917    -0.026    28.649     8.777
    62   6 C        2.889     0.137    25.000     8.197
    63   6 C        2.916    -0.019    28.485     8.752
    64   6 C        2.911    -0.053    29.305     8.877
    65   1 H        0.926     0.047     2.361     2.403
    66   1 H        0.926     0.053     2.287     2.365
    67   1 H        0.926     0.056     2.245     2.343
    68   1 H        0.926     0.055     2.263     2.352
    69   1 H        0.926     0.057     2.229     2.335
    70   1 H        0.926     0.074     2.047     2.237
    71   1 H        0.926     0.057     2.232     2.336
    72   1 H        0.926     0.083     1.951     2.184
    73   8 O        1.710    -0.197    17.285     5.613
    74   6 C        2.884     0.134    25.072     8.209
    75   6 C        2.939     0.021    27.534     8.606
    76   7 N        2.862     0.141    18.849     6.448
    77   6 C        2.987     0.101    25.749     8.324
    78   6 C        2.916    -0.048    29.198     8.861
    79   6 C        2.920    -0.015    28.383     8.736
    80   6 C        2.918    -0.045    29.108     8.847
    81   7 N        1.843    -0.259    27.595     7.785
    82   6 C        2.928     0.153    24.691     8.149
    83   7 N        1.925    -0.243    27.189     7.731
    84   1 H        0.926     0.044     2.393     2.419
    85   1 H        0.926     0.020     2.730     2.584
    86   1 H        0.926     0.087     1.909     2.161
    87   1 H        0.926     0.083     1.943     2.180
    88   1 H        0.926     0.091     1.873     2.140
    89   6 C        3.342     0.485    17.204     6.555
    90   9 F        0.791    -0.185    11.085     3.933
    91   9 F        0.792    -0.182    11.054     3.927
    92   9 F        0.791    -0.215    11.389     3.986

 Mol. C6AA /au·bohr⁶  :     134676.308887
 Mol. C8AA /au·bohr⁸  :    3421233.022314
 Mol. α(0) /au        :        583.750901


Wiberg/Mayer (AO) data.
largest (>0.10) Wiberg bond orders for each atom

 ---------------------------------------------------------------------------
     #   Z sym  total        # sym  WBO       # sym  WBO       # sym  WBO
 ---------------------------------------------------------------------------
     1   6 C    3.979 --     4 C    1.286     3 C    1.241     2 C    1.191
     2   6 C    3.987 --    11 C    1.313     5 C    1.263     1 C    1.191
     3   6 C    3.971 --     6 C    1.249     1 C    1.241    12 C    1.222
     4   6 C    3.969 --     1 C    1.286     8 C    1.250     7 C    1.240
     5   6 C    3.987 --    13 C    1.316     2 C    1.263     9 C    1.222
     6   6 C    3.979 --    14 C    1.307     3 C    1.249    10 C    1.235
     7   6 C    3.979 --     9 C    1.605     4 C    1.240    19 H    0.964
     8   6 C    3.973 --    10 C    1.592     4 C    1.250    20 H    0.964
     9   6 C    3.957 --     7 C    1.605     5 C    1.222    21 H    0.964
    10   6 C    3.965 --     8 C    1.592     6 C    1.235    22 H    0.964
    11   6 C    3.985 --    15 C    1.493     2 C    1.313    39 H    0.963
                            13 C    0.101
    12   6 C    3.944 --    16 C    1.283     3 C    1.222    30 N    1.117
    13   6 C    3.967 --    17 C    1.501     5 C    1.316    23 H    0.965
                            11 C    0.101
    14   6 C    3.932 --    18 C    1.477     6 C    1.307    24 H    0.962
    15   6 C    3.976 --    11 C    1.493    17 C    1.367    38 H    0.968
    16   6 C    3.891 --    18 C    1.340    12 C    1.283    27 O    1.057
    17   6 C    3.976 --    13 C    1.501    15 C    1.367    25 H    0.968
    18   6 C    3.967 --    14 C    1.477    16 C    1.340    26 H    0.963
    19   1 H    0.995 --     7 C    0.964
    20   1 H    0.995 --     8 C    0.964
    21   1 H    0.994 --     9 C    0.964
    22   1 H    0.995 --    10 C    0.964
    23   1 H    0.996 --    13 C    0.965
    24   1 H    0.994 --    14 C    0.962
    25   1 H    0.995 --    17 C    0.968
    26   1 H    0.994 --    18 C    0.963
    27   8 O    2.342 --    16 C    1.057    28 C    1.037
    28   6 C    3.915 --    32 C    1.402    29 C    1.280    27 O    1.037
    29   6 C    3.927 --    28 C    1.280    31 C    1.211    30 N    1.150
    30   7 N    3.684 --    37 N    1.217    29 C    1.150    12 C    1.117
    31   6 C    3.963 --    34 C    1.333    35 N    1.227    29 C    1.211
    32   6 C    3.967 --    28 C    1.402    33 C    1.391    40 H    0.964
    33   6 C    3.963 --    34 C    1.473    32 C    1.391    41 H    0.963
    34   6 C    3.969 --    33 C    1.473    31 C    1.333    42 H    0.959
    35   7 N    2.977 --    36 C    1.483    31 C    1.227
    36   6 C    3.968 --    35 N    1.483    37 N    1.362    43 C    0.923
    37   7 N    2.967 --    36 C    1.362    30 N    1.217
    38   1 H    0.997 --    15 C    0.968
    39   1 H    0.999 --    11 C    0.963
    40   1 H    0.993 --    32 C    0.964
    41   1 H    0.990 --    33 C    0.963
    42   1 H    0.989 --    34 C    0.959
    43   6 C    3.850 --    45 F    0.966    46 F    0.959    44 F    0.956
                            36 C    0.923
    44   9 F    1.089 --    43 C    0.956
    45   9 F    1.097 --    43 C    0.966
    46   9 F    1.085 --    43 C    0.959
    47   6 C    3.979 --    50 C    1.296    49 C    1.234    48 C    1.191
    48   6 C    3.988 --    57 C    1.312    51 C    1.265    47 C    1.191
    49   6 C    3.970 --    52 C    1.255    47 C    1.234    58 C    1.222
    50   6 C    3.974 --    47 C    1.296    54 C    1.249    53 C    1.235
    51   6 C    3.986 --    59 C    1.313    48 C    1.265    55 C    1.224
    52   6 C    3.978 --    60 C    1.297    49 C    1.255    56 C    1.239
    53   6 C    3.982 --    55 C    1.608    50 C    1.235    65 H    0.965
    54   6 C    3.974 --    56 C    1.590    50 C    1.249    66 H    0.965
    55   6 C    3.962 --    53 C    1.608    51 C    1.224    67 H    0.965
    56   6 C    3.967 --    54 C    1.590    52 C    1.239    68 H    0.964
    57   6 C    3.987 --    61 C    1.511    48 C    1.312    85 H    0.965
                            59 C    0.106
    58   6 C    3.945 --    62 C    1.278    49 C    1.222    76 N    1.126
    59   6 C    3.973 --    63 C    1.511    51 C    1.313    69 H    0.966
                            57 C    0.106
    60   6 C    3.927 --    64 C    1.488    52 C    1.297    70 H    0.963
    61   6 C    3.981 --    57 C    1.511    63 C    1.357    84 H    0.970
    62   6 C    3.885 --    64 C    1.333    58 C    1.278    73 O    1.066
    63   6 C    3.976 --    59 C    1.511    61 C    1.357    71 H    0.969
    64   6 C    3.965 --    60 C    1.488    62 C    1.333    72 H    0.962
    65   1 H    0.997 --    53 C    0.965
    66   1 H    0.996 --    54 C    0.965
    67   1 H    0.995 --    55 C    0.965
    68   1 H    0.996 --    56 C    0.964
    69   1 H    0.996 --    59 C    0.966
    70   1 H    0.993 --    60 C    0.963
    71   1 H    0.996 --    63 C    0.969
    72   1 H    0.991 --    64 C    0.962
    73   8 O    2.361 --    62 C    1.066    74 C    1.048
    74   6 C    3.916 --    78 C    1.385    75 C    1.289    73 O    1.048
    75   6 C    3.924 --    74 C    1.289    77 C    1.226    76 N    1.131
    76   7 N    3.649 --    83 N    1.179    75 C    1.131    58 C    1.126
    77   6 C    3.964 --    80 C    1.348    75 C    1.226    81 N    1.202
    78   6 C    3.968 --    79 C    1.410    74 C    1.385    86 H    0.963
    79   6 C    3.964 --    80 C    1.456    78 C    1.410    87 H    0.965
    80   6 C    3.971 --    79 C    1.456    77 C    1.348    88 H    0.962
    81   7 N    2.964 --    82 C    1.471    77 C    1.202
    82   6 C    3.969 --    81 N    1.471    83 N    1.378    89 C    0.923
    83   7 N    2.951 --    82 C    1.378    76 N    1.179
    84   1 H    0.997 --    61 C    0.970
    85   1 H    0.999 --    57 C    0.965
    86   1 H    0.992 --    78 C    0.963
    87   1 H    0.992 --    79 C    0.965
    88   1 H    0.991 --    80 C    0.962
    89   6 C    3.835 --    91 F    0.970    90 F    0.960    92 F    0.934
                            82 C    0.923
    90   9 F    1.091 --    89 C    0.960
    91   9 F    1.095 --    89 C    0.970
    92   9 F    1.060 --    89 C    0.934
 ---------------------------------------------------------------------------

Topologies differ in bond orders
Writing corrected topology to xtbtopo.mol

molecular dipole:
                 x           y           z       tot (Debye)
 q only:       -2.545       1.128       3.647
   full:       -3.047       1.143       3.981      13.069
molecular quadrupole (traceless):
                xx          xy          yy          xz          yz          zz
 q only:       -1.470      18.935       1.349     -24.944     -25.619       0.121
  q+dip:        9.028      18.186      -9.738     -29.888     -34.724       0.711
   full:        1.112      22.443      -7.157     -23.294     -22.389       6.045

           -------------------------------------------------
          |                Geometry Summary                 |
           -------------------------------------------------

      molecular mass/u    :      880.7941744
   center of mass at/Å    :        0.2874914      -0.3973027       1.2926564
  moments of inertia/u·Å² :        0.8098986E+04   0.1160536E+05   0.1304483E+05
rotational constants/cm⁻¹ :        0.2081450E-02   0.1452573E-02   0.1292285E-02

 * 100 selected distances

     #   Z          #   Z                                           value/Å
     1   6 C        3   6 C                                       1.4297590
     1   6 C        4   6 C                                       1.4162973
     2   6 C        5   6 C                                       1.4188033
     3   6 C        6   6 C                                       1.4254920
     4   6 C        7   6 C                                       1.4173154
     4   6 C        8   6 C                                       1.4143803
     5   6 C        9   6 C                                       1.4192720
     7   6 C        9   6 C                                       1.3560556
     6   6 C       10   6 C                                       1.4166633
     8   6 C       10   6 C                                       1.3569761
     2   6 C       11   6 C                                       1.4059782
     3   6 C       12   6 C                                       1.4302354 (max)
     5   6 C       13   6 C                                       1.4039073
     6   6 C       14   6 C                                       1.4029992
    11   6 C       15   6 C                                       1.3749702
    12   6 C       16   6 C                                       1.4094118
    13   6 C       17   6 C                                       1.3727758
    15   6 C       17   6 C                                       1.3939701
    14   6 C       18   6 C                                       1.3721688
    16   6 C       18   6 C                                       1.3922725
     7   6 C       19   1 H                                       1.0794093
     8   6 C       20   1 H                                       1.0793258
     9   6 C       21   1 H                                       1.0791112
    10   6 C       22   1 H                                       1.0789770
    13   6 C       23   1 H                                       1.0794111
    14   6 C       24   1 H                                       1.0783509
    17   6 C       25   1 H                                       1.0783183
    18   6 C       26   1 H                                       1.0778460
    16   6 C       27   8 O                                       1.3609676
    27   8 O       28   6 C                                       1.3629224
    28   6 C       29   6 C                                       1.3974057
    12   6 C       30   7 N                                       1.3828860
    29   6 C       30   7 N                                       1.3736012
    29   6 C       31   6 C                                       1.4221828
    28   6 C       32   6 C                                       1.3836849
    32   6 C       33   6 C                                       1.3923990
    31   6 C       34   6 C                                       1.3949636
    33   6 C       34   6 C                                       1.3795378
    31   6 C       35   7 N                                       1.3563622
    35   7 N       36   6 C                                       1.3041702
    30   7 N       37   7 N                                       1.3148077
    36   6 C       37   7 N                                       1.3256510
    15   6 C       38   1 H                                       1.0782957
    11   6 C       39   1 H                                       1.0800951
    32   6 C       40   1 H                                       1.0777131
    33   6 C       41   1 H                                       1.0778476
    34   6 C       42   1 H                                       1.0765766 (min)
    43   6 C       44   9 F                                       1.3373338
    43   6 C       45   9 F                                       1.3326563
    43   6 C       46   9 F                                       1.3361046
    47   6 C       49   6 C                                       1.4295042
    47   6 C       50   6 C                                       1.4138845
    48   6 C       51   6 C                                       1.4185860
    49   6 C       52   6 C                                       1.4226892
    50   6 C       53   6 C                                       1.4178628
    50   6 C       54   6 C                                       1.4149185
    51   6 C       55   6 C                                       1.4197564
    53   6 C       55   6 C                                       1.3560918
    52   6 C       56   6 C                                       1.4162467
    54   6 C       56   6 C                                       1.3580041
    48   6 C       57   6 C                                       1.4073025
    49   6 C       58   6 C                                       1.4281103
    51   6 C       59   6 C                                       1.4045855
    52   6 C       60   6 C                                       1.4048562
    57   6 C       61   6 C                                       1.3730131
    58   6 C       62   6 C                                       1.4102701
    59   6 C       63   6 C                                       1.3713625
    61   6 C       63   6 C                                       1.3958621
    60   6 C       64   6 C                                       1.3716033
    62   6 C       64   6 C                                       1.3936319
    53   6 C       65   1 H                                       1.0795576
    54   6 C       66   1 H                                       1.0793791
    55   6 C       67   1 H                                       1.0793429
Note: The following floating-point exceptions are signalling: IEEE_UNDERFLOW_FLAG
normal termination of xtb
    56   6 C       68   1 H                                       1.0785399
    59   6 C       69   1 H                                       1.0791821
    60   6 C       70   1 H                                       1.0786900
    63   6 C       71   1 H                                       1.0783282
    64   6 C       72   1 H                                       1.0772676
    62   6 C       73   8 O                                       1.3570304
    73   8 O       74   6 C                                       1.3583071
    74   6 C       75   6 C                                       1.3959364
    58   6 C       76   7 N                                       1.3810776
    75   6 C       76   7 N                                       1.3804047
    75   6 C       77   6 C                                       1.4174558
    74   6 C       78   6 C                                       1.3864109
    78   6 C       79   6 C                                       1.3894144
    77   6 C       80   6 C                                       1.3923312
    79   6 C       80   6 C                                       1.3821785
    77   6 C       81   7 N                                       1.3622943
    81   7 N       82   6 C                                       1.3044688
    76   7 N       83   7 N                                       1.3309688
    82   6 C       83   7 N                                       1.3249541
    61   6 C       84   1 H                                       1.0798774
    57   6 C       85   1 H                                       1.0810210
    78   6 C       86   1 H                                       1.0773070
    79   6 C       87   1 H                                       1.0783281
    80   6 C       88   1 H                                       1.0767974
    89   6 C       90   9 F                                       1.3336759
    89   6 C       91   9 F                                       1.3300418
    89   6 C       92   9 F                                       1.3470660

 * 6 distinct bonds (by element types)

   Z      Z             #   av. dist./Å        max./Å        min./Å
   1 H    6 C          26     1.0786498     1.0810210     1.0765766
   6 C    6 C          52     1.3998413     1.4302354     1.3560556
   6 C    7 N          10     1.3495870     1.3828860     1.3041702
   7 N    7 N           2     1.3228882     1.3309688     1.3148077
   6 C    8 O           4     1.3598069     1.3629224     1.3570304
   6 C    9 F           6     1.3361464     1.3470660     1.3300418


optimized geometry written to: xtbopt.mol


           -------------------------------------------------
          | TOTAL ENERGY             -178.376110665502 Eh   |
          | GRADIENT NORM               0.000191896598 Eh/α |
          | HOMO-LUMO GAP               0.070918252570 eV   |
           -------------------------------------------------
########################################################################
[WARNING] Runtime exception occurred
-1- restart_readRestart: Number of electron missmatch in restart file.
########################################################################

------------------------------------------------------------------------
 * finished run on 2024/11/01 at 13:50:51.740     
------------------------------------------------------------------------
 total:
 * wall-time:     0 d,  0 h,  0 min, 47.132 sec
 *  cpu-time:     0 d,  0 h,  2 min, 18.820 sec
 * ratio c/w:     2.945 speedup
 SCF:
 * wall-time:     0 d,  0 h,  0 min,  0.843 sec
 *  cpu-time:     0 d,  0 h,  0 min,  2.707 sec
 * ratio c/w:     3.212 speedup
 ANC optimizer:
 * wall-time:     0 d,  0 h,  0 min, 46.274 sec
 *  cpu-time:     0 d,  0 h,  2 min, 16.085 sec
 * ratio c/w:     2.941 speedup

