      -----------------------------------------------------------      
     |                   =====================                   |     
     |                           x T B                           |     
     |                   =====================                   |     
     |                         S. Grimme                         |     
     |          Mulliken Center for Theoretical Chemistry        |     
     |                    University of Bonn                     |     
      -----------------------------------------------------------      

   * xtb version 6.6.1 (8d0f1dd) compiled by 'runner@Mac-1690902418499.local' on 2023-08-01

   xtb is free software: you can redistribute it and/or modify it under
   the terms of the GNU Lesser General Public License as published by
   the Free Software Foundation, either version 3 of the License, or
   (at your option) any later version.
   
   xtb is distributed in the hope that it will be useful,
   but WITHOUT ANY WARRANTY; without even the implied warranty of
   MERCHANTABILITY or FITNESS FOR A PARTICULAR PURPOSE.  See the
   GNU Lesser General Public License for more details.
   
   Cite this work as:
   * C. Bannwarth, E. Caldeweyher, S. Ehlert, A. Hansen, P. Pracht,
     J. Seibert, S. Spicher, S. Grimme, WIREs Comput. Mol. Sci., 2020, 11,
     e01493. DOI: 10.1002/wcms.1493
   
   for GFN2-xTB:
   * C. Bannwarth, S. Ehlert and S. Grimme., J. Chem. Theory Comput., 2019,
     15, 1652-1671. DOI: 10.1021/acs.jctc.8b01176
   for GFN1-xTB:
   * S. Grimme, C. Bannwarth, P. Shushkov, J. Chem. Theory Comput., 2017,
     13, 1989-2009. DOI: 10.1021/acs.jctc.7b00118
   for GFN0-xTB:
   * P. Pracht, E. Caldeweyher, S. Ehlert, S. Grimme, ChemRxiv, 2019, preprint.
     DOI: 10.26434/chemrxiv.8326202.v1
   for GFN-FF:
   * S. Spicher and S. Grimme, Angew. Chem. Int. Ed., 2020, 59, 15665-15673.
     DOI: 10.1002/anie.202004239
   
   for ALPB and GBSA implicit solvation:
   * S. Ehlert, M. Stahn, S. Spicher, S. Grimme, J. Chem. Theory Comput.,
     2021, 17, 4250-4261. DOI: 10.1021/acs.jctc.1c00471
   
   for DFT-D4:
   * E. Caldeweyher, C. Bannwarth and S. Grimme, J. Chem. Phys., 2017,
     147, 034112. DOI: 10.1063/1.4993215
   * E. Caldeweyher, S. Ehlert, A. Hansen, H. Neugebauer, S. Spicher,
     C. Bannwarth and S. Grimme, J. Chem. Phys., 2019, 150, 154122.
     DOI: 10.1063/1.5090222
   * E. Caldeweyher, J.-M. Mewes, S. Ehlert and S. Grimme, Phys. Chem. Chem. Phys.
     2020, 22, 8499-8512. DOI: 10.1039/D0CP00502A
   
   for sTDA-xTB:
   * S. Grimme and C. Bannwarth, J. Chem. Phys., 2016, 145, 054103.
     DOI: 10.1063/1.4959605
   
   in the mass-spec context:
   * V. Asgeirsson, C. Bauer and S. Grimme, Chem. Sci., 2017, 8, 4879.
     DOI: 10.1039/c7sc00601b
   * J. Koopman and S. Grimme, ACS Omega 2019, 4, 12, 15120-15133.
     DOI: 10.1021/acsomega.9b02011
   
   for metadynamics refer to:
   * S. Grimme, J. Chem. Theory Comput., 2019, 155, 2847-2862
     DOI: 10.1021/acs.jctc.9b00143
   
   for SPH calculations refer to:
   * S. Spicher and S. Grimme, J. Chem. Theory Comput., 2021, 17, 1701-1714
     DOI: 10.1021/acs.jctc.0c01306
   
   with help from (in alphabetical order)
   P. Atkinson, C. Bannwarth, F. Bohle, G. Brandenburg, E. Caldeweyher
   M. Checinski, S. Dohm, S. Ehlert, S. Ehrlich, I. Gerasimov, C. Hölzer
   A. Katbashev, J. Koopman, C. Lavigne, S. Lehtola, F. März, M. Müller,
   F. Musil, H. Neugebauer, J. Pisarek, C. Plett, P. Pracht, F. Pultar,
   J. Seibert, P. Shushkov, S. Spicher, M. Stahn, M. Steiner, T. Strunk,
   J. Stückrath, T. Rose, and J. Unsleber
   
 * started run on 2024/11/01 at 13:47:31.423     

           -------------------------------------------------
          |                Calculation Setup                |
           -------------------------------------------------

          program call               : xtb opt_radical_Blatter2.mol --gfn2 --sp --chrg 1 --uhf 1
          coordinate file            : opt_radical_Blatter2.mol
          omp threads                :                     8

   ID    Z sym.   atoms
    1    6 C      1-18, 28, 29, 31-34, 36, 43
    2    1 H      19-26, 38-42
    3    8 O      27
    4    7 N      30, 35, 37
    5    9 F      44-46

           -------------------------------------------------
          |                 G F N 2 - x T B                 |
           -------------------------------------------------

        Reference                      10.1021/acs.jctc.8b01176
      * Hamiltonian:
        H0-scaling (s, p, d)           1.850000    2.230000    2.230000
        zeta-weighting                 0.500000
      * Dispersion:
        s8                             2.700000
        a1                             0.520000
        a2                             5.000000
        s9                             5.000000
      * Repulsion:
        kExp                           1.500000    1.000000
        rExp                           1.000000
      * Coulomb:
        alpha                          2.000000
        third order                    shell-resolved
        anisotropic                    true
        a3                             3.000000
        a5                             4.000000
        cn-shift                       1.200000
        cn-exp                         4.000000
        max-rad                        5.000000

q/qsh data taken from xtbrestart
CAMM data taken from xtbrestart

          ...................................................
          :                      SETUP                      :
          :.................................................:
          :  # basis functions                 145          :
          :  # atomic orbitals                 145          :
          :  # shells                           79          :
          :  # electrons                       158          :
          :  max. iterations                   250          :
          :  Hamiltonian                  GFN2-xTB          :
          :  restarted?                       true          :
          :  GBSA solvation                  false          :
          :  PC potential                    false          :
          :  electronic temp.          300.0000000     K    :
          :  accuracy                    1.0000000          :
          :  -> integral cutoff          0.2500000E+02      :
          :  -> integral neglect         0.1000000E-07      :
          :  -> SCF convergence          0.1000000E-05 Eh   :
          :  -> wf. convergence          0.1000000E-03 e    :
          :  Broyden damping             0.4000000          :
          ...................................................

 iter      E             dE          RMSdq      gap      omega  full diag
   1    -90.2240257 -0.902240E+02  0.820E-01    1.14       0.0  T
   2    -90.2241589 -0.133204E-03  0.706E-01    0.35       1.0  T
   3    -90.2445600 -0.204010E-01  0.435E-01    0.81       1.0  T
   4    -90.2504855 -0.592549E-02  0.227E-01    0.53       1.0  T
   5    -90.2508736 -0.388153E-03  0.124E-01    0.52       1.0  T
   6    -90.2514048 -0.531206E-03  0.409E-02    0.54       1.0  T
   7    -90.2514969 -0.920845E-04  0.136E-02    0.55       1.1  T
   8    -90.2515049 -0.804204E-05  0.599E-03    0.55       2.5  T
   9    -90.2515061 -0.120145E-05  0.323E-03    0.55       4.6  T
  10    -90.2515064 -0.212706E-06  0.150E-03    0.55       9.9  T
  11    -90.2515064 -0.878657E-07  0.438E-04    0.55      33.7  T
  12    -90.2515065 -0.540251E-08  0.229E-04    0.55      64.3  T

   *** convergence criteria satisfied after 12 iterations ***

         #    Occupation            Energy/Eh            Energy/eV
      -------------------------------------------------------------
         1        2.0000           -0.9819670             -26.7207
       ...           ...                  ...                  ...
        73        2.0000           -0.5451895             -14.8354
        74        2.0000           -0.5417085             -14.7406
        75        2.0000           -0.5400982             -14.6968
        76        2.0000           -0.5374456             -14.6246
        77        2.0000           -0.5298667             -14.4184
        78        2.0000           -0.5151595             -14.0182
        79        1.9999           -0.5072868             -13.8040 (HOMO)
        80        0.0001           -0.4871615             -13.2563 (LUMO)
        81                         -0.4195360             -11.4162
        82                         -0.4190462             -11.4028
        83                         -0.3969610             -10.8019
        84                         -0.3816158             -10.3843
       ...                                ...                  ...
       145                          0.5794109              15.7666
      -------------------------------------------------------------
                  HL-Gap            0.0201252 Eh            0.5476 eV
             Fermi-level           -0.4972240 Eh          -13.5302 eV

 SCC (total)                   0 d,  0 h,  0 min,  0.401 sec
 SCC setup                      ...        0 min,  0.000 sec (  0.098%)
 Dispersion                     ...        0 min,  0.000 sec (  0.116%)
 classical contributions        ...        0 min,  0.000 sec (  0.040%)
 integral evaluation            ...        0 min,  0.002 sec (  0.591%)
 iterations                     ...        0 min,  0.371 sec ( 92.538%)
 molecular gradient             ...        0 min,  0.016 sec (  4.108%)
 printout                       ...        0 min,  0.010 sec (  2.505%)

         :::::::::::::::::::::::::::::::::::::::::::::::::::::
         ::                     SUMMARY                     ::
         :::::::::::::::::::::::::::::::::::::::::::::::::::::
         :: total energy             -88.954683433852 Eh    ::
         :: gradient norm              0.069602562698 Eh/a0 ::
         :: HOMO-LUMO gap              0.547635696392 eV    ::
         ::.................................................::
         :: SCC energy               -90.251506452604 Eh    ::
         :: -> isotropic ES            0.129972114476 Eh    ::
         :: -> anisotropic ES         -0.006992554018 Eh    ::
         :: -> anisotropic XC          0.025116918027 Eh    ::
         :: -> dispersion             -0.070524370030 Eh    ::
         :: repulsion energy           1.295345049993 Eh    ::
         :: add. restraining           0.000000000000 Eh    ::
         :: total charge               1.000021608040 e     ::
         :::::::::::::::::::::::::::::::::::::::::::::::::::::

           -------------------------------------------------
          |                Property Printout                |
           -------------------------------------------------

    * Orbital Energies and Occupations

         #    Occupation            Energy/Eh            Energy/eV
      -------------------------------------------------------------
         1        2.0000           -0.9819670             -26.7207
       ...           ...                  ...                  ...
        67        2.0000           -0.5813095             -15.8182
        68        2.0000           -0.5744796             -15.6324
        69        2.0000           -0.5733167             -15.6007
        70        2.0000           -0.5662151             -15.4075
        71        2.0000           -0.5614402             -15.2776
        72        2.0000           -0.5554484             -15.1145
        73        2.0000           -0.5451895             -14.8354
        74        2.0000           -0.5417085             -14.7406
        75        2.0000           -0.5400982             -14.6968
        76        2.0000           -0.5374456             -14.6246
        77        2.0000           -0.5298667             -14.4184
        78        2.0000           -0.5151595             -14.0182
        79        1.9999           -0.5072868             -13.8040 (HOMO)
        80        0.0001           -0.4871615             -13.2563 (LUMO)
        81                         -0.4195360             -11.4162
        82                         -0.4190462             -11.4028
        83                         -0.3969610             -10.8019
        84                         -0.3816158             -10.3843
        85                         -0.3659118              -9.9570
        86                         -0.3492668              -9.5040
        87                         -0.3407455              -9.2722
        88                         -0.3198727              -8.7042
        89                         -0.3102389              -8.4420
        90                         -0.2711976              -7.3797
       ...                                ...                  ...
       145                          0.5794109              15.7666
      -------------------------------------------------------------
                  HL-Gap            0.0201252 Eh            0.5476 eV
             Fermi-level           -0.4972240 Eh          -13.5302 eV

     #   Z          covCN         q      C6AA      α(0)
     1   6 C        2.981     0.022    27.510     8.604
     2   6 C        2.983     0.013    27.716     8.636
     3   6 C        2.982     0.012    27.749     8.641
     4   6 C        2.988     0.038    27.141     8.546
     5   6 C        2.989     0.027    27.383     8.584
     6   6 C        2.987     0.022    27.514     8.604
     7   6 C        2.917    -0.026    28.662     8.779
     8   6 C        2.916    -0.019    28.478     8.751
     9   6 C        2.915    -0.010    28.259     8.717
    10   6 C        2.916    -0.021    28.523     8.758
    11   6 C        2.919    -0.033    28.818     8.803
    12   6 C        2.927     0.031    27.302     8.569
    13   6 C        2.922    -0.018    28.468     8.750
    14   6 C        2.921    -0.006    28.164     8.703
    15   6 C        2.917    -0.025    28.637     8.775
    16   6 C        2.885     0.151    24.715     8.150
    17   6 C        2.916    -0.015    28.381     8.736
    18   6 C        2.913    -0.044    29.081     8.843
    19   1 H        0.926     0.070     2.082     2.257
    20   1 H        0.926     0.077     2.008     2.216
    21   1 H        0.926     0.075     2.032     2.229
    22   1 H        0.926     0.075     2.033     2.230
    23   1 H        0.926     0.071     2.078     2.254
    24   1 H        0.926     0.095     1.827     2.114
    25   1 H        0.926     0.070     2.090     2.261
    26   1 H        0.926     0.099     1.794     2.094
    27   8 O        1.709    -0.181    17.035     5.573
    28   6 C        2.880     0.140    24.952     8.189
    29   6 C        2.940     0.031    27.309     8.571
    30   7 N        2.864     0.166    18.458     6.381
    31   6 C        2.984     0.106    25.641     8.306
    32   6 C        2.917    -0.040    28.991     8.829
    33   6 C        2.920    -0.006    28.171     8.704
    34   6 C        2.919    -0.036    28.890     8.814
    35   7 N        1.841    -0.213    26.467     7.624
    36   6 C        2.926     0.163    24.485     8.115
    37   7 N        1.923    -0.190    25.930     7.550
    38   1 H        0.926     0.052     2.296     2.370
    39   1 H        0.925     0.023     2.688     2.564
    40   1 H        0.926     0.102     1.769     2.080
    41   1 H        0.926     0.100     1.788     2.091
    42   1 H        0.926     0.108     1.714     2.047
    43   6 C        3.343     0.485    17.196     6.552
    44   9 F        0.791    -0.181    11.038     3.925
    45   9 F        0.791    -0.176    10.993     3.917
    46   9 F        0.791    -0.186    11.087     3.933

 Mol. C6AA /au·bohr⁶  :      33169.518008
 Mol. C8AA /au·bohr⁸  :     844595.016596
 Mol. α(0) /au        :        289.736589


Wiberg/Mayer (AO) data.
largest (>0.10) Wiberg bond orders for each atom

 ---------------------------------------------------------------------------
     #   Z sym  total        # sym  WBO       # sym  WBO       # sym  WBO
 ---------------------------------------------------------------------------
     1   6 C    3.979 --     4 C    1.274     3 C    1.243     2 C    1.190
     2   6 C    3.988 --    11 C    1.308     5 C    1.266     1 C    1.190
     3   6 C    3.982 --     6 C    1.250     1 C    1.243    12 C    1.218
     4   6 C    3.968 --     1 C    1.274     8 C    1.252     7 C    1.240
     5   6 C    3.987 --    13 C    1.319     2 C    1.266     9 C    1.213
     6   6 C    3.979 --    14 C    1.309     3 C    1.250    10 C    1.233
     7   6 C    3.975 --     9 C    1.602     4 C    1.240    19 H    0.962
     8   6 C    3.969 --    10 C    1.584     4 C    1.252    20 H    0.962
     9   6 C    3.943 --     7 C    1.602     5 C    1.213    21 H    0.963
    10   6 C    3.956 --     8 C    1.584     6 C    1.233    22 H    0.962
    11   6 C    3.989 --    15 C    1.504     2 C    1.308    39 H    0.965
    12   6 C    3.947 --    16 C    1.255     3 C    1.218    30 N    1.143
    13   6 C    3.962 --    17 C    1.493     5 C    1.319    23 H    0.964
    14   6 C    3.936 --    18 C    1.474     6 C    1.309    24 H    0.959
    15   6 C    3.981 --    11 C    1.504    17 C    1.360    38 H    0.969
    16   6 C    3.915 --    18 C    1.346    12 C    1.255    27 O    1.079
    17   6 C    3.976 --    13 C    1.493    15 C    1.360    25 H    0.967
    18   6 C    3.964 --    14 C    1.474    16 C    1.346    26 H    0.958
    19   1 H    0.994 --     7 C    0.962
    20   1 H    0.993 --     8 C    0.962
    21   1 H    0.993 --     9 C    0.963
    22   1 H    0.993 --    10 C    0.962
    23   1 H    0.994 --    13 C    0.964
    24   1 H    0.989 --    14 C    0.959
    25   1 H    0.994 --    17 C    0.967
    26   1 H    0.988 --    18 C    0.958
    27   8 O    2.400 --    16 C    1.079    28 C    1.052
    28   6 C    3.924 --    32 C    1.395    29 C    1.274    27 O    1.052
    29   6 C    3.942 --    28 C    1.274    31 C    1.201    30 N    1.162
    30   7 N    3.772 --    37 N    1.213    29 C    1.162    12 C    1.143
    31   6 C    3.969 --    34 C    1.337    35 N    1.230    29 C    1.201
    32   6 C    3.966 --    33 C    1.397    28 C    1.395    40 H    0.960
    33   6 C    3.965 --    34 C    1.466    32 C    1.397    41 H    0.962
    34   6 C    3.972 --    33 C    1.466    31 C    1.337    42 H    0.958
    35   7 N    3.031 --    36 C    1.478    31 C    1.230
    36   6 C    3.976 --    35 N    1.478    37 N    1.377    43 C    0.925
    37   7 N    3.032 --    36 C    1.377    30 N    1.213
    38   1 H    0.997 --    15 C    0.969
    39   1 H    0.999 --    11 C    0.965
    40   1 H    0.989 --    32 C    0.960
    41   1 H    0.989 --    33 C    0.962
    42   1 H    0.988 --    34 C    0.958
    43   6 C    3.856 --    46 F    0.963    45 F    0.961    44 F    0.959
                            36 C    0.925
    44   9 F    1.093 --    43 C    0.959
    45   9 F    1.095 --    43 C    0.961
    46   9 F    1.089 --    43 C    0.963
 ---------------------------------------------------------------------------

Topologies differ in bond orders
Writing corrected topology to xtbtopo.mol

molecular dipole:
                 x           y           z       tot (Debye)
 q only:       -2.061       0.763      -0.124
   full:       -2.392       0.775      -0.045       6.392
molecular quadrupole (traceless):
                xx          xy          yy          xz          yz          zz
 q only:        8.005      18.309       5.127      -0.311     -34.522     -13.132
  q+dip:       13.888      19.377      -0.917      -0.713     -38.209     -12.971
   full:        8.542      21.019       1.736       1.340     -31.156     -10.278


           -------------------------------------------------
          | TOTAL ENERGY              -88.954683433852 Eh   |
          | GRADIENT NORM               0.069602562698 Eh/α |
          | HOMO-LUMO GAP               0.547635696392 eV   |
           -------------------------------------------------
########################################################################
[WARNING] Runtime exception occurred
-1- restart_readRestart: Number of electron missmatch in restart file.
########################################################################

------------------------------------------------------------------------
 * finished run on 2024/11/01 at 13:47:31.833     
------------------------------------------------------------------------
Note: The following floating-point exceptions are signalling: IEEE_UNDERFLOW_FLAG
normal termination of xtb
 total:
 * wall-time:     0 d,  0 h,  0 min,  0.409 sec
 *  cpu-time:     0 d,  0 h,  0 min,  1.515 sec
 * ratio c/w:     3.700 speedup
 SCF:
 * wall-time:     0 d,  0 h,  0 min,  0.401 sec
 *  cpu-time:     0 d,  0 h,  0 min,  1.502 sec
 * ratio c/w:     3.743 speedup

