      -----------------------------------------------------------      
     |                   =====================                   |     
     |                           x T B                           |     
     |                   =====================                   |     
     |                         S. Grimme                         |     
     |          Mulliken Center for Theoretical Chemistry        |     
     |                    University of Bonn                     |     
      -----------------------------------------------------------      

   * xtb version 6.6.1 (8d0f1dd) compiled by 'runner@Mac-1690902418499.local' on 2023-08-01

   xtb is free software: you can redistribute it and/or modify it under
   the terms of the GNU Lesser General Public License as published by
   the Free Software Foundation, either version 3 of the License, or
   (at your option) any later version.
   
   xtb is distributed in the hope that it will be useful,
   but WITHOUT ANY WARRANTY; without even the implied warranty of
   MERCHANTABILITY or FITNESS FOR A PARTICULAR PURPOSE.  See the
   GNU Lesser General Public License for more details.
   
   Cite this work as:
   * C. Bannwarth, E. Caldeweyher, S. Ehlert, A. Hansen, P. Pracht,
     J. Seibert, S. Spicher, S. Grimme, WIREs Comput. Mol. Sci., 2020, 11,
     e01493. DOI: 10.1002/wcms.1493
   
   for GFN2-xTB:
   * C. Bannwarth, S. Ehlert and S. Grimme., J. Chem. Theory Comput., 2019,
     15, 1652-1671. DOI: 10.1021/acs.jctc.8b01176
   for GFN1-xTB:
   * S. Grimme, C. Bannwarth, P. Shushkov, J. Chem. Theory Comput., 2017,
     13, 1989-2009. DOI: 10.1021/acs.jctc.7b00118
   for GFN0-xTB:
   * P. Pracht, E. Caldeweyher, S. Ehlert, S. Grimme, ChemRxiv, 2019, preprint.
     DOI: 10.26434/chemrxiv.8326202.v1
   for GFN-FF:
   * S. Spicher and S. Grimme, Angew. Chem. Int. Ed., 2020, 59, 15665-15673.
     DOI: 10.1002/anie.202004239
   
   for ALPB and GBSA implicit solvation:
   * S. Ehlert, M. Stahn, S. Spicher, S. Grimme, J. Chem. Theory Comput.,
     2021, 17, 4250-4261. DOI: 10.1021/acs.jctc.1c00471
   
   for DFT-D4:
   * E. Caldeweyher, C. Bannwarth and S. Grimme, J. Chem. Phys., 2017,
     147, 034112. DOI: 10.1063/1.4993215
   * E. Caldeweyher, S. Ehlert, A. Hansen, H. Neugebauer, S. Spicher,
     C. Bannwarth and S. Grimme, J. Chem. Phys., 2019, 150, 154122.
     DOI: 10.1063/1.5090222
   * E. Caldeweyher, J.-M. Mewes, S. Ehlert and S. Grimme, Phys. Chem. Chem. Phys.
     2020, 22, 8499-8512. DOI: 10.1039/D0CP00502A
   
   for sTDA-xTB:
   * S. Grimme and C. Bannwarth, J. Chem. Phys., 2016, 145, 054103.
     DOI: 10.1063/1.4959605
   
   in the mass-spec context:
   * V. Asgeirsson, C. Bauer and S. Grimme, Chem. Sci., 2017, 8, 4879.
     DOI: 10.1039/c7sc00601b
   * J. Koopman and S. Grimme, ACS Omega 2019, 4, 12, 15120-15133.
     DOI: 10.1021/acsomega.9b02011
   
   for metadynamics refer to:
   * S. Grimme, J. Chem. Theory Comput., 2019, 155, 2847-2862
     DOI: 10.1021/acs.jctc.9b00143
   
   for SPH calculations refer to:
   * S. Spicher and S. Grimme, J. Chem. Theory Comput., 2021, 17, 1701-1714
     DOI: 10.1021/acs.jctc.0c01306
   
   with help from (in alphabetical order)
   P. Atkinson, C. Bannwarth, F. Bohle, G. Brandenburg, E. Caldeweyher
   M. Checinski, S. Dohm, S. Ehlert, S. Ehrlich, I. Gerasimov, C. Hölzer
   A. Katbashev, J. Koopman, C. Lavigne, S. Lehtola, F. März, M. Müller,
   F. Musil, H. Neugebauer, J. Pisarek, C. Plett, P. Pracht, F. Pultar,
   J. Seibert, P. Shushkov, S. Spicher, M. Stahn, M. Steiner, T. Strunk,
   J. Stückrath, T. Rose, and J. Unsleber
   
 * started run on 2024/11/01 at 13:47:30.478     

           -------------------------------------------------
          |                Calculation Setup                |
           -------------------------------------------------

          program call               : xtb opt_anion_Blatter2.mol --gfn2 --sp --chrg 0 --uhf 0
          coordinate file            : opt_anion_Blatter2.mol
          omp threads                :                     8

   ID    Z sym.   atoms
    1    6 C      1-18, 28, 29, 31-34, 36, 43
    2    1 H      19-26, 38-42
    3    8 O      27
    4    7 N      30, 35, 37
    5    9 F      44-46
########################################################################
[WARNING] Please study the warnings concerning your input carefully
-1- prog_main: Charge in sdf/mol input was overwritten
########################################################################

           -------------------------------------------------
          |                 G F N 2 - x T B                 |
           -------------------------------------------------

        Reference                      10.1021/acs.jctc.8b01176
      * Hamiltonian:
        H0-scaling (s, p, d)           1.850000    2.230000    2.230000
        zeta-weighting                 0.500000
      * Dispersion:
        s8                             2.700000
        a1                             0.520000
        a2                             5.000000
        s9                             5.000000
      * Repulsion:
        kExp                           1.500000    1.000000
        rExp                           1.000000
      * Coulomb:
        alpha                          2.000000
        third order                    shell-resolved
        anisotropic                    true
        a3                             3.000000
        a5                             4.000000
        cn-shift                       1.200000
        cn-exp                         4.000000
        max-rad                        5.000000

q/qsh data taken from xtbrestart
CAMM data taken from xtbrestart

          ...................................................
          :                      SETUP                      :
          :.................................................:
          :  # basis functions                 145          :
          :  # atomic orbitals                 145          :
          :  # shells                           79          :
          :  # electrons                       159          :
          :  max. iterations                   250          :
          :  Hamiltonian                  GFN2-xTB          :
          :  restarted?                       true          :
          :  GBSA solvation                  false          :
          :  PC potential                    false          :
          :  electronic temp.          300.0000000     K    :
          :  accuracy                    1.0000000          :
          :  -> integral cutoff          0.2500000E+02      :
          :  -> integral neglect         0.1000000E-07      :
          :  -> SCF convergence          0.1000000E-05 Eh   :
          :  -> wf. convergence          0.1000000E-03 e    :
          :  Broyden damping             0.4000000          :
          ...................................................

 iter      E             dE          RMSdq      gap      omega  full diag
   1    -90.6274259 -0.906274E+02  0.646E-01    1.06       0.0  T
   2    -90.6451623 -0.177364E-01  0.488E-01    1.66       1.0  T
   3    -90.6518156 -0.665328E-02  0.269E-01    1.57       1.0  T
   4    -90.6519561 -0.140444E-03  0.228E-01    1.62       1.0  T
   5    -90.6526735 -0.717397E-03  0.799E-02    1.64       1.0  T
   6    -90.6528552 -0.181703E-03  0.261E-02    1.62       1.0  T
   7    -90.6528870 -0.318525E-04  0.759E-03    1.62       1.9  T
   8    -90.6528884 -0.143046E-05  0.364E-03    1.62       4.1  T
   9    -90.6528885 -0.104574E-06  0.175E-03    1.62       8.4  T
  10    -90.6528886 -0.561677E-07  0.486E-04    1.62      30.3  T
  11    -90.6528886 -0.509823E-08  0.251E-04    1.62      58.6  T

   *** convergence criteria satisfied after 11 iterations ***

         #    Occupation            Energy/Eh            Energy/eV
      -------------------------------------------------------------
         1        2.0000           -0.8645978             -23.5269
       ...           ...                  ...                  ...
        74        2.0000           -0.4224800             -11.4963
        75        2.0000           -0.4157716             -11.3137
        76        2.0000           -0.4007139             -10.9040
        77        2.0000           -0.3910818             -10.6419
        78        2.0000           -0.3890965             -10.5879
        79        2.0000           -0.3832321             -10.4283
        80        1.0000           -0.3453753              -9.3981 (HOMO)
        81                         -0.2858397              -7.7781 (LUMO)
        82                         -0.2765014              -7.5240
        83                         -0.2692677              -7.3271
        84                         -0.2507232              -6.8225
        85                         -0.2378850              -6.4732
       ...                                ...                  ...
       145                          0.7032102              19.1353
      -------------------------------------------------------------
                  HL-Gap            0.0595356 Eh            1.6200 eV
             Fermi-level           -0.3399551 Eh           -9.2506 eV

 SCC (total)                   0 d,  0 h,  0 min,  0.201 sec
 SCC setup                      ...        0 min,  0.000 sec (  0.059%)
 Dispersion                     ...        0 min,  0.000 sec (  0.153%)
 classical contributions        ...        0 min,  0.000 sec (  0.041%)
 integral evaluation            ...        0 min,  0.002 sec (  0.891%)
 iterations                     ...        0 min,  0.192 sec ( 95.473%)
 molecular gradient             ...        0 min,  0.006 sec (  2.994%)
 printout                       ...        0 min,  0.001 sec (  0.385%)

         :::::::::::::::::::::::::::::::::::::::::::::::::::::
         ::                     SUMMARY                     ::
         :::::::::::::::::::::::::::::::::::::::::::::::::::::
         :: total energy             -89.364341845936 Eh    ::
         :: gradient norm              0.070624029408 Eh/a0 ::
         :: HOMO-LUMO gap              1.620045750663 eV    ::
         ::.................................................::
         :: SCC energy               -90.652888601534 Eh    ::
         :: -> isotropic ES            0.074692515135 Eh    ::
         :: -> anisotropic ES          0.003072598097 Eh    ::
         :: -> anisotropic XC          0.020853457614 Eh    ::
         :: -> dispersion             -0.072686239698 Eh    ::
         :: repulsion energy           1.287051792025 Eh    ::
         :: add. restraining           0.000000000000 Eh    ::
         :: total charge               0.000029901830 e     ::
         :::::::::::::::::::::::::::::::::::::::::::::::::::::

           -------------------------------------------------
          |                Property Printout                |
           -------------------------------------------------

    * Orbital Energies and Occupations

         #    Occupation            Energy/Eh            Energy/eV
      -------------------------------------------------------------
         1        2.0000           -0.8645978             -23.5269
       ...           ...                  ...                  ...
        68        2.0000           -0.4481797             -12.1956
        69        2.0000           -0.4456314             -12.1262
        70        2.0000           -0.4421145             -12.0305
        71        2.0000           -0.4339961             -11.8096
        72        2.0000           -0.4265193             -11.6062
        73        2.0000           -0.4227125             -11.5026
        74        2.0000           -0.4224800             -11.4963
        75        2.0000           -0.4157716             -11.3137
        76        2.0000           -0.4007139             -10.9040
        77        2.0000           -0.3910818             -10.6419
        78        2.0000           -0.3890965             -10.5879
        79        2.0000           -0.3832321             -10.4283
        80        1.0000           -0.3453753              -9.3981 (HOMO)
        81                         -0.2858397              -7.7781 (LUMO)
        82                         -0.2765014              -7.5240
        83                         -0.2692677              -7.3271
        84                         -0.2507232              -6.8225
        85                         -0.2378850              -6.4732
        86                         -0.2205403              -6.0012
        87                         -0.2025881              -5.5127
        88                         -0.1947974              -5.3007
        89                         -0.1849687              -5.0333
        90                         -0.1456134              -3.9623
        91                         -0.1109634              -3.0195
       ...                                ...                  ...
       145                          0.7032102              19.1353
      -------------------------------------------------------------
                  HL-Gap            0.0595356 Eh            1.6200 eV
             Fermi-level           -0.3399551 Eh           -9.2506 eV

     #   Z          covCN         q      C6AA      α(0)
     1   6 C        2.981     0.014    27.689     8.631
     2   6 C        2.984     0.015    27.677     8.630
     3   6 C        2.983     0.001    27.998     8.680
     4   6 C        2.987     0.019    27.585     8.615
     5   6 C        2.989     0.020    27.558     8.611
     6   6 C        2.985     0.011    27.775     8.645
     7   6 C        2.917    -0.034    28.843     8.807
     8   6 C        2.915    -0.031    28.775     8.796
     9   6 C        2.915    -0.027    28.664     8.779
    10   6 C        2.916    -0.035    28.867     8.810
    11   6 C        2.920    -0.033    28.833     8.806
    12   6 C        2.922     0.034    27.236     8.558
    13   6 C        2.922    -0.029    28.729     8.790
    14   6 C        2.920    -0.036    28.898     8.815
    15   6 C        2.917    -0.030    28.759     8.794
    16   6 C        2.878     0.126    25.231     8.234
    17   6 C        2.916    -0.026    28.644     8.776
    18   6 C        2.914    -0.053    29.329     8.880
    19   1 H        0.925     0.040     2.452     2.449
    20   1 H        0.925     0.043     2.410     2.428
    21   1 H        0.925     0.044     2.397     2.421
    22   1 H        0.925     0.041     2.430     2.438
    23   1 H        0.925     0.043     2.410     2.428
    24   1 H        0.926     0.054     2.270     2.356
    25   1 H        0.926     0.041     2.431     2.438
    26   1 H        0.926     0.063     2.167     2.302
    27   8 O        1.706    -0.240    17.981     5.725
    28   6 C        2.876     0.128    25.184     8.227
    29   6 C        2.936     0.019    27.591     8.615
    30   7 N        2.856     0.096    19.584     6.573
    31   6 C        2.981     0.099    25.808     8.333
    32   6 C        2.918    -0.056    29.386     8.889
    33   6 C        2.918    -0.025    28.640     8.776
    34   6 C        2.922    -0.052    29.285     8.874
    35   7 N        1.841    -0.290    28.376     7.894
    36   6 C        2.919     0.158    24.578     8.130
    37   7 N        1.915    -0.237    27.037     7.709
    38   1 H        0.925     0.031     2.570     2.507
    39   1 H        0.926     0.018     2.769     2.602
    40   1 H        0.926     0.065     2.146     2.291
    41   1 H        0.925     0.058     2.225     2.332
    42   1 H        0.926     0.071     2.075     2.253
    43   6 C        3.347     0.479    17.207     6.543
    44   9 F        0.791    -0.197    11.206     3.954
    45   9 F        0.791    -0.201    11.247     3.962
    46   9 F        0.791    -0.197    11.201     3.953

 Mol. C6AA /au·bohr⁶  :      34194.420292
 Mol. C8AA /au·bohr⁸  :     866008.156596
 Mol. α(0) /au        :        294.061343


Wiberg/Mayer (AO) data.
largest (>0.10) Wiberg bond orders for each atom

 ---------------------------------------------------------------------------
     #   Z sym  total        # sym  WBO       # sym  WBO       # sym  WBO
 ---------------------------------------------------------------------------
     1   6 C    3.985 --     4 C    1.312     3 C    1.229     2 C    1.185
     2   6 C    3.989 --    11 C    1.311     5 C    1.268     1 C    1.185
     3   6 C    3.979 --     6 C    1.248     1 C    1.229    12 C    1.226
     4   6 C    3.980 --     1 C    1.312     7 C    1.239     8 C    1.233
     5   6 C    3.987 --    13 C    1.306     2 C    1.268     9 C    1.228
     6   6 C    3.980 --    14 C    1.330     3 C    1.248    10 C    1.223
     7   6 C    3.984 --     9 C    1.607     4 C    1.239    19 H    0.966
     8   6 C    3.979 --    10 C    1.614     4 C    1.233    20 H    0.966
     9   6 C    3.973 --     7 C    1.607     5 C    1.228    21 H    0.967
    10   6 C    3.975 --     8 C    1.614     6 C    1.223    22 H    0.966
    11   6 C    3.992 --    15 C    1.522     2 C    1.311    39 H    0.966
                            13 C    0.109
    12   6 C    3.958 --    16 C    1.283     3 C    1.226    30 N    1.153
    13   6 C    3.982 --    17 C    1.525     5 C    1.306    23 H    0.967
                            11 C    0.109
    14   6 C    3.949 --    18 C    1.448     6 C    1.330    24 H    0.966
    15   6 C    3.986 --    11 C    1.522    17 C    1.347    38 H    0.971
    16   6 C    3.916 --    18 C    1.374    12 C    1.283    27 O    1.028
    17   6 C    3.982 --    13 C    1.525    15 C    1.347    25 H    0.970
    18   6 C    3.969 --    14 C    1.448    16 C    1.374    26 H    0.965
    19   1 H    0.997 --     7 C    0.966
    20   1 H    0.997 --     8 C    0.966
    21   1 H    0.997 --     9 C    0.967
    22   1 H    0.997 --    10 C    0.966
    23   1 H    0.998 --    13 C    0.967
    24   1 H    0.996 --    14 C    0.966
    25   1 H    0.997 --    17 C    0.970
    26   1 H    0.995 --    18 C    0.965
    27   8 O    2.316 --    28 C    1.032    16 C    1.028
    28   6 C    3.929 --    32 C    1.370    29 C    1.333    27 O    1.032
    29   6 C    3.952 --    28 C    1.333    31 C    1.248    30 N    1.090
    30   7 N    3.651 --    12 C    1.153    37 N    1.126    29 C    1.090
    31   6 C    3.976 --    34 C    1.340    29 C    1.248    35 N    1.202
    32   6 C    3.974 --    33 C    1.423    28 C    1.370    40 H    0.966
    33   6 C    3.981 --    34 C    1.455    32 C    1.423    41 H    0.968
    34   6 C    3.978 --    33 C    1.455    31 C    1.340    42 H    0.966
    35   7 N    2.970 --    36 C    1.407    31 C    1.202    37 N    0.124
    36   6 C    3.972 --    37 N    1.459    35 N    1.407    43 C    0.927
    37   7 N    2.984 --    36 C    1.459    30 N    1.126    35 N    0.124
    38   1 H    0.998 --    15 C    0.971
    39   1 H    0.999 --    11 C    0.966
    40   1 H    0.995 --    32 C    0.966
    41   1 H    0.996 --    33 C    0.968
    42   1 H    0.994 --    34 C    0.966
    43   6 C    3.832 --    46 F    0.958    44 F    0.951    45 F    0.943
                            36 C    0.927
    44   9 F    1.077 --    43 C    0.951
    45   9 F    1.070 --    43 C    0.943
    46   9 F    1.080 --    43 C    0.958
 ---------------------------------------------------------------------------

Topologies differ in bond orders
Writing corrected topology to xtbtopo.mol

molecular dipole:
                 x           y           z       tot (Debye)
 q only:       -1.542       1.566       0.498
   full:       -1.836       1.565       0.587       6.310
molecular quadrupole (traceless):
                xx          xy          yy          xz          yz          zz
 q only:       -0.539      14.472      -0.999       3.285     -16.368       1.538
  q+dip:        5.645      15.512      -6.815       2.393     -21.492       1.170
   full:        0.776      17.054      -4.317       4.140     -14.959       3.541


           -------------------------------------------------
          | TOTAL ENERGY              -89.364341845936 Eh   |
          | GRADIENT NORM               0.070624029408 Eh/α |
          | HOMO-LUMO GAP               1.620045750663 eV   |
           -------------------------------------------------
########################################################################
[WARNING] Runtime exception occurred
-2- restart_readRestart: Multiplicity missmatch in restart file.
-1- restart_readRestart: Number of electron missmatch in restart file.
Note: The following floating-point exceptions are signalling: IEEE_UNDERFLOW_FLAG
normal termination of xtb
########################################################################

------------------------------------------------------------------------
 * finished run on 2024/11/01 at 13:47:30.687     
------------------------------------------------------------------------
 total:
 * wall-time:     0 d,  0 h,  0 min,  0.207 sec
 *  cpu-time:     0 d,  0 h,  0 min,  0.648 sec
 * ratio c/w:     3.125 speedup
 SCF:
 * wall-time:     0 d,  0 h,  0 min,  0.201 sec
 *  cpu-time:     0 d,  0 h,  0 min,  0.638 sec
 * ratio c/w:     3.177 speedup

