      -----------------------------------------------------------      
     |                   =====================                   |     
     |                           x T B                           |     
     |                   =====================                   |     
     |                         S. Grimme                         |     
     |          Mulliken Center for Theoretical Chemistry        |     
     |                    University of Bonn                     |     
      -----------------------------------------------------------      

   * xtb version 6.6.1 (8d0f1dd) compiled by 'runner@Mac-1690902418499.local' on 2023-08-01

   xtb is free software: you can redistribute it and/or modify it under
   the terms of the GNU Lesser General Public License as published by
   the Free Software Foundation, either version 3 of the License, or
   (at your option) any later version.
   
   xtb is distributed in the hope that it will be useful,
   but WITHOUT ANY WARRANTY; without even the implied warranty of
   MERCHANTABILITY or FITNESS FOR A PARTICULAR PURPOSE.  See the
   GNU Lesser General Public License for more details.
   
   Cite this work as:
   * C. Bannwarth, E. Caldeweyher, S. Ehlert, A. Hansen, P. Pracht,
     J. Seibert, S. Spicher, S. Grimme, WIREs Comput. Mol. Sci., 2020, 11,
     e01493. DOI: 10.1002/wcms.1493
   
   for GFN2-xTB:
   * C. Bannwarth, S. Ehlert and S. Grimme., J. Chem. Theory Comput., 2019,
     15, 1652-1671. DOI: 10.1021/acs.jctc.8b01176
   for GFN1-xTB:
   * S. Grimme, C. Bannwarth, P. Shushkov, J. Chem. Theory Comput., 2017,
     13, 1989-2009. DOI: 10.1021/acs.jctc.7b00118
   for GFN0-xTB:
   * P. Pracht, E. Caldeweyher, S. Ehlert, S. Grimme, ChemRxiv, 2019, preprint.
     DOI: 10.26434/chemrxiv.8326202.v1
   for GFN-FF:
   * S. Spicher and S. Grimme, Angew. Chem. Int. Ed., 2020, 59, 15665-15673.
     DOI: 10.1002/anie.202004239
   
   for ALPB and GBSA implicit solvation:
   * S. Ehlert, M. Stahn, S. Spicher, S. Grimme, J. Chem. Theory Comput.,
     2021, 17, 4250-4261. DOI: 10.1021/acs.jctc.1c00471
   
   for DFT-D4:
   * E. Caldeweyher, C. Bannwarth and S. Grimme, J. Chem. Phys., 2017,
     147, 034112. DOI: 10.1063/1.4993215
   * E. Caldeweyher, S. Ehlert, A. Hansen, H. Neugebauer, S. Spicher,
     C. Bannwarth and S. Grimme, J. Chem. Phys., 2019, 150, 154122.
     DOI: 10.1063/1.5090222
   * E. Caldeweyher, J.-M. Mewes, S. Ehlert and S. Grimme, Phys. Chem. Chem. Phys.
     2020, 22, 8499-8512. DOI: 10.1039/D0CP00502A
   
   for sTDA-xTB:
   * S. Grimme and C. Bannwarth, J. Chem. Phys., 2016, 145, 054103.
     DOI: 10.1063/1.4959605
   
   in the mass-spec context:
   * V. Asgeirsson, C. Bauer and S. Grimme, Chem. Sci., 2017, 8, 4879.
     DOI: 10.1039/c7sc00601b
   * J. Koopman and S. Grimme, ACS Omega 2019, 4, 12, 15120-15133.
     DOI: 10.1021/acsomega.9b02011
   
   for metadynamics refer to:
   * S. Grimme, J. Chem. Theory Comput., 2019, 155, 2847-2862
     DOI: 10.1021/acs.jctc.9b00143
   
   for SPH calculations refer to:
   * S. Spicher and S. Grimme, J. Chem. Theory Comput., 2021, 17, 1701-1714
     DOI: 10.1021/acs.jctc.0c01306
   
   with help from (in alphabetical order)
   P. Atkinson, C. Bannwarth, F. Bohle, G. Brandenburg, E. Caldeweyher
   M. Checinski, S. Dohm, S. Ehlert, S. Ehrlich, I. Gerasimov, C. Hölzer
   A. Katbashev, J. Koopman, C. Lavigne, S. Lehtola, F. März, M. Müller,
   F. Musil, H. Neugebauer, J. Pisarek, C. Plett, P. Pracht, F. Pultar,
   J. Seibert, P. Shushkov, S. Spicher, M. Stahn, M. Steiner, T. Strunk,
   J. Stückrath, T. Rose, and J. Unsleber
   
 * started run on 2024/11/01 at 13:49:08.708     

           -------------------------------------------------
          |                Calculation Setup                |
           -------------------------------------------------

          program call               : xtb stacked_dimer_Blatter2.mol --opt --gfn2 --chrg 0 --uhf 1 --tight
          coordinate file            : stacked_dimer_Blatter2.mol
          omp threads                :                     8

   ID    Z sym.   atoms
    1    6 C      1-18, 28, 29, 31-34, 36, 43, 47-64, 74, 75, 77-80, 82, 89
    2    1 H      19-26, 38-42, 65-72, 84-88
    3    8 O      27, 73
    4    7 N      30, 35, 37, 76, 81, 83
    5    9 F      44-46, 90-92
########################################################################
[WARNING] Please study the warnings concerning your input carefully
-1- prog_main_parseArguments: Unknown option '--tight' provided
########################################################################

           -------------------------------------------------
          |                 G F N 2 - x T B                 |
           -------------------------------------------------

        Reference                      10.1021/acs.jctc.8b01176
      * Hamiltonian:
        H0-scaling (s, p, d)           1.850000    2.230000    2.230000
        zeta-weighting                 0.500000
      * Dispersion:
        s8                             2.700000
        a1                             0.520000
        a2                             5.000000
        s9                             5.000000
      * Repulsion:
        kExp                           1.500000    1.000000
        rExp                           1.000000
      * Coulomb:
        alpha                          2.000000
        third order                    shell-resolved
        anisotropic                    true
        a3                             3.000000
        a5                             4.000000
        cn-shift                       1.200000
        cn-exp                         4.000000
        max-rad                        5.000000


          ...................................................
          :                      SETUP                      :
          :.................................................:
          :  # basis functions                 290          :
          :  # atomic orbitals                 290          :
          :  # shells                          158          :
          :  # electrons                       318          :
          :  max. iterations                   250          :
          :  Hamiltonian                  GFN2-xTB          :
          :  restarted?                      false          :
          :  GBSA solvation                  false          :
          :  PC potential                    false          :
          :  electronic temp.          300.0000000     K    :
          :  accuracy                    1.0000000          :
          :  -> integral cutoff          0.2500000E+02      :
          :  -> integral neglect         0.1000000E-07      :
          :  -> SCF convergence          0.1000000E-05 Eh   :
          :  -> wf. convergence          0.1000000E-03 e    :
          :  Broyden damping             0.4000000          :
          ...................................................

 iter      E             dE          RMSdq      gap      omega  full diag
   1   -180.1194742 -0.180119E+03  0.447E+00    0.33       0.0  T
   2   -179.9108752  0.208599E+00  0.321E+00    0.36       1.0  T
   3   -178.7191953  0.119168E+01  0.266E+00    0.08       1.0  T
   4   -179.9124952 -0.119330E+01  0.166E+00    0.25       1.0  T
   5   -180.4632988 -0.550804E+00  0.921E-01    0.69       1.0  T
   6   -180.5629572 -0.996585E-01  0.475E-01    0.28       1.0  T
   7   -180.5748279 -0.118706E-01  0.329E-01    0.24       1.0  T
   8   -180.5774394 -0.261149E-02  0.237E-01    0.19       1.0  T
   9   -180.5716251  0.581425E-02  0.316E-01    0.33       1.0  T
  10   -180.5883025 -0.166774E-01  0.101E-01    0.18       1.0  T
  11   -180.5894619 -0.115943E-02  0.816E-02    0.23       1.0  T
  12   -180.5904832 -0.102132E-02  0.289E-02    0.19       1.0  T
  13   -180.5906582 -0.174972E-03  0.841E-03    0.20       1.2  T
  14   -180.5906645 -0.634766E-05  0.400E-03    0.20       2.6  T
  15   -180.5906598  0.474608E-05  0.546E-03    0.20       1.9  T
  16   -180.5906658 -0.602708E-05  0.734E-04    0.20      14.2  T
  17   -180.5906658 -0.247404E-07  0.403E-04    0.20      25.9  T
  18   -180.5906659 -0.194335E-07  0.268E-04    0.20      39.0  T

   *** convergence criteria satisfied after 18 iterations ***

         #    Occupation            Energy/Eh            Energy/eV
      -------------------------------------------------------------
         1        2.0000           -0.9445357             -25.7021
       ...           ...                  ...                  ...
       153        2.0000           -0.3765962             -10.2477
       154        2.0000           -0.3718210             -10.1178
       155        2.0000           -0.3628044              -9.8724
       156        2.0000           -0.3598141              -9.7910
       157        2.0000           -0.3552147              -9.6659
       158        2.0000           -0.3280264              -8.9261
       159        1.9599           -0.3170691              -8.6279 (HOMO)
       160        0.0373           -0.3096083              -8.4249 (LUMO)
       161        0.0029           -0.3071520              -8.3580
       162                         -0.2881773              -7.8417
       163                         -0.2701081              -7.3500
       164                         -0.2676334              -7.2827
       ...                                ...                  ...
       290                          0.6964871              18.9524
      -------------------------------------------------------------
                  HL-Gap            0.0074607 Eh            0.2030 eV
             Fermi-level           -0.3133745 Eh           -8.5274 eV

 SCC (total)                   0 d,  0 h,  0 min,  0.960 sec
 SCC setup                      ...        0 min,  0.001 sec (  0.092%)
 Dispersion                     ...        0 min,  0.001 sec (  0.128%)
 classical contributions        ...        0 min,  0.000 sec (  0.034%)
 integral evaluation            ...        0 min,  0.006 sec (  0.658%)
 iterations                     ...        0 min,  0.918 sec ( 95.602%)
 molecular gradient             ...        0 min,  0.028 sec (  2.943%)
 printout                       ...        0 min,  0.005 sec (  0.542%)

         :::::::::::::::::::::::::::::::::::::::::::::::::::::
         ::                     SUMMARY                     ::
         :::::::::::::::::::::::::::::::::::::::::::::::::::::
         :: total energy            -177.957791557184 Eh    ::
         :: gradient norm              0.413930814064 Eh/a0 ::
         :: HOMO-LUMO gap              0.203016222717 eV    ::
         ::.................................................::
         :: SCC energy              -180.590665851348 Eh    ::
         :: -> isotropic ES            0.182470244289 Eh    ::
         :: -> anisotropic ES          0.007338865715 Eh    ::
         :: -> anisotropic XC          0.040054659263 Eh    ::
         :: -> dispersion             -0.208000080246 Eh    ::
         :: repulsion energy           2.616596593482 Eh    ::
         :: add. restraining           0.000000000000 Eh    ::
         :: total charge               0.000000000000 e     ::
         :::::::::::::::::::::::::::::::::::::::::::::::::::::

      ----------------------------------------------------------- 
     |                   =====================                   |
     |                        A N C O P T                        |
     |                   =====================                   |
     |               Approximate Normal Coordinate               |
     |                Rational Function Optimizer                |
      ----------------------------------------------------------- 

          ...................................................
          :                      SETUP                      :
          :.................................................:
          :   optimization level            normal          :
          :   max. optcycles                   276          :
          :   ANC micro-cycles                  20          :
          :   degrees of freedom               270          :
          :.................................................:
          :   RF solver                   davidson          :
          :   write xtbopt.log                true          :
          :   linear?                        false          :
          :   energy convergence         0.5000000E-05 Eh   :
          :   grad. convergence          0.1000000E-02 Eh/α :
          :   maxmium RF displ.          1.0000000          :
          :   Hlow (freq-cutoff)         0.1000000E-01      :
          :   Hmax (freq-cutoff)         5.0000000          :
          :   S6 in model hess.         20.0000000          :
          ...................................................

generating ANC from model Hessian ...
Using Lindh-Hessian (1995)
 Shifting diagonal of input Hessian by    9.1768663321879565E-003
 Lowest  eigenvalues of input Hessian
    0.000000    0.000000    0.000000    0.000000    0.000000    0.000000
    0.010000    0.010421    0.011158    0.011443    0.011751    0.012234
    0.012523    0.013141    0.013982    0.014120    0.015074    0.015344
 Highest eigenvalues
    2.238956    2.252558    2.279803    2.292702    2.316882    2.329136


........................................................................
.............................. CYCLE    1 ..............................
........................................................................

 iter      E             dE          RMSdq      gap      omega  full diag
   1   -180.5906659 -0.180591E+03  0.122E-04    0.20       0.0  T
   2   -180.5906658  0.893246E-07  0.615E-04    0.20      16.9  T
   3   -180.5906659 -0.901336E-07  0.918E-05    0.20     113.5  T
     SCC iter.                  ...        0 min,  0.102 sec
     gradient                   ...        0 min,  0.028 sec
 * total energy  :  -177.9577916 Eh     change       -0.8633322E-08 Eh
   gradient norm :     0.4139240 Eh/α   predicted     0.0000000E+00 (-100.00%)
   displ. norm   :     0.6792102 α      lambda       -0.2514119E+00
   maximum displ.:     0.1869271 α      in ANC's #160, #169, #135, ...

........................................................................
.............................. CYCLE    2 ..............................
........................................................................

 iter      E             dE          RMSdq      gap      omega  full diag
   1   -180.6628341 -0.180663E+03  0.680E-01    0.25       0.0  T
   2   -180.5413501  0.121484E+00  0.104E+00    0.59       1.0  T
   3   -180.7307791 -0.189429E+00  0.520E-01    0.49       1.0  T
   4   -180.7421514 -0.113724E-01  0.397E-01    0.41       1.0  T
   5   -180.7572440 -0.150925E-01  0.302E-01    0.22       1.0  T
   6   -180.7684534 -0.112095E-01  0.161E-01    0.23       1.0  T
   7   -180.7718353 -0.338183E-02  0.118E-01    0.29       1.0  T
   8   -180.7745767 -0.274148E-02  0.398E-02    0.26       1.0  T
   9   -180.7747329 -0.156186E-03  0.264E-02    0.26       1.0  T
  10   -180.7748733 -0.140358E-03  0.626E-03    0.25       1.7  T
  11   -180.7748742 -0.889954E-06  0.554E-03    0.25       1.9  T
  12   -180.7748795 -0.533097E-05  0.227E-03    0.25       4.6  T
  13   -180.7748802 -0.651438E-06  0.148E-03    0.25       7.0  T
  14   -180.7748806 -0.408091E-06  0.577E-04    0.25      18.1  T
  15   -180.7748806 -0.647467E-07  0.223E-04    0.25      46.7  T
     SCC iter.                  ...        0 min,  0.649 sec
     gradient                   ...        0 min,  0.027 sec
 * total energy  :  -178.1612814 Eh     change       -0.2034899E+00 Eh
   gradient norm :     0.2644528 Eh/α   predicted    -0.1837093E+00 (  -9.72%)
   displ. norm   :     0.7196605 α      lambda       -0.1781796E+00
   maximum displ.:     0.2158069 α      in ANC's #160, #169, #133, ...

........................................................................
.............................. CYCLE    3 ..............................
........................................................................

 iter      E             dE          RMSdq      gap      omega  full diag
   1   -180.7940587 -0.180794E+03  0.704E-01    0.25       0.0  T
   2   -180.6539102  0.140149E+00  0.106E+00    0.53       1.0  T
   3   -180.8544555 -0.200545E+00  0.614E-01    0.43       1.0  T
   4   -180.8675411 -0.130857E-01  0.460E-01    0.44       1.0  T
   5   -180.9091412 -0.416000E-01  0.226E-01    0.25       1.0  T
   6   -180.8974158  0.117254E-01  0.278E-01    0.25       1.0  T
   7   -180.9111390 -0.137232E-01  0.131E-01    0.29       1.0  T
   8   -180.9139492 -0.281011E-02  0.646E-02    0.27       1.0  T
   9   -180.9144420 -0.492801E-03  0.484E-02    0.27       1.0  T
  10   -180.9149529 -0.510993E-03  0.855E-03    0.26       1.2  T
  11   -180.9149583 -0.534863E-05  0.570E-03    0.26       1.8  T
  12   -180.9149603 -0.196635E-05  0.413E-03    0.26       2.5  T
  13   -180.9149638 -0.351078E-05  0.173E-03    0.26       6.0  T
  14   -180.9149643 -0.561317E-06  0.326E-04    0.26      32.0  T
  15   -180.9149643 -0.986003E-08  0.172E-04    0.26      60.5  T
     SCC iter.                  ...        0 min,  0.647 sec
     gradient                   ...        0 min,  0.032 sec
 * total energy  :  -178.3114674 Eh     change       -0.1501860E+00 Eh
   gradient norm :     0.1959403 Eh/α   predicted    -0.1352305E+00 (  -9.96%)
   displ. norm   :     0.7848411 α      lambda       -0.1421141E+00
   maximum displ.:     0.2118455 α      in ANC's #160, #169, #54, ...

........................................................................
.............................. CYCLE    4 ..............................
........................................................................

 iter      E             dE          RMSdq      gap      omega  full diag
   1   -180.9364461 -0.180936E+03  0.635E-01    0.20       0.0  T
   2   -180.8073477  0.129098E+00  0.106E+00    0.47       1.0  T
   3   -180.9825365 -0.175189E+00  0.521E-01    0.36       1.0  T
   4   -181.0238195 -0.412829E-01  0.218E-01    0.21       1.0  T
   5   -181.0088535  0.149660E-01  0.311E-01    0.22       1.0  T
   6   -181.0108181 -0.196465E-02  0.281E-01    0.21       1.0  T
   7   -181.0263662 -0.155480E-01  0.110E-01    0.23       1.0  T
   8   -181.0285014 -0.213522E-02  0.317E-02    0.22       1.0  T
   9   -181.0286377 -0.136318E-03  0.192E-02    0.21       1.0  T
  10   -181.0286966 -0.588714E-04  0.678E-03    0.21       1.5  T
  11   -181.0287007 -0.413208E-05  0.441E-03    0.21       2.4  T
  12   -181.0287038 -0.312929E-05  0.261E-03    0.21       4.0  T
  13   -181.0287051 -0.130396E-05  0.428E-04    0.21      24.4  T
  14   -181.0287051 -0.156238E-07  0.142E-04    0.21      73.5  T
  15   -181.0287051  0.291152E-08  0.166E-04    0.21      62.6  T
     SCC iter.                  ...        0 min,  0.543 sec
     gradient                   ...        0 min,  0.030 sec
 * total energy  :  -178.4323960 Eh     change       -0.1209286E+00 Eh
   gradient norm :     0.1672114 Eh/α   predicted    -0.1148267E+00 (  -5.05%)
   displ. norm   :     0.7998675 α      lambda       -0.1117676E+00
   maximum displ.:     0.1723264 α      in ANC's #160, #169, #54, ...

........................................................................
.............................. CYCLE    5 ..............................
........................................................................

 iter      E             dE          RMSdq      gap      omega  full diag
   1   -181.0809535 -0.181081E+03  0.472E-01    0.15       0.0  T
   2   -180.9472934  0.133660E+00  0.973E-01    0.64       1.0  T
   3   -181.1010174 -0.153724E+00  0.351E-01    0.21       1.0  T
   4   -181.1171343 -0.161168E-01  0.192E-01    0.14       1.0  T
   5   -181.0766376  0.404967E-01  0.480E-01    0.23       1.0  T
   6   -181.1134534 -0.368157E-01  0.212E-01    0.17       1.0  T
   7   -181.1225915 -0.913815E-02  0.569E-02    0.16       1.0  T
   8   -181.1231384 -0.546926E-03  0.177E-02    0.16       1.0  T
   9   -181.1231625 -0.240471E-04  0.115E-02    0.16       1.0  T
  10   -181.1231757 -0.131805E-04  0.770E-03    0.16       1.4  T
  11   -181.1231794 -0.374776E-05  0.626E-03    0.16       1.7  T
  12   -181.1231870 -0.758599E-05  0.162E-03    0.16       6.4  T
  13   -181.1231875 -0.466898E-06  0.460E-04    0.16      22.7  T
  14   -181.1231875 -0.352473E-07  0.118E-04    0.16      88.4  T
     SCC iter.                  ...        0 min,  0.609 sec
     gradient                   ...        0 min,  0.028 sec
 * total energy  :  -178.5278980 Eh     change       -0.9550202E-01 Eh
   gradient norm :     0.1258229 Eh/α   predicted    -0.9163776E-01 (  -4.05%)
   displ. norm   :     0.7704097 α      lambda       -0.7590984E-01
   maximum displ.:     0.1739477 α      in ANC's #22, #169, #54, ...

........................................................................
.............................. CYCLE    6 ..............................
........................................................................

 iter      E             dE          RMSdq      gap      omega  full diag
   1   -181.1808947 -0.181181E+03  0.288E-01    0.12       0.0  T
   2   -181.0673114  0.113583E+00  0.791E-01    0.41       1.0  T
   3   -181.1812740 -0.113963E+00  0.229E-01    0.14       1.0  T
   4   -181.1724018  0.887219E-02  0.305E-01    0.13       1.0  T
   5   -181.1753700 -0.296829E-02  0.278E-01    0.14       1.0  T
   6   -181.1856484 -0.102783E-01  0.148E-01    0.13       1.0  T
   7   -181.1899958 -0.434742E-02  0.461E-02    0.12       1.0  T
   8   -181.1903733 -0.377533E-03  0.170E-02    0.12       1.0  T
   9   -181.1904125 -0.391753E-04  0.921E-03    0.12       1.1  T
  10   -181.1904280 -0.154604E-04  0.237E-03    0.12       4.4  T
  11   -181.1904289 -0.929114E-06  0.939E-04    0.12      11.1  T
  12   -181.1904290 -0.115712E-06  0.436E-04    0.12      23.9  T
     SCC iter.                  ...        0 min,  0.631 sec
     gradient                   ...        0 min,  0.028 sec
 * total energy  :  -178.5890473 Eh     change       -0.6114928E-01 Eh
   gradient norm :     0.0798740 Eh/α   predicted    -0.6048237E-01 (  -1.09%)
   displ. norm   :     0.7558976 α      lambda       -0.4782603E-01
   maximum displ.:     0.2182410 α      in ANC's #22, #41, #16, ...

........................................................................
.............................. CYCLE    7 ..............................
........................................................................

 iter      E             dE          RMSdq      gap      omega  full diag
   1   -181.2359414 -0.181236E+03  0.186E-01    0.10       0.0  T
   2   -181.1723859  0.635555E-01  0.563E-01    0.17       1.0  T
   3   -181.2166291 -0.442432E-01  0.325E-01    0.13       1.0  T
   4   -181.2362214 -0.195923E-01  0.971E-02    0.11       1.0  T
   5   -181.2373823 -0.116084E-02  0.241E-02    0.10       1.0  T
   6   -181.2373923 -0.998610E-05  0.193E-02    0.11       1.0  T
   7   -181.2374659 -0.735984E-04  0.606E-03    0.10       1.7  T
   8   -181.2374675 -0.161769E-05  0.404E-03    0.10       2.6  T
   9   -181.2374694 -0.189520E-05  0.268E-03    0.10       3.9  T
  10   -181.2374709 -0.155908E-05  0.351E-04    0.10      29.7  T
  11   -181.2374709  0.582369E-07  0.565E-04    0.10      18.4  T
  12   -181.2374709 -0.659376E-07  0.583E-05    0.10     179.0  T
     SCC iter.                  ...        0 min,  0.632 sec
     gradient                   ...        0 min,  0.027 sec
 * total energy  :  -178.6293533 Eh     change       -0.4030600E-01 Eh
   gradient norm :     0.0591588 Eh/α   predicted    -0.3757655E-01 (  -6.77%)
   displ. norm   :     0.7823573 α      lambda       -0.3541195E-01
   maximum displ.:     0.2466982 α      in ANC's #22, #21, #41, ...

........................................................................
.............................. CYCLE    8 ..............................
........................................................................

 iter      E             dE          RMSdq      gap      omega  full diag
   1   -181.2704049 -0.181270E+03  0.152E-01    0.09       0.0  T
   2   -181.2689776  0.142730E-02  0.127E-01    0.09       1.0  T
   3   -181.2066926  0.622850E-01  0.551E-01    0.20       1.0  T
   4   -181.2692454 -0.625527E-01  0.960E-02    0.09       1.0  T
   5   -181.2703337 -0.108831E-02  0.488E-02    0.09       1.0  T
   6   -181.2707565 -0.422781E-03  0.154E-02    0.09       1.0  T
   7   -181.2707433  0.131875E-04  0.171E-02    0.09       1.0  T
   8   -181.2708012 -0.579386E-04  0.566E-03    0.09       1.8  T
   9   -181.2708048 -0.361239E-05  0.349E-03    0.09       3.0  T
  10   -181.2708073 -0.249507E-05  0.903E-04    0.09      11.6  T
  11   -181.2708075 -0.147859E-06  0.356E-04    0.09      29.3  T
  12   -181.2708075 -0.244681E-07  0.631E-05    0.09     165.2  T
     SCC iter.                  ...        0 min,  0.556 sec
     gradient                   ...        0 min,  0.028 sec
 * total energy  :  -178.6594581 Eh     change       -0.3010483E-01 Eh
   gradient norm :     0.0476740 Eh/α   predicted    -0.2854353E-01 (  -5.19%)
   displ. norm   :     0.7901008 α      lambda       -0.2640576E-01
   maximum displ.:     0.2615323 α      in ANC's #22, #21, #20, ...

........................................................................
.............................. CYCLE    9 ..............................
........................................................................

 iter      E             dE          RMSdq      gap      omega  full diag
   1   -181.2928049 -0.181293E+03  0.135E-01    0.08       0.0  T
   2   -181.2809661  0.118388E-01  0.247E-01    0.10       1.0  T
   3   -181.2499699  0.309962E-01  0.451E-01    0.12       1.0  T
   4   -181.2926300 -0.426602E-01  0.576E-02    0.09       1.0  T
   5   -181.2928690 -0.238905E-03  0.292E-02    0.08       1.0  T
   6   -181.2930520 -0.183068E-03  0.672E-03    0.08       1.6  T
   7   -181.2930593 -0.727567E-05  0.238E-03    0.08       4.4  T
   8   -181.2930593  0.724742E-08  0.159E-03    0.08       6.5  T
   9   -181.2930596 -0.297717E-06  0.102E-03    0.08      10.2  T
  10   -181.2930598 -0.214353E-06  0.222E-04    0.08      46.9  T
  11   -181.2930598 -0.584794E-08  0.778E-05    0.08     134.0  T
     SCC iter.                  ...        0 min,  0.457 sec
     gradient                   ...        0 min,  0.028 sec
 * total energy  :  -178.6821015 Eh     change       -0.2264339E-01 Eh
   gradient norm :     0.0394899 Eh/α   predicted    -0.2144491E-01 (  -5.29%)
   displ. norm   :     0.7929854 α      lambda       -0.2023933E-01
   maximum displ.:     0.2629913 α      in ANC's #22, #21, #20, ...

........................................................................
.............................. CYCLE   10 ..............................
........................................................................

 iter      E             dE          RMSdq      gap      omega  full diag
   1   -181.3085162 -0.181309E+03  0.126E-01    0.08       0.0  T
   2   -181.3034410  0.507520E-02  0.169E-01    0.09       1.0  T
   3   -181.2456146  0.578264E-01  0.540E-01    0.13       1.0  T
   4   -181.3075668 -0.619522E-01  0.760E-02    0.08       1.0  T
   5   -181.3084190 -0.852207E-03  0.327E-02    0.08       1.0  T
   6   -181.3086529 -0.233835E-03  0.745E-03    0.08       1.4  T
   7   -181.3086634 -0.105023E-04  0.211E-03    0.08       4.9  T
   8   -181.3086631  0.301197E-06  0.186E-03    0.08       5.6  T
   9   -181.3086637 -0.590155E-06  0.886E-04    0.08      11.8  T
  10   -181.3086638 -0.163392E-06  0.150E-04    0.08      69.3  T
     SCC iter.                  ...        0 min,  0.465 sec
     gradient                   ...        0 min,  0.026 sec
 * total energy  :  -178.6995355 Eh     change       -0.1743397E-01 Eh
   gradient norm :     0.0332302 Eh/α   predicted    -0.1648318E-01 (  -5.45%)
   displ. norm   :     0.7910651 α      lambda       -0.1578164E-01
   maximum displ.:     0.2514715 α      in ANC's #22, #21, #20, ...

........................................................................
.............................. CYCLE   11 ..............................
........................................................................

 iter      E             dE          RMSdq      gap      omega  full diag
   1   -181.3200092 -0.181320E+03  0.125E-01    0.07       0.0  T
   2   -181.3155612  0.444804E-02  0.162E-01    0.07       1.0  T
   3   -181.2680515  0.475097E-01  0.486E-01    0.14       1.0  T
   4   -181.3195508 -0.514994E-01  0.537E-02    0.07       1.0  T
   5   -181.3197825 -0.231680E-03  0.393E-02    0.07       1.0  T
   6   -181.3200535 -0.270990E-03  0.158E-02    0.07       1.0  T
   7   -181.3200794 -0.259407E-04  0.114E-02    0.07       1.0  T
   8   -181.3201093 -0.298364E-04  0.952E-04    0.07      11.0  T
   9   -181.3201086  0.685211E-06  0.184E-03    0.07       5.7  T
  10   -181.3201093 -0.693139E-06  0.628E-04    0.07      16.6  T
  11   -181.3201094 -0.871340E-07  0.114E-04    0.07      91.2  T
     SCC iter.                  ...        0 min,  0.430 sec
     gradient                   ...        0 min,  0.029 sec
 * total energy  :  -178.7131529 Eh     change       -0.1361738E-01 Eh
   gradient norm :     0.0289795 Eh/α   predicted    -0.1282878E-01 (  -5.79%)
   displ. norm   :     0.7868349 α      lambda       -0.1245914E-01
   maximum displ.:     0.2383066 α      in ANC's #21, #22, #20, ...

........................................................................
.............................. CYCLE   12 ..............................
........................................................................

 iter      E             dE          RMSdq      gap      omega  full diag
   1   -181.3289731 -0.181329E+03  0.127E-01    0.07       0.0  T
   2   -181.2963421  0.326310E-01  0.391E-01    0.09       1.0  T
   3   -181.3144804 -0.181383E-01  0.261E-01    0.09       1.0  T
   4   -181.3265581 -0.120777E-01  0.105E-01    0.07       1.0  T
   5   -181.3291268 -0.256868E-02  0.103E-02    0.07       1.0  T
   6   -181.3291205  0.635345E-05  0.103E-02    0.07       1.0  T
   7   -181.3291412 -0.207007E-04  0.342E-03    0.07       3.0  T
   8   -181.3291435 -0.234286E-05  0.659E-04    0.07      15.8  T
   9   -181.3291435  0.448366E-07  0.648E-04    0.07      16.1  T
  10   -181.3291435 -0.868245E-07  0.130E-04    0.07      80.2  T
     SCC iter.                  ...        0 min,  0.374 sec
     gradient                   ...        0 min,  0.028 sec
 * total energy  :  -178.7238803 Eh     change       -0.1072739E-01 Eh
   gradient norm :     0.0250386 Eh/α   predicted    -0.1008636E-01 (  -5.98%)
   displ. norm   :     0.7779836 α      lambda       -0.9781810E-02
   maximum displ.:     0.2304874 α      in ANC's #21, #20, #16, ...

........................................................................
.............................. CYCLE   13 ..............................
........................................................................

 iter      E             dE          RMSdq      gap      omega  full diag
   1   -181.3356028 -0.181336E+03  0.127E-01    0.07       0.0  T
   2   -181.2932578  0.423449E-01  0.441E-01    0.10       1.0  T
   3   -181.3250160 -0.317582E-01  0.225E-01    0.09       1.0  T
   4   -181.3323819 -0.736584E-02  0.119E-01    0.07       1.0  T
   5   -181.3357650 -0.338311E-02  0.125E-02    0.07       1.0  T
   6   -181.3357832 -0.182732E-04  0.768E-03    0.07       1.4  T
   7   -181.3357936 -0.103250E-04  0.296E-03    0.07       3.5  T
   8   -181.3357952 -0.163284E-05  0.857E-04    0.07      12.2  T
   9   -181.3357953 -0.118112E-06  0.307E-04    0.07      34.0  T
  10   -181.3357953 -0.122037E-07  0.113E-04    0.07      92.4  T
     SCC iter.                  ...        0 min,  0.547 sec
     gradient                   ...        0 min,  0.028 sec
 * total energy  :  -178.7322153 Eh     change       -0.8335026E-02 Eh
   gradient norm :     0.0202276 Eh/α   predicted    -0.7851173E-02 (  -5.81%)
   displ. norm   :     0.7658419 α      lambda       -0.7443990E-02
   maximum displ.:     0.2185882 α      in ANC's #16, #21, #20, ...

........................................................................
.............................. CYCLE   14 ..............................
........................................................................

 iter      E             dE          RMSdq      gap      omega  full diag
   1   -181.3408544 -0.181341E+03  0.127E-01    0.08       0.0  T
   2   -181.3095575  0.312969E-01  0.380E-01    0.09       1.0  T
   3   -181.3270624 -0.175049E-01  0.253E-01    0.09       1.0  T
   4   -181.3388655 -0.118031E-01  0.927E-02    0.08       1.0  T
   5   -181.3408780 -0.201255E-02  0.223E-02    0.08       1.0  T
   6   -181.3409851 -0.107066E-03  0.522E-03    0.08       2.0  T
   7   -181.3409880 -0.291849E-05  0.287E-03    0.08       3.6  T
   8   -181.3409894 -0.140952E-05  0.114E-03    0.08       9.1  T
   9   -181.3409897 -0.260795E-06  0.351E-04    0.08      29.7  T
  10   -181.3409897 -0.188061E-07  0.108E-04    0.08      96.6  T
     SCC iter.                  ...        0 min,  0.357 sec
     gradient                   ...        0 min,  0.028 sec
 * total energy  :  -178.7384504 Eh     change       -0.6235152E-02 Eh
   gradient norm :     0.0162712 Eh/α   predicted    -0.5905009E-02 (  -5.29%)
   displ. norm   :     0.7414093 α      lambda       -0.5468094E-02
   maximum displ.:     0.2177058 α      in ANC's #16, #21, #11, ...

........................................................................
.............................. CYCLE   15 ..............................
........................................................................

 iter      E             dE          RMSdq      gap      omega  full diag
   1   -181.3439350 -0.181344E+03  0.121E-01    0.08       0.0  T
   2   -181.3315307  0.124043E-01  0.245E-01    0.08       1.0  T
   3   -181.3173836  0.141470E-01  0.343E-01    0.11       1.0  T
   4   -181.3434427 -0.260590E-01  0.472E-02    0.08       1.0  T
   5   -181.3436738 -0.231124E-03  0.374E-02    0.08       1.0  T
   6   -181.3439955 -0.321717E-03  0.396E-03    0.08       2.6  T
   7   -181.3439931  0.235416E-05  0.446E-03    0.08       2.3  T
   8   -181.3439974 -0.425521E-05  0.109E-03    0.08       9.6  T
   9   -181.3439975 -0.123294E-06  0.778E-04    0.08      13.4  T
  10   -181.3439977 -0.129466E-06  0.950E-05    0.08     109.7  T
     SCC iter.                  ...        0 min,  0.345 sec
     gradient                   ...        0 min,  0.027 sec
 * total energy  :  -178.7429048 Eh     change       -0.4454328E-02 Eh
   gradient norm :     0.0150635 Eh/α   predicted    -0.4236934E-02 (  -4.88%)
   displ. norm   :     0.7150617 α      lambda       -0.3962152E-02
   maximum displ.:     0.2043231 α      in ANC's #16, #17, #20, ...

........................................................................
.............................. CYCLE   16 ..............................
........................................................................

 iter      E             dE          RMSdq      gap      omega  full diag
   1   -181.3465835 -0.181347E+03  0.120E-01    0.08       0.0  T
   2   -181.3461743  0.409154E-03  0.812E-02    0.09       1.0  T
   3   -181.2396221  0.106552E+00  0.684E-01    0.19       1.0  T
   4   -181.3448255 -0.105203E+00  0.856E-02    0.08       1.0  T
   5   -181.3465027 -0.167717E-02  0.212E-02    0.08       1.0  T
   6   -181.3466042 -0.101472E-03  0.212E-03    0.08       4.9  T
   7   -181.3465982  0.599440E-05  0.514E-03    0.08       2.0  T
   8   -181.3466029 -0.474436E-05  0.259E-03    0.08       4.0  T
   9   -181.3466043 -0.133233E-05  0.856E-04    0.08      12.2  T
  10   -181.3466043 -0.718505E-07  0.654E-04    0.08      15.9  T
  11   -181.3466044 -0.986154E-07  0.439E-05    0.08     237.7  T
     SCC iter.                  ...        0 min,  0.428 sec
     gradient                   ...        0 min,  0.026 sec
 * total energy  :  -178.7460350 Eh     change       -0.3130251E-02 Eh
   gradient norm :     0.0152894 Eh/α   predicted    -0.2994028E-02 (  -4.35%)
   displ. norm   :     0.6717042 α      lambda       -0.2862495E-02
   maximum displ.:     0.1906879 α      in ANC's #17, #16, #4, ...

........................................................................
.............................. CYCLE   17 ..............................
........................................................................

 iter      E             dE          RMSdq      gap      omega  full diag
   1   -181.3488291 -0.181349E+03  0.108E-01    0.09       0.0  T
   2   -181.3398376  0.899157E-02  0.206E-01    0.10       1.0  T
   3   -181.3173634  0.224742E-01  0.374E-01    0.11       1.0  T
   4   -181.3484232 -0.310598E-01  0.437E-02    0.09       1.0  T
   5   -181.3488536 -0.430466E-03  0.106E-02    0.09       1.0  T
   6   -181.3488782 -0.246119E-04  0.222E-03    0.09       4.7  T
   7   -181.3488778  0.438679E-06  0.202E-03    0.09       5.2  T
   8   -181.3488784 -0.638024E-06  0.744E-04    0.09      14.0  T
   9   -181.3488785 -0.101486E-06  0.227E-04    0.09      45.9  T
     SCC iter.                  ...        0 min,  0.409 sec
     gradient                   ...        0 min,  0.026 sec
 * total energy  :  -178.7483036 Eh     change       -0.2268571E-02 Eh
   gradient norm :     0.0136893 Eh/α   predicted    -0.2077012E-02 (  -8.44%)
   displ. norm   :     0.6442457 α      lambda       -0.2150204E-02
   maximum displ.:     0.1897735 α      in ANC's #17, #16, #4, ...

........................................................................
.............................. CYCLE   18 ..............................
........................................................................

 iter      E             dE          RMSdq      gap      omega  full diag
   1   -181.3505300 -0.181351E+03  0.101E-01    0.09       0.0  T
   2   -181.3236233  0.269067E-01  0.346E-01    0.13       1.0  T
   3   -181.3436988 -0.200755E-01  0.182E-01    0.09       1.0  T
   4   -181.3505919 -0.689313E-02  0.225E-02    0.09       1.0  T
   5   -181.3505509  0.410273E-04  0.226E-02    0.09       1.0  T
   6   -181.3506700 -0.119153E-03  0.197E-03    0.09       5.3  T
   7   -181.3506702 -0.169022E-06  0.107E-03    0.09       9.8  T
   8   -181.3506702  0.384669E-07  0.819E-04    0.09      12.7  T
   9   -181.3506703 -0.130261E-06  0.216E-04    0.09      48.3  T
     SCC iter.                  ...        0 min,  0.357 sec
     gradient                   ...        0 min,  0.026 sec
 * total energy  :  -178.7500392 Eh     change       -0.1735613E-02 Eh
   gradient norm :     0.0143895 Eh/α   predicted    -0.1521328E-02 ( -12.35%)
   displ. norm   :     0.6358731 α      lambda       -0.1913495E-02
   maximum displ.:     0.2276351 α      in ANC's #4, #17, #16, ...

........................................................................
.............................. CYCLE   19 ..............................
........................................................................

 iter      E             dE          RMSdq      gap      omega  full diag
   1   -181.3541640 -0.181354E+03  0.101E-01    0.10       0.0  T
   2   -181.3173300  0.368340E-01  0.403E-01    0.14       1.0  T
   3   -181.3495172 -0.321873E-01  0.154E-01    0.10       1.0  T
   4   -181.3537126 -0.419533E-02  0.558E-02    0.10       1.0  T
   5   -181.3542843 -0.571710E-03  0.208E-02    0.10       1.0  T
   6   -181.3543834 -0.991797E-04  0.376E-03    0.10       2.8  T
   7   -181.3543852 -0.173966E-05  0.248E-03    0.10       4.2  T
   8   -181.3543863 -0.114663E-05  0.898E-04    0.10      11.6  T
   9   -181.3543865 -0.157115E-06  0.177E-04    0.10      58.8  T
  10   -181.3543865 -0.222178E-08  0.941E-05    0.10     110.8  T
     SCC iter.                  ...        0 min,  0.434 sec
     gradient                   ...        0 min,  0.028 sec
 * total energy  :  -178.7514962 Eh     change       -0.1456973E-02 Eh
   gradient norm :     0.0117570 Eh/α   predicted    -0.1343598E-02 (  -7.78%)
   displ. norm   :     0.6373512 α      lambda       -0.1726369E-02
   maximum displ.:     0.2222744 α      in ANC's #4, #29, #2, ...

........................................................................
.............................. CYCLE   20 ..............................
........................................................................

 iter      E             dE          RMSdq      gap      omega  full diag
   1   -181.3547687 -0.181355E+03  0.897E-02    0.10       0.0  T
   2   -181.3423016  0.124671E-01  0.238E-01    0.12       1.0  T
   3   -181.3455680 -0.326638E-02  0.205E-01    0.10       1.0  T
   4   -181.3547437 -0.917567E-02  0.247E-02    0.10       1.0  T
   5   -181.3548186 -0.749347E-04  0.112E-02    0.10       1.0  T
   6   -181.3548456 -0.269307E-04  0.239E-03    0.10       4.4  T
   7   -181.3548458 -0.220372E-06  0.148E-03    0.10       7.0  T
   8   -181.3548460 -0.255932E-06  0.465E-04    0.10      22.4  T
   9   -181.3548460 -0.866214E-08  0.295E-04    0.10      35.3  T
     SCC iter.                  ...        0 min,  0.317 sec
     gradient                   ...        0 min,  0.028 sec
 * total energy  :  -178.7527378 Eh     change       -0.1241670E-02 Eh
   gradient norm :     0.0166388 Eh/α   predicted    -0.1213826E-02 (  -2.24%)
   displ. norm   :     0.5469454 α      lambda       -0.1375422E-02
   maximum displ.:     0.2356166 α      in ANC's #4, #2, #29, ...
 * RMSD in coord.:     1.2685472 α      energy gain  -0.7949463E+00 Eh

generating ANC from model Hessian ...
Using Lindh-Hessian (1995)
 Shifting diagonal of input Hessian by    9.9170498612769324E-003
 Lowest  eigenvalues of input Hessian
    0.000000    0.000000    0.000000    0.000000    0.000000    0.000000
    0.010000    0.010177    0.010287    0.010410    0.010649    0.010729
    0.011104    0.011257    0.011399    0.011566    0.012107    0.012236
 Highest eigenvalues
    2.180693    2.191424    2.244615    2.279514    2.280906    2.311594


........................................................................
.............................. CYCLE   21 ..............................
........................................................................

 iter      E             dE          RMSdq      gap      omega  full diag
   1   -181.3566026 -0.181357E+03  0.691E-02    0.10       0.0  T
   2   -181.3563937  0.208881E-03  0.509E-02    0.10       1.0  T
   3   -181.3158619  0.405318E-01  0.418E-01    0.15       1.0  T
   4   -181.3565671 -0.407052E-01  0.174E-02    0.10       1.0  T
   5   -181.3565942 -0.270656E-04  0.988E-03    0.10       1.1  T
   6   -181.3566143 -0.200725E-04  0.346E-03    0.10       3.0  T
   7   -181.3566166 -0.236909E-05  0.934E-04    0.10      11.2  T
   8   -181.3566165  0.164269E-06  0.111E-03    0.10       9.4  T
   9   -181.3566168 -0.280176E-06  0.147E-04    0.10      70.8  T
  10   -181.3566168 -0.122370E-08  0.677E-05    0.10     154.1  T
     SCC iter.                  ...        0 min,  0.353 sec
     gradient                   ...        0 min,  0.027 sec
 * total energy  :  -178.7538921 Eh     change       -0.1154284E-02 Eh
   gradient norm :     0.0145019 Eh/α   predicted     0.0000000E+00 (-100.00%)
   displ. norm   :     0.2900653 α      lambda       -0.1807295E-02
   maximum displ.:     0.1404544 α      in ANC's #3, #25, #11, ...

........................................................................
.............................. CYCLE   22 ..............................
........................................................................

 iter      E             dE          RMSdq      gap      omega  full diag
   1   -181.3579550 -0.181358E+03  0.881E-02    0.10       0.0  T
   2   -181.2845482  0.734068E-01  0.566E-01    0.15       1.0  T
   3   -181.3578547 -0.733065E-01  0.638E-02    0.10       1.0  T
   4   -181.3581853 -0.330626E-03  0.268E-02    0.10       1.0  T
   5   -181.3583422 -0.156891E-03  0.694E-03    0.10       1.5  T
   6   -181.3583524 -0.102194E-04  0.169E-03    0.10       6.2  T
   7   -181.3583526 -0.192853E-06  0.119E-03    0.10       8.8  T
   8   -181.3583529 -0.270461E-06  0.290E-04    0.10      36.0  T
   9   -181.3583529  0.775628E-09  0.234E-04    0.10      44.6  T
     SCC iter.                  ...        0 min,  0.345 sec
     gradient                   ...        0 min,  0.026 sec
 * total energy  :  -178.7551563 Eh     change       -0.1264215E-02 Eh
   gradient norm :     0.0073009 Eh/α   predicted    -0.9812423E-03 ( -22.38%)
   displ. norm   :     0.4248410 α      lambda       -0.1430695E-02
   maximum displ.:     0.2120009 α      in ANC's #3, #10, #25, ...

........................................................................
.............................. CYCLE   23 ..............................
........................................................................

 iter      E             dE          RMSdq      gap      omega  full diag
   1   -181.3586148 -0.181359E+03  0.957E-02    0.09       0.0  T
   2   -181.2634652  0.951495E-01  0.645E-01    0.18       1.0  T
   3   -181.3591025 -0.956373E-01  0.525E-02    0.09       1.0  T
   4   -181.3592067 -0.104191E-03  0.160E-02    0.09       1.0  T
   5   -181.3592198 -0.130863E-04  0.116E-02    0.09       1.0  T
   6   -181.3592505 -0.306361E-04  0.178E-03    0.09       5.9  T
   7   -181.3592501  0.383098E-06  0.182E-03    0.09       5.7  T
   8   -181.3592498  0.243126E-06  0.203E-03    0.09       5.1  T
   9   -181.3592507 -0.875976E-06  0.552E-04    0.09      18.9  T
  10   -181.3592507 -0.445183E-07  0.346E-04    0.09      30.1  T
     SCC iter.                  ...        0 min,  0.518 sec
     gradient                   ...        0 min,  0.029 sec
 * total energy  :  -178.7562925 Eh     change       -0.1136177E-02 Eh
   gradient norm :     0.0063295 Eh/α   predicted    -0.8444630E-03 ( -25.68%)
   displ. norm   :     0.5840322 α      lambda       -0.1448407E-02
   maximum displ.:     0.2967891 α      in ANC's #3, #10, #8, ...

........................................................................
.............................. CYCLE   24 ..............................
........................................................................

 iter      E             dE          RMSdq      gap      omega  full diag
   1   -181.3598953 -0.181360E+03  0.910E-02    0.09       0.0  T
   2   -181.3025547  0.573406E-01  0.498E-01    0.13       1.0  T
   3   -181.3589406 -0.563859E-01  0.863E-02    0.09       1.0  T
   4   -181.3600011 -0.106047E-02  0.273E-02    0.09       1.0  T
   5   -181.3601494 -0.148313E-03  0.411E-03    0.09       2.5  T
   6   -181.3601501 -0.702864E-06  0.300E-03    0.09       3.5  T
   7   -181.3601514 -0.132775E-05  0.116E-03    0.09       9.0  T
   8   -181.3601515 -0.123006E-06  0.424E-04    0.09      24.6  T
   9   -181.3601515 -0.173328E-07  0.131E-04    0.09      79.6  T
     SCC iter.                  ...        0 min,  0.352 sec
     gradient                   ...        0 min,  0.026 sec
 * total energy  :  -178.7574840 Eh     change       -0.1191533E-02 Eh
   gradient norm :     0.0093751 Eh/α   predicted    -0.9712255E-03 ( -18.49%)
   displ. norm   :     0.6290406 α      lambda       -0.1321975E-02
   maximum displ.:     0.3402182 α      in ANC's #3, #8, #5, ...

........................................................................
.............................. CYCLE   25 ..............................
........................................................................

 iter      E             dE          RMSdq      gap      omega  full diag
   1   -181.3614236 -0.181361E+03  0.765E-02    0.09       0.0  T
   2   -181.3609490  0.474662E-03  0.641E-02    0.09       1.0  T
   3   -181.2993639  0.615851E-01  0.514E-01    0.13       1.0  T
   4   -181.3613817 -0.620178E-01  0.191E-02    0.09       1.0  T
   5   -181.3614376 -0.559232E-04  0.404E-03    0.09       2.6  T
   6   -181.3614396 -0.203360E-05  0.186E-03    0.09       5.6  T
   7   -181.3614395  0.153831E-06  0.158E-03    0.09       6.6  T
   8   -181.3614399 -0.423454E-06  0.375E-04    0.09      27.8  T
   9   -181.3614399 -0.671770E-08  0.194E-04    0.09      53.8  T
     SCC iter.                  ...        0 min,  0.340 sec
     gradient                   ...        0 min,  0.027 sec
 * total energy  :  -178.7585670 Eh     change       -0.1082944E-02 Eh
   gradient norm :     0.0110535 Eh/α   predicted    -0.9225368E-03 ( -14.81%)
   displ. norm   :     0.6034778 α      lambda       -0.1170339E-02
   maximum displ.:     0.3582543 α      in ANC's #3, #8, #5, ...

........................................................................
.............................. CYCLE   26 ..............................
........................................................................

 iter      E             dE          RMSdq      gap      omega  full diag
   1   -181.3634231 -0.181363E+03  0.830E-02    0.09       0.0  T
   2   -181.2948216  0.686014E-01  0.543E-01    0.19       1.0  T
   3   -181.3636160 -0.687944E-01  0.548E-02    0.09       1.0  T
   4   -181.3634412  0.174787E-03  0.484E-02    0.09       1.0  T
   5   -181.3639897 -0.548512E-03  0.583E-03    0.09       1.8  T
   6   -181.3639874  0.232583E-05  0.585E-03    0.09       1.8  T
   7   -181.3639918 -0.440056E-05  0.420E-03    0.09       2.5  T
   8   -181.3639956 -0.373372E-05  0.122E-03    0.09       8.5  T
   9   -181.3639955  0.994765E-07  0.129E-03    0.09       8.1  T
  10   -181.3639958 -0.376593E-06  0.346E-04    0.09      30.1  T
  11   -181.3639959 -0.267175E-07  0.909E-05    0.09     114.6  T
     SCC iter.                  ...        0 min,  0.385 sec
     gradient                   ...        0 min,  0.028 sec
 * total energy  :  -178.7595389 Eh     change       -0.9719487E-03 Eh
   gradient norm :     0.0084837 Eh/α   predicted    -0.7982826E-03 ( -17.87%)
   displ. norm   :     0.6148457 α      lambda       -0.1042297E-02
   maximum displ.:     0.3889889 α      in ANC's #3, #5, #8, ...

........................................................................
.............................. CYCLE   27 ..............................
........................................................................

 iter      E             dE          RMSdq      gap      omega  full diag
   1   -181.3648093 -0.181365E+03  0.914E-02    0.09       0.0  T
   2   -181.2827241  0.820852E-01  0.597E-01    0.24       1.0  T
   3   -181.3657789 -0.830548E-01  0.372E-02    0.09       1.0  T
   4   -181.3657505  0.283369E-04  0.174E-02    0.09       1.0  T
   5   -181.3656127  0.137807E-03  0.271E-02    0.09       1.0  T
   6   -181.3657493 -0.136543E-03  0.136E-02    0.09       1.0  T
   7   -181.3657832 -0.339411E-04  0.568E-03    0.09       1.8  T
   8   -181.3657853 -0.207223E-05  0.482E-03    0.09       2.2  T
   9   -181.3657903 -0.497997E-05  0.165E-03    0.09       6.3  T
  10   -181.3657909 -0.625379E-06  0.781E-05    0.09     133.5  T
  11   -181.3657909  0.370667E-08  0.132E-04    0.09      79.0  T
     SCC iter.                  ...        0 min,  0.373 sec
     gradient                   ...        0 min,  0.027 sec
 * total energy  :  -178.7604378 Eh     change       -0.8988183E-03 Eh
   gradient norm :     0.0064121 Eh/α   predicted    -0.7181613E-03 ( -20.10%)
   displ. norm   :     0.6386298 α      lambda       -0.9866589E-03
   maximum displ.:     0.4104173 α      in ANC's #3, #5, #8, ...

........................................................................
.............................. CYCLE   28 ..............................
........................................................................

 iter      E             dE          RMSdq      gap      omega  full diag
   1   -181.3659018 -0.181366E+03  0.922E-02    0.09       0.0  T
   2   -181.2828416  0.830602E-01  0.600E-01    0.24       1.0  T
   3   -181.3668918 -0.840502E-01  0.376E-02    0.09       1.0  T
   4   -181.3668855  0.630492E-05  0.159E-02    0.09       1.0  T
   5   -181.3667529  0.132647E-03  0.260E-02    0.09       1.0  T
   6   -181.3668682 -0.115315E-03  0.147E-02    0.09       1.0  T
   7   -181.3669102 -0.420210E-04  0.550E-03    0.09       1.9  T
   8   -181.3669122 -0.195229E-05  0.465E-03    0.09       2.2  T
   9   -181.3669168 -0.462721E-05  0.161E-03    0.09       6.5  T
  10   -181.3669174 -0.598469E-06  0.132E-04    0.09      78.7  T
  11   -181.3669174  0.105607E-08  0.132E-04    0.09      79.1  T
     SCC iter.                  ...        0 min,  0.364 sec
     gradient                   ...        0 min,  0.028 sec
 * total energy  :  -178.7613087 Eh     change       -0.8709298E-03 Eh
   gradient norm :     0.0058316 Eh/α   predicted    -0.6945335E-03 ( -20.25%)
   displ. norm   :     0.6688415 α      lambda       -0.9457806E-03
   maximum displ.:     0.4295612 α      in ANC's #3, #5, #8, ...

........................................................................
.............................. CYCLE   29 ..............................
........................................................................

 iter      E             dE          RMSdq      gap      omega  full diag
   1   -181.3668943 -0.181367E+03  0.873E-02    0.09       0.0  T
   2   -181.2907527  0.761416E-01  0.572E-01    0.22       1.0  T
   3   -181.3672566 -0.765038E-01  0.549E-02    0.09       1.0  T
   4   -181.3672738 -0.172343E-04  0.393E-02    0.09       1.0  T
   5   -181.3676009 -0.327077E-03  0.137E-02    0.09       1.0  T
   6   -181.3676442 -0.433024E-04  0.179E-03    0.09       5.8  T
   7   -181.3676388  0.540228E-05  0.503E-03    0.09       2.1  T
   8   -181.3676412 -0.248670E-05  0.382E-03    0.09       2.7  T
   9   -181.3676443 -0.302769E-05  0.127E-03    0.09       8.2  T
  10   -181.3676447 -0.385175E-06  0.206E-04    0.09      50.6  T
  11   -181.3676447 -0.265624E-08  0.176E-04    0.09      59.2  T
     SCC iter.                  ...        0 min,  0.460 sec
     gradient                   ...        0 min,  0.027 sec
 * total energy  :  -178.7621459 Eh     change       -0.8371626E-03 Eh
   gradient norm :     0.0057457 Eh/α   predicted    -0.6844385E-03 ( -18.24%)
   displ. norm   :     0.6945511 α      lambda       -0.8664131E-03
   maximum displ.:     0.4463000 α      in ANC's #3, #5, #1, ...

........................................................................
.............................. CYCLE   30 ..............................
........................................................................

 iter      E             dE          RMSdq      gap      omega  full diag
   1   -181.3674715 -0.181367E+03  0.809E-02    0.09       0.0  T
   2   -181.3052024  0.622690E-01  0.514E-01    0.18       1.0  T
   3   -181.3666901 -0.614876E-01  0.818E-02    0.09       1.0  T
   4   -181.3673524 -0.662315E-03  0.497E-02    0.10       1.0  T
   5   -181.3678965 -0.544136E-03  0.107E-02    0.09       1.0  T
   6   -181.3679143 -0.177228E-04  0.617E-03    0.09       1.7  T
   7   -181.3679223 -0.804885E-05  0.251E-03    0.09       4.2  T
   8   -181.3679220  0.352151E-06  0.262E-03    0.09       4.0  T
   9   -181.3679235 -0.153352E-05  0.743E-04    0.09      14.0  T
  10   -181.3679236 -0.123507E-06  0.179E-04    0.09      58.3  T
  11   -181.3679236 -0.483467E-08  0.958E-05    0.09     108.8  T
     SCC iter.                  ...        0 min,  0.370 sec
     gradient                   ...        0 min,  0.027 sec
 * total energy  :  -178.7629083 Eh     change       -0.7624454E-03 Eh
   gradient norm :     0.0054748 Eh/α   predicted    -0.6421862E-03 ( -15.77%)
   displ. norm   :     0.6979770 α      lambda       -0.7531418E-03
   maximum displ.:     0.4518986 α      in ANC's #3, #5, #1, ...

........................................................................
.............................. CYCLE   31 ..............................
........................................................................

 iter      E             dE          RMSdq      gap      omega  full diag
   1   -181.3684662 -0.181368E+03  0.755E-02    0.10       0.0  T
   2   -181.3205382  0.479280E-01  0.450E-01    0.16       1.0  T
   3   -181.3668943 -0.463560E-01  0.965E-02    0.10       1.0  T
   4   -181.3684642 -0.156997E-02  0.358E-02    0.10       1.0  T
   5   -181.3686595 -0.195281E-03  0.188E-02    0.10       1.0  T
   6   -181.3687423 -0.827391E-04  0.304E-03    0.10       3.4  T
   7   -181.3687443 -0.200854E-05  0.944E-04    0.10      11.0  T
   8   -181.3687429  0.140101E-05  0.250E-03    0.10       4.2  T
   9   -181.3687444 -0.149575E-05  0.146E-04    0.10      71.5  T
  10   -181.3687443  0.175616E-07  0.300E-04    0.10      34.7  T
  11   -181.3687444 -0.209051E-07  0.198E-05    0.10     525.9  T
     SCC iter.                  ...        0 min,  0.382 sec
     gradient                   ...        0 min,  0.026 sec
 * total energy  :  -178.7635619 Eh     change       -0.6536451E-03 Eh
   gradient norm :     0.0052672 Eh/α   predicted    -0.5600288E-03 ( -14.32%)
   displ. norm   :     0.7164245 α      lambda       -0.6627918E-03
   maximum displ.:     0.4624991 α      in ANC's #3, #5, #1, ...

........................................................................
.............................. CYCLE   32 ..............................
........................................................................

 iter      E             dE          RMSdq      gap      omega  full diag
   1   -181.3666087 -0.181367E+03  0.697E-02    0.10       0.0  T
   2   -181.3442121  0.223966E-01  0.307E-01    0.12       1.0  T
   3   -181.3632526 -0.190406E-01  0.127E-01    0.10       1.0  T
   4   -181.3666942 -0.344152E-02  0.137E-02    0.10       1.0  T
   5   -181.3666325  0.617053E-04  0.187E-02    0.10       1.0  T
   6   -181.3667127 -0.802068E-04  0.390E-03    0.10       2.7  T
   7   -181.3667156 -0.296474E-05  0.963E-04    0.10      10.8  T
   8   -181.3667157 -0.102797E-06  0.358E-04    0.10      29.1  T
   9   -181.3667157 -0.854590E-08  0.180E-04    0.10      57.8  T
     SCC iter.                  ...        0 min,  0.314 sec
     gradient                   ...        0 min,  0.026 sec
 * total energy  :  -178.7640580 Eh     change       -0.4960242E-03 Eh
   gradient norm :     0.0086492 Eh/α   predicted    -0.5014896E-03 (   1.10%)
   displ. norm   :     0.6441239 α      lambda       -0.6950101E-03
   maximum displ.:     0.4210366 α      in ANC's #3, #1, #5, ...

........................................................................
.............................. CYCLE   33 ..............................
........................................................................

 iter      E             dE          RMSdq      gap      omega  full diag
   1   -181.3699473 -0.181370E+03  0.699E-02    0.10       0.0  T
   2   -181.3304524  0.394949E-01  0.407E-01    0.15       1.0  T
   3   -181.3686005 -0.381481E-01  0.888E-02    0.10       1.0  T
   4   -181.3700767 -0.147612E-02  0.206E-02    0.10       1.0  T
   5   -181.3701022 -0.255462E-04  0.153E-02    0.10       1.0  T
   6   -181.3701592 -0.570452E-04  0.150E-03    0.10       7.0  T
   7   -181.3701594 -0.173070E-06  0.103E-03    0.10      10.1  T
   8   -181.3701592  0.216356E-06  0.126E-03    0.10       8.2  T
   9   -181.3701596 -0.376076E-06  0.146E-04    0.10      71.6  T
  10   -181.3701596 -0.396199E-09  0.122E-04    0.10      85.3  T
     SCC iter.                  ...        0 min,  0.348 sec
     gradient                   ...        0 min,  0.028 sec
 * total energy  :  -178.7645500 Eh     change       -0.4920190E-03 Eh
   gradient norm :     0.0063126 Eh/α   predicted    -0.4916853E-03 (  -0.07%)
   displ. norm   :     0.6555091 α      lambda       -0.4420922E-03
   maximum displ.:     0.4291250 α      in ANC's #3, #1, #5, ...

........................................................................
.............................. CYCLE   34 ..............................
........................................................................

 iter      E             dE          RMSdq      gap      omega  full diag
   1   -181.3690524 -0.181369E+03  0.630E-02    0.10       0.0  T
   2   -181.3414004  0.276520E-01  0.340E-01    0.13       1.0  T
   3   -181.3676497 -0.262493E-01  0.870E-02    0.10       1.0  T
   4   -181.3691516 -0.150188E-02  0.138E-02    0.10       1.0  T
   5   -181.3691312  0.203614E-04  0.146E-02    0.10       1.0  T
   6   -181.3691817 -0.505341E-04  0.208E-03    0.10       5.0  T
   7   -181.3691823 -0.516363E-06  0.105E-03    0.10       9.9  T
   8   -181.3691823 -0.289920E-07  0.909E-04    0.10      11.5  T
   9   -181.3691825 -0.188190E-06  0.165E-04    0.10      63.3  T
     SCC iter.                  ...        0 min,  0.344 sec
     gradient                   ...        0 min,  0.026 sec
 * total energy  :  -178.7649378 Eh     change       -0.3878069E-03 Eh
   gradient norm :     0.0053281 Eh/α   predicted    -0.3160316E-03 ( -18.51%)
   displ. norm   :     0.6453748 α      lambda       -0.4268152E-03
   maximum displ.:     0.4219548 α      in ANC's #3, #1, #2, ...

........................................................................
.............................. CYCLE   35 ..............................
........................................................................

 iter      E             dE          RMSdq      gap      omega  full diag
   1   -181.3706456 -0.181371E+03  0.630E-02    0.10       0.0  T
   2   -181.3446305  0.260151E-01  0.330E-01    0.13       1.0  T
   3   -181.3693159 -0.246854E-01  0.848E-02    0.10       1.0  T
   4   -181.3707289 -0.141300E-02  0.150E-02    0.10       1.0  T
   5   -181.3707241  0.484790E-05  0.135E-02    0.10       1.0  T
   6   -181.3707667 -0.426272E-04  0.227E-03    0.10       4.6  T
   7   -181.3707674 -0.735079E-06  0.998E-04    0.10      10.4  T
   8   -181.3707674  0.621787E-08  0.927E-04    0.10      11.2  T
     SCC iter.                  ...        0 min,  0.272 sec
     gradient                   ...        0 min,  0.026 sec
 * total energy  :  -178.7652989 Eh     change       -0.3611090E-03 Eh
   gradient norm :     0.0038271 Eh/α   predicted    -0.3022995E-03 ( -16.29%)
   displ. norm   :     0.6491444 α      lambda       -0.3534555E-03
   maximum displ.:     0.4208701 α      in ANC's #3, #1, #2, ...

........................................................................
.............................. CYCLE   36 ..............................
........................................................................

 iter      E             dE          RMSdq      gap      omega  full diag
   1   -181.3710433 -0.181371E+03  0.671E-02    0.11       0.0  T
   2   -181.3389344  0.321088E-01  0.367E-01    0.14       1.0  T
   3   -181.3699060 -0.309716E-01  0.815E-02    0.11       1.0  T
   4   -181.3711212 -0.121522E-02  0.205E-02    0.11       1.0  T
   5   -181.3711588 -0.376113E-04  0.139E-02    0.11       1.0  T
   6   -181.3712050 -0.461803E-04  0.138E-03    0.11       7.6  T
   7   -181.3712050 -0.200991E-07  0.902E-04    0.11      11.6  T
   8   -181.3712047  0.333296E-06  0.140E-03    0.11       7.4  T
   9   -181.3712052 -0.481177E-06  0.956E-05    0.11     109.1  T
     SCC iter.                  ...        0 min,  0.334 sec
     gradient                   ...        0 min,  0.027 sec
 * total energy  :  -178.7655861 Eh     change       -0.2872255E-03 Eh
   gradient norm :     0.0034723 Eh/α   predicted    -0.2512021E-03 ( -12.54%)
   displ. norm   :     0.5842229 α      lambda       -0.2313799E-03
   maximum displ.:     0.3758482 α      in ANC's #3, #1, #2, ...

........................................................................
.............................. CYCLE   37 ..............................
........................................................................

 iter      E             dE          RMSdq      gap      omega  full diag
   1   -181.3713471 -0.181371E+03  0.653E-02    0.11       0.0  T
   2   -181.3241587  0.471884E-01  0.445E-01    0.17       1.0  T
   3   -181.3712296 -0.470710E-01  0.515E-02    0.11       1.0  T
   4   -181.3715287 -0.299057E-03  0.219E-02    0.11       1.0  T
   5   -181.3716213 -0.925814E-04  0.743E-03    0.11       1.4  T
   6   -181.3716332 -0.119012E-04  0.200E-03    0.11       5.2  T
   7   -181.3716339 -0.770402E-06  0.756E-04    0.11      13.8  T
   8   -181.3716335  0.461108E-06  0.146E-03    0.11       7.1  T
   9   -181.3716340 -0.516002E-06  0.231E-04    0.11      45.2  T
     SCC iter.                  ...        0 min,  0.305 sec
     gradient                   ...        0 min,  0.027 sec
 * total energy  :  -178.7657663 Eh     change       -0.1801495E-03 Eh
   gradient norm :     0.0033288 Eh/α   predicted    -0.1551813E-03 ( -13.86%)
   displ. norm   :     0.4643410 α      lambda       -0.1297371E-03
   maximum displ.:     0.2953371 α      in ANC's #3, #1, #2, ...

........................................................................
.............................. CYCLE   38 ..............................
........................................................................

 iter      E             dE          RMSdq      gap      omega  full diag
   1   -181.3714037 -0.181371E+03  0.524E-02    0.11       0.0  T
   2   -181.3310141  0.403897E-01  0.411E-01    0.16       1.0  T
   3   -181.3714427 -0.404286E-01  0.368E-02    0.11       1.0  T
   4   -181.3715832 -0.140538E-03  0.151E-02    0.11       1.0  T
   5   -181.3716280 -0.447694E-04  0.438E-03    0.11       2.4  T
   6   -181.3716317 -0.372918E-05  0.138E-03    0.11       7.6  T
   7   -181.3716320 -0.284594E-06  0.754E-04    0.11      13.8  T
   8   -181.3716319  0.769411E-07  0.830E-04    0.11      12.6  T
     SCC iter.                  ...        0 min,  0.275 sec
     gradient                   ...        0 min,  0.026 sec
 * total energy  :  -178.7658659 Eh     change       -0.9957642E-04 Eh
   gradient norm :     0.0027045 Eh/α   predicted    -0.7885958E-04 ( -20.80%)
   displ. norm   :     0.3238189 α      lambda       -0.7389212E-04
   maximum displ.:     0.1979114 α      in ANC's #3, #1, #2, ...

........................................................................
.............................. CYCLE   39 ..............................
........................................................................

 iter      E             dE          RMSdq      gap      omega  full diag
   1   -181.3723335 -0.181372E+03  0.336E-02    0.11       0.0  T
   2   -181.3557988  0.165348E-01  0.263E-01    0.13       1.0  T
   3   -181.3722695 -0.164708E-01  0.290E-02    0.11       1.0  T
   4   -181.3724004 -0.130855E-03  0.646E-03    0.11       1.6  T
   5   -181.3724035 -0.310446E-05  0.398E-03    0.11       2.6  T
   6   -181.3724071 -0.359110E-05  0.621E-04    0.11      16.8  T
   7   -181.3724071 -0.188291E-07  0.351E-04    0.11      29.7  T
   8   -181.3724071  0.348730E-07  0.434E-04    0.11      24.0  T
     SCC iter.                  ...        0 min,  0.291 sec
     gradient                   ...        0 min,  0.028 sec
 * total energy  :  -178.7659234 Eh     change       -0.5756338E-04 Eh
   gradient norm :     0.0019231 Eh/α   predicted    -0.4082241E-04 ( -29.08%)
   displ. norm   :     0.3444117 α      lambda       -0.4926636E-04
   maximum displ.:     0.1906650 α      in ANC's #3, #1, #2, ...

........................................................................
.............................. CYCLE   40 ..............................
........................................................................

 iter      E             dE          RMSdq      gap      omega  full diag
   1   -181.3721900 -0.181372E+03  0.385E-02    0.12       0.0  T
   2   -181.3458676  0.263224E-01  0.332E-01    0.14       1.0  T
   3   -181.3722484 -0.263808E-01  0.246E-02    0.12       1.0  T
   4   -181.3723153 -0.669371E-04  0.654E-03    0.12       1.6  T
   5   -181.3723188 -0.353287E-05  0.349E-03    0.12       3.0  T
   6   -181.3723214 -0.255321E-05  0.775E-04    0.12      13.4  T
   7   -181.3723214 -0.558683E-07  0.427E-04    0.12      24.4  T
   8   -181.3723214  0.359864E-07  0.483E-04    0.12      21.6  T
     SCC iter.                  ...        0 min,  0.275 sec
     gradient                   ...        0 min,  0.027 sec
 * total energy  :  -178.7659740 Eh     change       -0.5061490E-04 Eh
   gradient norm :     0.0018540 Eh/α   predicted    -0.2593590E-04 ( -48.76%)
   displ. norm   :     0.1456062 α      lambda       -0.2595528E-04
   maximum displ.:     0.0824837 α      in ANC's #2, #1, #4, ...

........................................................................
.............................. CYCLE   41 ..............................
........................................................................

 iter      E             dE          RMSdq      gap      omega  full diag
   1   -181.3733952 -0.181373E+03  0.180E-02    0.12       0.0  T
   2   -181.3721450  0.125024E-02  0.729E-02    0.12       1.0  T
   3   -181.3732667 -0.112171E-02  0.255E-02    0.12       1.0  T
   4   -181.3733974 -0.130754E-03  0.367E-03    0.12       2.8  T
   5   -181.3734000 -0.254105E-05  0.137E-03    0.12       7.6  T
   6   -181.3734004 -0.417122E-06  0.288E-04    0.12      36.2  T
   7   -181.3734004 -0.633329E-08  0.141E-04    0.12      73.9  T
     SCC iter.                  ...        0 min,  0.233 sec
     gradient                   ...        0 min,  0.027 sec
 * total energy  :  -178.7660038 Eh     change       -0.2980855E-04 Eh
   gradient norm :     0.0022960 Eh/α   predicted    -0.1310094E-04 ( -56.05%)
   displ. norm   :     0.1465796 α      lambda       -0.4325504E-04
   maximum displ.:     0.0746308 α      in ANC's #2, #1, #4, ...

........................................................................
.............................. CYCLE   42 ..............................
........................................................................

 iter      E             dE          RMSdq      gap      omega  full diag
   1   -181.3722778 -0.181372E+03  0.208E-02    0.12       0.0  T
   2   -181.3694270  0.285074E-02  0.110E-01    0.12       1.0  T
   3   -181.3722375 -0.281051E-02  0.184E-02    0.12       1.0  T
   4   -181.3722863 -0.487797E-04  0.388E-03    0.12       2.7  T
   5   -181.3722893 -0.295624E-05  0.112E-03    0.12       9.3  T
   6   -181.3722895 -0.240520E-06  0.305E-04    0.12      34.2  T
   7   -181.3722895 -0.317081E-08  0.193E-04    0.12      54.1  T
     SCC iter.                  ...        0 min,  0.337 sec
     gradient                   ...        0 min,  0.027 sec
 * total energy  :  -178.7660367 Eh     change       -0.3287755E-04 Eh
   gradient norm :     0.0018153 Eh/α   predicted    -0.2209579E-04 ( -32.79%)
   displ. norm   :     0.3043423 α      lambda       -0.4401567E-04
   maximum displ.:     0.1326797 α      in ANC's #4, #2, #1, ...
 * RMSD in coord.:     1.0318160 α      energy gain  -0.1329888E-01 Eh

generating ANC from model Hessian ...
Using Lindh-Hessian (1995)
 Shifting diagonal of input Hessian by    9.9351762006483473E-003
 Lowest  eigenvalues of input Hessian
    0.000000    0.000000    0.000000    0.000000    0.000000    0.000000
    0.010000    0.010175    0.010298    0.010403    0.010456    0.010803
    0.010992    0.011219    0.011599    0.011757    0.011987    0.012140
 Highest eigenvalues
    2.193527    2.194203    2.270237    2.286130    2.306994    2.316983


........................................................................
.............................. CYCLE   43 ..............................
........................................................................

 iter      E             dE          RMSdq      gap      omega  full diag
   1   -181.3714866 -0.181371E+03  0.398E-02    0.12       0.0  T
   2   -181.3695517  0.193492E-02  0.932E-02    0.12       1.0  T
   3   -181.3695082  0.435226E-04  0.931E-02    0.12       1.0  T
   4   -181.3714890 -0.198087E-02  0.578E-03    0.12       1.8  T
   5   -181.3714953 -0.626944E-05  0.115E-03    0.12       9.1  T
   6   -181.3714954 -0.124264E-06  0.640E-04    0.12      16.3  T
   7   -181.3714955 -0.440701E-07  0.285E-04    0.12      36.6  T
     SCC iter.                  ...        0 min,  0.254 sec
     gradient                   ...        0 min,  0.026 sec
 * total energy  :  -178.7660789 Eh     change       -0.4220538E-04 Eh
   gradient norm :     0.0020455 Eh/α   predicted     0.0000000E+00 (-100.00%)
   displ. norm   :     0.0326749 α      lambda       -0.1992631E-04
   maximum displ.:     0.0140318 α      in ANC's #20, #1, #2, ...

........................................................................
.............................. CYCLE   44 ..............................
........................................................................

 iter      E             dE          RMSdq      gap      omega  full diag
   1   -181.3720745 -0.181372E+03  0.661E-03    0.12       0.0  T
   2   -181.3719336  0.140928E-03  0.245E-02    0.12       1.0  T
   3   -181.3720455 -0.111918E-03  0.117E-02    0.12       1.0  T
   4   -181.3720746 -0.291019E-04  0.153E-03    0.12       6.8  T
   5   -181.3720751 -0.487784E-06  0.338E-04    0.12      30.9  T
   6   -181.3720751 -0.160168E-07  0.155E-04    0.12      67.3  T
     SCC iter.                  ...        0 min,  0.216 sec
     gradient                   ...        0 min,  0.026 sec
 * total energy  :  -178.7660963 Eh     change       -0.1735171E-04 Eh
   gradient norm :     0.0011537 Eh/α   predicted    -0.1029593E-04 ( -40.66%)
   displ. norm   :     0.1632002 α      lambda       -0.4454619E-04
   maximum displ.:     0.0679094 α      in ANC's #20, #1, #2, ...

........................................................................
.............................. CYCLE   45 ..............................
........................................................................

 iter      E             dE          RMSdq      gap      omega  full diag
   1   -181.3730926 -0.181373E+03  0.285E-02    0.12       0.0  T
   2   -181.3720887  0.100384E-02  0.665E-02    0.12       1.0  T
   3   -181.3717196  0.369141E-03  0.775E-02    0.12       1.0  T
   4   -181.3730833 -0.136373E-02  0.784E-03    0.12       1.3  T
   5   -181.3730973 -0.139304E-04  0.118E-03    0.12       8.8  T
   6   -181.3730974 -0.105162E-06  0.722E-04    0.12      14.4  T
   7   -181.3730974 -0.658999E-07  0.322E-04    0.12      32.3  T
     SCC iter.                  ...        0 min,  0.330 sec
     gradient                   ...        0 min,  0.027 sec
 * total energy  :  -178.7661264 Eh     change       -0.3017096E-04 Eh
   gradient norm :     0.0021744 Eh/α   predicted    -0.2253753E-04 ( -25.30%)
   displ. norm   :     0.0269593 α      lambda       -0.1081118E-04
   maximum displ.:     0.0130679 α      in ANC's #1, #2, #3, ...

........................................................................
.............................. CYCLE   46 ..............................
........................................................................

 iter      E             dE          RMSdq      gap      omega  full diag
   1   -181.3727805 -0.181373E+03  0.379E-03    0.12       0.0  T
   2   -181.3727784  0.212796E-05  0.376E-03    0.12       2.8  T
   3   -181.3726521  0.126228E-03  0.231E-02    0.12       1.0  T
   4   -181.3727805 -0.128319E-03  0.647E-04    0.12      16.1  T
   5   -181.3727805 -0.561995E-07  0.250E-04    0.12      41.6  T
   6   -181.3727805 -0.117436E-07  0.729E-05    0.12     143.1  T
     SCC iter.                  ...        0 min,  0.209 sec
     gradient                   ...        0 min,  0.028 sec
 * total energy  :  -178.7661362 Eh     change       -0.9718971E-05 Eh
   gradient norm :     0.0015927 Eh/α   predicted    -0.5410705E-05 ( -44.33%)
   displ. norm   :     0.1714017 α      lambda       -0.3347138E-04
   maximum displ.:     0.0830869 α      in ANC's #1, #2, #3, ...

........................................................................
.............................. CYCLE   47 ..............................
........................................................................

 iter      E             dE          RMSdq      gap      omega  full diag
   1   -181.3716373 -0.181372E+03  0.217E-02    0.12       0.0  T
   2   -181.3714021  0.235158E-03  0.341E-02    0.12       1.0  T
   3   -181.3701150  0.128708E-02  0.802E-02    0.12       1.0  T
   4   -181.3716372 -0.152215E-02  0.317E-03    0.12       3.3  T
   5   -181.3716386 -0.135803E-05  0.120E-03    0.12       8.7  T
   6   -181.3716388 -0.257749E-06  0.403E-04    0.12      25.8  T
   7   -181.3716388 -0.712126E-08  0.259E-04    0.12      40.3  T
     SCC iter.                  ...        0 min,  0.286 sec
     gradient                   ...        0 min,  0.027 sec
 * total energy  :  -178.7661617 Eh     change       -0.2555128E-04 Eh
   gradient norm :     0.0016529 Eh/α   predicted    -0.1695637E-04 ( -33.64%)
   displ. norm   :     0.0764344 α      lambda       -0.9026346E-05
   maximum displ.:     0.0390280 α      in ANC's #1, #2, #4, ...

........................................................................
.............................. CYCLE   48 ..............................
........................................................................

 iter      E             dE          RMSdq      gap      omega  full diag
   1   -181.3719709 -0.181372E+03  0.842E-03    0.12       0.0  T
   2   -181.3715092  0.461652E-03  0.441E-02    0.12       1.0  T
   3   -181.3719415 -0.432257E-03  0.123E-02    0.12       1.0  T
   4   -181.3719720 -0.305037E-04  0.185E-03    0.12       5.6  T
   5   -181.3719727 -0.669831E-06  0.471E-04    0.12      22.1  T
   6   -181.3719727 -0.451725E-07  0.126E-04    0.12      82.5  T
     SCC iter.                  ...        0 min,  0.215 sec
     gradient                   ...        0 min,  0.025 sec
 * total energy  :  -178.7661738 Eh     change       -0.1211143E-04 Eh
   gradient norm :     0.0012277 Eh/α   predicted    -0.4525185E-05 ( -62.64%)
   displ. norm   :     0.1622609 α      lambda       -0.1983527E-04
   maximum displ.:     0.0851914 α      in ANC's #1, #2, #4, ...

........................................................................
.............................. CYCLE   49 ..............................
........................................................................

 iter      E             dE          RMSdq      gap      omega  full diag
   1   -181.3727206 -0.181373E+03  0.168E-02    0.12       0.0  T
   2   -181.3715249  0.119567E-02  0.712E-02    0.12       1.0  T
   3   -181.3725439 -0.101905E-02  0.290E-02    0.12       1.0  T
   4   -181.3727206 -0.176707E-03  0.471E-03    0.12       2.2  T
   5   -181.3727251 -0.446333E-05  0.119E-03    0.12       8.7  T
   6   -181.3727254 -0.311830E-06  0.252E-04    0.12      41.4  T
   7   -181.3727254 -0.401982E-08  0.135E-04    0.12      77.2  T
     SCC iter.                  ...        0 min,  0.290 sec
     gradient                   ...        0 min,  0.027 sec
 * total energy  :  -178.7661959 Eh     change       -0.2202842E-04 Eh
   gradient norm :     0.0005024 Eh/α   predicted    -0.1003830E-04 ( -54.43%)
   displ. norm   :     0.1734936 α      lambda       -0.1206371E-04
   maximum displ.:     0.0934404 α      in ANC's #1, #2, #4, ...

........................................................................
.............................. CYCLE   50 ..............................
[...]
    47   6 C        2.978     0.013    27.727     8.637
    48   6 C        2.982     0.015    27.676     8.629
    49   6 C        2.981    -0.002    28.058     8.689
    50   6 C        2.988     0.017    27.624     8.622
    51   6 C        2.989     0.020    27.550     8.610
    52   6 C        2.988     0.005    27.906     8.665
    53   6 C        2.917    -0.034    28.850     8.808
    54   6 C        2.917    -0.030    28.750     8.793
    55   6 C        2.916    -0.029    28.718     8.788
    56   6 C        2.917    -0.037    28.911     8.817
    57   6 C        2.920    -0.033    28.814     8.803
    58   6 C        2.925     0.024    27.479     8.597
    59   6 C        2.922    -0.028    28.699     8.785
    60   6 C        2.922    -0.040    29.004     8.832
    61   6 C        2.917    -0.030    28.758     8.794
    62   6 C        2.888     0.127    25.209     8.232
    63   6 C        2.916    -0.026    28.658     8.778
    64   6 C        2.913    -0.053    29.311     8.878
    65   1 H        0.926     0.036     2.498     2.471
    66   1 H        0.926     0.039     2.463     2.454
    67   1 H        0.926     0.043     2.414     2.429
    68   1 H        0.926     0.037     2.491     2.468
    69   1 H        0.926     0.043     2.405     2.425
    70   1 H        0.926     0.050     2.317     2.380
    71   1 H        0.926     0.039     2.467     2.456
    72   1 H        0.926     0.061     2.185     2.312
    73   8 O        1.709    -0.228    17.775     5.692
    74   6 C        2.883     0.128    25.198     8.229
    75   6 C        2.938     0.014    27.698     8.631
    76   7 N        2.860     0.100    19.522     6.562
    77   6 C        2.984     0.098    25.823     8.336
    78   6 C        2.917    -0.060    29.485     8.904
    79   6 C        2.919    -0.027    28.677     8.782
    80   6 C        2.920    -0.054    29.331     8.881
    81   7 N        1.843    -0.292    28.408     7.899
    82   6 C        2.924     0.154    24.659     8.144
    83   7 N        1.918    -0.257    27.528     7.779
    84   1 H        0.926     0.030     2.582     2.513
    85   1 H        0.926     0.018     2.770     2.603
    86   1 H        0.926     0.063     2.160     2.298
    87   1 H        0.926     0.058     2.225     2.332
    88   1 H        0.926     0.072     2.066     2.247
    89   6 C        3.343     0.483    17.224     6.557
    90   9 F        0.791    -0.203    11.270     3.966
    91   9 F        0.792    -0.186    11.088     3.933
    92   9 F        0.791    -0.199    11.221     3.957

 Mol. C6AA /au·bohr⁶  :     136828.226077
 Mol. C8AA /au·bohr⁸  :    3465560.801009
 Mol. α(0) /au        :        588.292122


Wiberg/Mayer (AO) data.
largest (>0.10) Wiberg bond orders for each atom

 ---------------------------------------------------------------------------
     #   Z sym  total        # sym  WBO       # sym  WBO       # sym  WBO
 ---------------------------------------------------------------------------
     1   6 C    3.982 --     4 C    1.312     3 C    1.223     2 C    1.191
     2   6 C    3.987 --    11 C    1.310     5 C    1.266     1 C    1.191
     3   6 C    3.956 --     6 C    1.259    12 C    1.229     1 C    1.223
     4   6 C    3.972 --     1 C    1.312     8 C    1.243     7 C    1.232
     5   6 C    3.986 --    13 C    1.309     2 C    1.266     9 C    1.226
     6   6 C    3.978 --    14 C    1.301     3 C    1.259    10 C    1.234
     7   6 C    3.984 --     9 C    1.615     4 C    1.232    19 H    0.966
     8   6 C    3.977 --    10 C    1.602     4 C    1.243    20 H    0.966
     9   6 C    3.969 --     7 C    1.615     5 C    1.226    21 H    0.967
    10   6 C    3.969 --     8 C    1.602     6 C    1.234    22 H    0.966
    11   6 C    3.988 --    15 C    1.513     2 C    1.310    39 H    0.961
                            13 C    0.108
    12   6 C    3.949 --    16 C    1.308     3 C    1.229    30 N    1.111
    13   6 C    3.977 --    17 C    1.520     5 C    1.309    23 H    0.967
                            11 C    0.108
    14   6 C    3.917 --    18 C    1.489     6 C    1.301    24 H    0.966
    15   6 C    3.981 --    11 C    1.513    17 C    1.351    38 H    0.965
    16   6 C    3.883 --    18 C    1.328    12 C    1.308    27 O    1.039
    17   6 C    3.979 --    13 C    1.520    15 C    1.351    25 H    0.970
    18   6 C    3.966 --    14 C    1.489    16 C    1.328    26 H    0.965
    19   1 H    0.997 --     7 C    0.966
    20   1 H    0.997 --     8 C    0.966
    21   1 H    0.997 --     9 C    0.967
    22   1 H    0.997 --    10 C    0.966
    23   1 H    0.998 --    13 C    0.967
    24   1 H    0.996 --    14 C    0.966
    25   1 H    0.997 --    17 C    0.970
    26   1 H    0.995 --    18 C    0.965
    27   8 O    2.312 --    16 C    1.039    28 C    1.029
    28   6 C    3.917 --    32 C    1.379    29 C    1.313    27 O    1.029
    29   6 C    3.936 --    28 C    1.313    31 C    1.235    30 N    1.107
    30   7 N    3.601 --    37 N    1.147    12 C    1.111    29 C    1.107
    31   6 C    3.969 --    34 C    1.333    29 C    1.235    35 N    1.216
    32   6 C    3.971 --    33 C    1.403    28 C    1.379    40 H    0.965
    33   6 C    3.975 --    34 C    1.463    32 C    1.403    41 H    0.968
    34   6 C    3.970 --    33 C    1.463    31 C    1.333    42 H    0.964
    35   7 N    2.928 --    36 C    1.425    31 C    1.216
    36   6 C    3.961 --    35 N    1.425    37 N    1.422    43 C    0.924
    37   7 N    2.914 --    36 C    1.422    30 N    1.147
    38   1 H    0.997 --    15 C    0.965
    39   1 H    0.999 --    11 C    0.961
    40   1 H    0.995 --    32 C    0.965
    41   1 H    0.996 --    33 C    0.968
    42   1 H    0.993 --    34 C    0.964
    43   6 C    3.836 --    44 F    0.956    46 F    0.955    45 F    0.952
                            36 C    0.924
    44   9 F    1.085 --    43 C    0.956
    45   9 F    1.079 --    43 C    0.952
    46   9 F    1.077 --    43 C    0.955
    47   6 C    3.983 --    50 C    1.314    49 C    1.224    48 C    1.187
    48   6 C    3.986 --    57 C    1.312    51 C    1.270    47 C    1.187
    49   6 C    3.964 --    52 C    1.260    47 C    1.224    58 C    1.222
    50   6 C    3.974 --    47 C    1.314    54 C    1.239    53 C    1.230
    51   6 C    3.986 --    59 C    1.307    48 C    1.270    55 C    1.224
    52   6 C    3.978 --    60 C    1.298    49 C    1.260    56 C    1.235
    53   6 C    3.985 --    55 C    1.617    50 C    1.230    65 H    0.967
    54   6 C    3.978 --    56 C    1.604    50 C    1.239    66 H    0.967
    55   6 C    3.971 --    53 C    1.617    51 C    1.224    67 H    0.967
    56   6 C    3.974 --    54 C    1.604    52 C    1.235    68 H    0.966
    57   6 C    3.990 --    61 C    1.522    48 C    1.312    85 H    0.965
                            59 C    0.111
    58   6 C    3.951 --    62 C    1.299    49 C    1.222    76 N    1.126
    59   6 C    3.982 --    63 C    1.525    51 C    1.307    69 H    0.967
                            57 C    0.111
    60   6 C    3.931 --    64 C    1.477    52 C    1.298    70 H    0.965
    61   6 C    3.985 --    57 C    1.522    63 C    1.349    84 H    0.971
    62   6 C    3.876 --    64 C    1.343    58 C    1.299    73 O    1.035
    63   6 C    3.981 --    59 C    1.525    61 C    1.349    71 H    0.970
    64   6 C    3.967 --    60 C    1.477    62 C    1.343    72 H    0.965
    65   1 H    0.998 --    53 C    0.967
    66   1 H    0.997 --    54 C    0.967
    67   1 H    0.997 --    55 C    0.967
    68   1 H    0.997 --    56 C    0.966
    69   1 H    0.998 --    59 C    0.967
    70   1 H    0.996 --    60 C    0.965
    71   1 H    0.998 --    63 C    0.970
    72   1 H    0.995 --    64 C    0.965
    73   8 O    2.300 --    74 C    1.038    62 C    1.035
    74   6 C    3.908 --    78 C    1.376    75 C    1.308    73 O    1.038
    75   6 C    3.917 --    74 C    1.308    77 C    1.246    76 N    1.091
    76   7 N    3.600 --    58 C    1.126    83 N    1.120    75 C    1.091
    77   6 C    3.960 --    80 C    1.335    75 C    1.246    81 N    1.201
    78   6 C    3.965 --    79 C    1.413    74 C    1.376    86 H    0.967
    79   6 C    3.963 --    80 C    1.459    78 C    1.413    87 H    0.969
    80   6 C    3.966 --    79 C    1.459    77 C    1.335    88 H    0.965
    81   7 N    2.906 --    82 C    1.423    77 C    1.201    83 N    0.104
    82   6 C    3.966 --    83 N    1.431    81 N    1.423    89 C    0.923
    83   7 N    2.930 --    82 C    1.431    76 N    1.120    81 N    0.104
    84   1 H    0.998 --    61 C    0.971
    85   1 H    0.999 --    57 C    0.965
    86   1 H    0.995 --    78 C    0.967
    87   1 H    0.996 --    79 C    0.969
    88   1 H    0.994 --    80 C    0.965
    89   6 C    3.833 --    91 F    0.967    92 F    0.949    90 F    0.944
                            82 C    0.923
    90   9 F    1.072 --    89 C    0.944
    91   9 F    1.090 --    89 C    0.967
    92   9 F    1.078 --    89 C    0.949
 ---------------------------------------------------------------------------

Topologies differ in bond orders
Writing corrected topology to xtbtopo.mol

molecular dipole:
                 x           y           z       tot (Debye)
 q only:       -2.549       2.601       0.651
   full:       -3.076       2.578       0.885      10.446
molecular quadrupole (traceless):
                xx          xy          yy          xz          yz          zz
 q only:        0.969      27.077      -3.225      -8.353     -14.467       2.255
  q+dip:       13.124      29.153     -15.598     -12.581     -24.226       2.473
   full:        4.120      31.640     -10.738      -9.294     -11.782       6.618

           -------------------------------------------------
          |                Geometry Summary                 |
           -------------------------------------------------

      molecular mass/u    :      880.7941744
   center of mass at/Å    :        0.3262859      -0.4169159       1.3204844
  moments of inertia/u·Å² :        0.8366999E+04   0.1158305E+05   0.1231811E+05
rotational constants/cm⁻¹ :        0.2014777E-02   0.1455371E-02   0.1368524E-02

 * 101 selected distances

     #   Z          #   Z                                           value/Å
     1   6 C        2   6 C                                       1.4351124 (max)
     1   6 C        3   6 C                                       1.4315598
     1   6 C        4   6 C                                       1.4098223
     2   6 C        5   6 C                                       1.4171969
     3   6 C        6   6 C                                       1.4220899
     4   6 C        7   6 C                                       1.4185600
     4   6 C        8   6 C                                       1.4160324
     5   6 C        9   6 C                                       1.4187630
     7   6 C        9   6 C                                       1.3554644
     6   6 C       10   6 C                                       1.4176803
     8   6 C       10   6 C                                       1.3566182
     2   6 C       11   6 C                                       1.4051596
     3   6 C       12   6 C                                       1.4259853
     5   6 C       13   6 C                                       1.4051588
     6   6 C       14   6 C                                       1.4041461
    11   6 C       15   6 C                                       1.3702890
    12   6 C       16   6 C                                       1.4036374
    13   6 C       17   6 C                                       1.3704994
    15   6 C       17   6 C                                       1.3954881
    14   6 C       18   6 C                                       1.3712861
    16   6 C       18   6 C                                       1.3936389
     7   6 C       19   1 H                                       1.0804058
     8   6 C       20   1 H                                       1.0802198
     9   6 C       21   1 H                                       1.0798986
    10   6 C       22   1 H                                       1.0798924
    13   6 C       23   1 H                                       1.0802945
    14   6 C       24   1 H                                       1.0790794
    17   6 C       25   1 H                                       1.0785090
    18   6 C       26   1 H                                       1.0773253
    16   6 C       27   8 O                                       1.3679286
    27   8 O       28   6 C                                       1.3678094
    28   6 C       29   6 C                                       1.3900724
    12   6 C       30   7 N                                       1.3828397
    29   6 C       30   7 N                                       1.3836306
    29   6 C       31   6 C                                       1.4165696
    28   6 C       32   6 C                                       1.3871818
    32   6 C       33   6 C                                       1.3901474
    31   6 C       34   6 C                                       1.3957399
    33   6 C       34   6 C                                       1.3811327
    31   6 C       35   7 N                                       1.3597203
    35   7 N       36   6 C                                       1.3138039
    30   7 N       37   7 N                                       1.3354586
    36   6 C       37   7 N                                       1.3142755
    15   6 C       38   1 H                                       1.0766096
    11   6 C       39   1 H                                       1.0791616
    32   6 C       40   1 H                                       1.0773730
    33   6 C       41   1 H                                       1.0789111
    34   6 C       42   1 H                                       1.0764609 (min)
    43   6 C       44   9 F                                       1.3372466
    43   6 C       45   9 F                                       1.3410833
    43   6 C       46   9 F                                       1.3390759
    47   6 C       49   6 C                                       1.4299749
    47   6 C       50   6 C                                       1.4094517
    48   6 C       51   6 C                                       1.4170225
    49   6 C       52   6 C                                       1.4214902
    50   6 C       53   6 C                                       1.4184466
    50   6 C       54   6 C                                       1.4172735
    51   6 C       55   6 C                                       1.4195549
    53   6 C       55   6 C                                       1.3555551
    52   6 C       56   6 C                                       1.4177823
    54   6 C       56   6 C                                       1.3569943
    48   6 C       57   6 C                                       1.4072726
    49   6 C       58   6 C                                       1.4267609
    51   6 C       59   6 C                                       1.4050132
    52   6 C       60   6 C                                       1.4046884
    57   6 C       61   6 C                                       1.3710640
    58   6 C       62   6 C                                       1.4055334
    59   6 C       63   6 C                                       1.3696803
    61   6 C       63   6 C                                       1.3972339
    60   6 C       64   6 C                                       1.3739063
    62   6 C       64   6 C                                       1.3913114
Note: The following floating-point exceptions are signalling: IEEE_UNDERFLOW_FLAG
normal termination of xtb
    53   6 C       65   1 H                                       1.0801612
    54   6 C       66   1 H                                       1.0799123
    55   6 C       67   1 H                                       1.0797059
    56   6 C       68   1 H                                       1.0797436
    59   6 C       69   1 H                                       1.0797481
    60   6 C       70   1 H                                       1.0782340
    63   6 C       71   1 H                                       1.0794148
    64   6 C       72   1 H                                       1.0773584
    62   6 C       73   8 O                                       1.3687664
    73   8 O       74   6 C                                       1.3638918
    74   6 C       75   6 C                                       1.3913142
    58   6 C       76   7 N                                       1.3790112
    75   6 C       76   7 N                                       1.3892086
    75   6 C       77   6 C                                       1.4115215
    74   6 C       78   6 C                                       1.3872859
    78   6 C       79   6 C                                       1.3880949
    77   6 C       80   6 C                                       1.3944280
    79   6 C       80   6 C                                       1.3811791
    77   6 C       81   7 N                                       1.3619694
    81   7 N       82   6 C                                       1.3132238
    76   7 N       83   7 N                                       1.3479847
    82   6 C       83   7 N                                       1.3152904
    61   6 C       84   1 H                                       1.0805545
    57   6 C       85   1 H                                       1.0810159
    78   6 C       86   1 H                                       1.0774921
    79   6 C       87   1 H                                       1.0789268
    80   6 C       88   1 H                                       1.0766922
    89   6 C       90   9 F                                       1.3435260
    89   6 C       91   9 F                                       1.3321582
    89   6 C       92   9 F                                       1.3413358

 * 6 distinct bonds (by element types)

   Z      Z             #   av. dist./Å        max./Å        min./Å
   1 H    6 C          26     1.0789654     1.0810159     1.0764609
   6 C    6 C          53     1.3995258     1.4351124     1.3554644
   6 C    7 N          10     1.3512973     1.3892086     1.3132238
   7 N    7 N           2     1.3417217     1.3479847     1.3354586
   6 C    8 O           4     1.3670990     1.3687664     1.3638918
   6 C    9 F           6     1.3390710     1.3435260     1.3321582


optimized geometry written to: xtbopt.mol


           -------------------------------------------------
          | TOTAL ENERGY             -178.766237498755 Eh   |
          | GRADIENT NORM               0.000349182545 Eh/α |
          | HOMO-LUMO GAP               0.116731146508 eV   |
           -------------------------------------------------
########################################################################
[WARNING] Runtime exception occurred
-2- restart_readRestart: Dimension missmatch in restart file.
-1- restart_readRestart: Number of electron missmatch in restart file.
########################################################################

------------------------------------------------------------------------
 * finished run on 2024/11/01 at 13:49:32.609     
------------------------------------------------------------------------
 total:
 * wall-time:     0 d,  0 h,  0 min, 23.900 sec
 *  cpu-time:     0 d,  0 h,  1 min,  8.840 sec
 * ratio c/w:     2.880 speedup
 SCF:
 * wall-time:     0 d,  0 h,  0 min,  0.961 sec
 *  cpu-time:     0 d,  0 h,  0 min,  3.245 sec
 * ratio c/w:     3.377 speedup
 ANC optimizer:
 * wall-time:     0 d,  0 h,  0 min, 22.912 sec
 *  cpu-time:     0 d,  0 h,  1 min,  5.562 sec
 * ratio c/w:     2.861 speedup

