92
 energy: -177.581939865265 gnorm: 0.405712316006 xtb: 6.6.1 (8d0f1dd)
C            0.65030000000000        1.61870000000000       -1.15270000000000
C            1.55320000000000        1.11240000000000       -0.15890000000000
C           -0.75600000000000        1.36500000000000       -1.14840000000000
C            1.16630000000000        2.47060000000000       -2.14710000000000
C            2.94660000000000        1.16730000000000       -0.40610000000000
C           -1.61640000000000        2.29160000000000       -1.79540000000000
C            2.56890000000000        2.53910000000000       -2.35060000000000
C            0.28150000000000        3.26670000000000       -2.91680000000000
C            3.42340000000000        1.84490000000000       -1.55900000000000
C           -1.05390000000000        3.25450000000000       -2.67220000000000
C            1.12680000000000        0.65700000000000        1.10280000000000
C           -1.36030000000000        0.21470000000000       -0.56840000000000
C            3.83460000000000        0.60190000000000        0.52450000000000
C           -3.00320000000000        2.21850000000000       -1.58730000000000
C            2.01570000000000        0.13910000000000        2.00920000000000
C           -2.74030000000000        0.20950000000000       -0.31590000000000
C            3.37690000000000        0.06800000000000        1.70060000000000
C           -3.54900000000000        1.23850000000000       -0.79450000000000
H            2.93620000000000        3.14220000000000       -3.16830000000000
H            0.70130000000000        3.93150000000000       -3.65760000000000
H            4.48600000000000        1.84810000000000       -1.75090000000000
H           -1.72000000000000        3.93890000000000       -3.17630000000000
H            4.89170000000000        0.61030000000000        0.30290000000000
H           -3.64160000000000        2.95270000000000       -2.05390000000000
H            4.06320000000000       -0.37600000000000        2.40500000000000
H           -4.60520000000000        1.19650000000000       -0.58440000000000
O           -3.36750000000000       -0.79460000000000        0.37180000000000
C           -2.59930000000000       -1.83590000000000        0.81000000000000
C           -1.27030000000000       -1.95200000000000        0.41590000000000
N           -0.67340000000000       -0.96250000000000       -0.35020000000000
C           -0.48820000000000       -3.06550000000000        0.79780000000000
C           -3.15400000000000       -2.80700000000000        1.63090000000000
C           -2.37760000000000       -3.88450000000000        2.03580000000000
C           -1.06550000000000       -4.02690000000000        1.62610000000000
N            0.78890000000000       -3.19080000000000        0.33240000000000
C            1.16360000000000       -2.25790000000000       -0.51590000000000
N            0.53650000000000       -1.16570000000000       -0.88660000000000
H            1.66480000000000       -0.21200000000000        2.96860000000000
H            0.08410000000000        0.74610000000000        1.37580000000000
H           -4.18260000000000       -2.70790000000000        1.93560000000000
H           -2.81760000000000       -4.63230000000000        2.67730000000000
H           -0.46890000000000       -4.87430000000000        1.91850000000000
C            2.51960000000000       -2.45340000000000       -1.15210000000000
F            3.49940000000000       -2.52270000000000       -0.24040000000000
F            2.57500000000000       -3.59310000000000       -1.85980000000000
F            2.84940000000000       -1.46890000000000       -1.99530000000000
C            0.65030000000000        1.61870000000000        2.34730000000000
C            1.55320000000000        1.11240000000000        3.34110000000000
C           -0.75600000000000        1.36500000000000        2.35160000000000
C            1.16630000000000        2.47060000000000        1.35290000000000
C            2.94660000000000        1.16730000000000        3.09390000000000
C           -1.61640000000000        2.29160000000000        1.70460000000000
C            2.56890000000000        2.53910000000000        1.14940000000000
C            0.28150000000000        3.26670000000000        0.58320000000000
C            3.42340000000000        1.84490000000000        1.94100000000000
C           -1.05390000000000        3.25450000000000        0.82780000000000
C            1.12680000000000        0.65700000000000        4.60280000000000
C           -1.36030000000000        0.21470000000000        2.93160000000000
C            3.83460000000000        0.60190000000000        4.02450000000000
C           -3.00320000000000        2.21850000000000        1.91270000000000
C            2.01570000000000        0.13910000000000        5.50920000000000
C           -2.74030000000000        0.20950000000000        3.18410000000000
C            3.37690000000000        0.06800000000000        5.20060000000000
C           -3.54900000000000        1.23850000000000        2.70550000000000
H            2.93620000000000        3.14220000000000        0.33170000000000
H            0.70130000000000        3.93150000000000       -0.15760000000000
H            4.48600000000000        1.84810000000000        1.74910000000000
H           -1.72000000000000        3.93890000000000        0.32370000000000
H            4.89170000000000        0.61030000000000        3.80290000000000
H           -3.64160000000000        2.95270000000000        1.44610000000000
H            4.06320000000000       -0.37600000000000        5.90500000000000
H           -4.60520000000000        1.19650000000000        2.91560000000000
O           -3.36750000000000       -0.79460000000000        3.87180000000000
C           -2.59930000000000       -1.83590000000000        4.31000000000000
C           -1.27030000000000       -1.95200000000000        3.91590000000000
N           -0.67340000000000       -0.96250000000000        3.14980000000000
C           -0.48820000000000       -3.06550000000000        4.29780000000000
C           -3.15400000000000       -2.80700000000000        5.13090000000000
C           -2.37760000000000       -3.88450000000000        5.53580000000000
C           -1.06550000000000       -4.02690000000000        5.12610000000000
N            0.78890000000000       -3.19080000000000        3.83240000000000
C            1.16360000000000       -2.25790000000000        2.98410000000000
N            0.53650000000000       -1.16570000000000        2.61340000000000
H            1.66480000000000       -0.21200000000000        6.46860000000000
H            0.08410000000000        0.74610000000000        4.87580000000000
H           -4.18260000000000       -2.70790000000000        5.43560000000000
H           -2.81760000000000       -4.63230000000000        6.17730000000000
H           -0.46890000000000       -4.87430000000000        5.41850000000000
C            2.51960000000000       -2.45340000000000        2.34790000000000
F            3.49940000000000       -2.52270000000000        3.25960000000000
F            2.57500000000000       -3.59310000000000        1.64020000000000
F            2.84940000000000       -1.46890000000000        1.50470000000000
92
 energy: -177.778430612539 gnorm: 0.252899890000 xtb: 6.6.1 (8d0f1dd)
C            0.65363301177351        1.59900870535884       -1.17759095244065
C            1.56587415838062        1.07738281733807       -0.22148327333358
C           -0.75884037098420        1.35580927053023       -1.15777988256731
C            1.16999396135664        2.46568901780664       -2.16074702076427
C            2.95212987696677        1.12354427901655       -0.46193555072771
C           -1.61741525079302        2.28811582846052       -1.79768800926804
C            2.56842177317047        2.54182835450088       -2.35783512446122
C            0.28138330862602        3.26906318185319       -2.91906074383390
C            3.42814134245452        1.83455008611847       -1.57750079724184
C           -1.05297385007992        3.25530040697467       -2.67218103070255
C            1.12014910450324        0.64530290981320        1.07890320182117
C           -1.36219024692368        0.21240583541428       -0.57112047579584
C            3.85039420643017        0.56387249246791        0.46927759531778
C           -3.00359153378790        2.21747356662526       -1.58917218433055
C            2.03240928078572        0.15570803494361        2.01518321594389
C           -2.74269919800931        0.20745885628455       -0.31911033753484
C            3.40797932495315        0.06796319844516        1.67852692822174
C           -3.54999840109271        1.23773875139052       -0.79580163585867
H            2.93662212721968        3.14615617353442       -3.16954549541574
H            0.70086164091906        3.93277985166223       -3.65846827808306
H            4.48969913749886        1.84902530830257       -1.75479480224582
H           -1.71935426805375        3.93855904820580       -3.17636312309299
H            4.90425943504038        0.59495087162130        0.27811384476703
H           -3.64135647809831        2.95223967631843       -2.05466576247129
H            4.09098578489466       -0.37578353477626        2.38037886153327
H           -4.60557405126833        1.19594278537978       -0.58552903227772
O           -3.36742135534209       -0.79209206261273        0.37162389386290
C           -2.60150028981152       -1.83716136749433        0.80766238613147
C           -1.27392756210137       -1.95339725407613        0.41320717563705
N           -0.67311183932343       -0.96179715308420       -0.34807802313529
C           -0.49602011072646       -3.06904557488450        0.78990366970243
C           -3.15568848602678       -2.80858020389729        1.62772624564241
C           -2.37960764938415       -3.88797729665019        2.03113254655727
C           -1.06802962155091       -4.03109278165717        1.62025162856500
N            0.77617177684133       -3.19117296228811        0.31780835791714
C            1.16251514055103       -2.25835803072148       -0.52041631025784
N            0.54099981182772       -1.15879693238097       -0.88227247620809
H            1.67368349311183       -0.23781304402033        2.95373340409958
H            0.07108707356729        0.68947934181720        1.33547098344799
H           -4.18344065157695       -2.70863811358179        1.93422554414331
H           -2.81768061318663       -4.63301852191428        2.67595399117586
H           -0.46859780503605       -4.87488275377514        1.91664285084199
C            2.51877614532365       -2.46047415228960       -1.16335386533765
F            3.52018093044611       -2.53997534860692       -0.27684747081421
F            2.56923444878066       -3.59454140616596       -1.86818255355621
F            2.84695646320784       -1.46795212289981       -1.99717558873668
C            0.64246594444174        1.65505637855592        2.36123908918852
C            1.55857171962021        1.15130700707978        3.37613691143537
C           -0.78509866725176        1.38191943411620        2.38026050292964
C            1.17789271460566        2.54144622379898        1.37757998528721
C            2.97018720091792        1.25233320612196        3.14524586756506
C           -1.63025677673914        2.30537550091364        1.71668724954078
C            2.56860823716063        2.64290345709221        1.19541433240540
C            0.27650426632293        3.30531212754115        0.59792760261526
C            3.45847607549184        1.91115484411599        1.96515099365537
C           -1.05711721109442        3.26894717204335        0.83744815334274
C            1.12167296492636        0.67172911342141        4.62894675650269
C           -1.36976769263531        0.21212012652961        2.93822307146821
C            3.84246862754592        0.63662132434215        4.05959062523968
C           -3.00813805810474        2.22208283820812        1.91213497124108
C            2.01329868588011        0.13551295109473        5.51969312702523
C           -2.75103117151481        0.20906958170122        3.18801369787176
C            3.37736944612859        0.06615107220544        5.21220245481678
C           -3.55237021949196        1.23801140289457        2.70862180374006
H            2.93294874555337        3.18426923911224        0.34527357131368
H            0.69739391379294        3.94697523648300       -0.15389656142524
H            4.51057108157662        1.91981472597124        1.78547183503900
H           -1.72183672411162        3.94090966637394        0.32388162638511
H            4.89518524770904        0.61948146660604        3.81723565845929
H           -3.64335767801510        2.95455168321492        1.44564961476603
H            4.06430343956018       -0.37963607521878        5.90806796383383
H           -4.60699201212226        1.19606613890249        2.91593353410714
O           -3.36934980518125       -0.79150204655208        3.87431715789240
C           -2.60273485799256       -1.83739477255025        4.31711212931490
C           -1.28176148873007       -1.95907446147056        3.93541706827702
N           -0.69898805619224       -0.97113884148278        3.16014372323346
C           -0.49439250999829       -3.06674359925333        4.30901668231457
C           -3.15741741576196       -2.80955732203727        5.13484011753571
C           -2.38122093660601       -3.88525993843283        5.53800941695073
C           -1.06742287942089       -4.02818759395723        5.12880699333234
N            0.78980077681494       -3.20274213038008        3.84570761734589
C            1.15116636134485       -2.29542115257157        2.99125359238849
N            0.49601826687427       -1.22340409387312        2.60079326525103
H            1.66351367032434       -0.21526599492349        6.47320195959307
H            0.07937776605554        0.74896005367135        4.88226593647334
H           -4.18483050192005       -2.70878603308752        5.43725836012583
H           -2.81890240717747       -4.63316963785456        6.17841088648713
H           -0.46909355284895       -4.87460296826108        5.41908279733026
C            2.50906603920044       -2.51661044267025        2.36222772344453
F            3.50068346210888       -2.52179331019690        3.26423826546308
F            2.59348944506444       -3.64829205648284        1.67878478361166
F            2.85372339841562       -1.60349753326219        1.45295056044916
92
 energy: -177.918194714219 gnorm: 0.179697745620 xtb: 6.6.1 (8d0f1dd)
C            0.65669292676971        1.58167756306803       -1.19573342073363
C            1.57724538613373        1.03895285844801       -0.27323808394920
C           -0.76045712495327        1.34577196457945       -1.16890935614897
C            1.17305225637007        2.45906835802313       -2.17526479378788
C            2.95476376050617        1.10332180953002       -0.49999844527042
C           -1.61714182087246        2.28447017820969       -1.80000223633028
C            2.56626392378992        2.54211706411288       -2.36972786819030
C            0.28064770047572        3.27068132786575       -2.92294670845095
C            3.43239871618655        1.83061161265921       -1.59409303632848
C           -1.05201027778097        3.25509683232964       -2.67322986625241
C            1.12221103988046        0.61534689846435        1.04669797511125
C           -1.36375653163277        0.20830751857779       -0.57719730813261
C            3.86461428058660        0.52899497075314        0.41512969504494
C           -3.00344227400096        2.21633122706840       -1.59114762110083
C            2.05780103543914        0.16144258935594        2.00819993110226
C           -2.74517363462438        0.20439271894888       -0.32333734910848
C            3.44623414675990        0.08876181536177        1.64462529566805
C           -3.55109378182495        1.23658911006251       -0.79839253442717
H            2.93741072016167        3.15472702000684       -3.17151235669319
H            0.69998521698879        3.93551260235807       -3.66012123907248
H            4.49413057769087        1.85163254524797       -1.76197922184132
H           -1.71891398862531        3.93809977104735       -3.17630702624260
H            4.91865673221477        0.57966822593789        0.25205809926321
H           -3.64102294182723        2.95179343707898       -2.05537954948855
H            4.11558275803150       -0.37454226734232        2.34669317011333
H           -4.60627807215307        1.19525847089496       -0.58741791608748
O           -3.36723578644615       -0.78878727348593        0.37130893025735
C           -2.60431642540073       -1.83842335844699        0.80424183669576
C           -1.27696929725486       -1.95536703385750        0.40744866236158
N           -0.67191969717335       -0.96420483976976       -0.34758548005277
C           -0.50207205848043       -3.07386248815935        0.78027162496187
C           -3.15795591390294       -2.81069196422876        1.62273227437891
C           -2.38217969286578       -3.89268353277912        2.02428578002404
C           -1.07092010715782       -4.03650516517068        1.61374605856918
N            0.76505590995981       -3.19383491414361        0.30141864427523
C            1.16476873607003       -2.26115523445681       -0.52453550109253
N            0.54494417491066       -1.15317108270923       -0.87664920510743
H            1.69617309879556       -0.29323532139837        2.91565270345854
H            0.07368538061441        0.59284457190595        1.26936540064268
H           -4.18472048217935       -2.70995083101358        1.93213360650698
H           -2.81837222979347       -4.63419583888858        2.67380666999597
H           -0.46890009549131       -4.87688419065245        1.91383630577645
C            2.52057800922949       -2.47080964624362       -1.18032491312156
F            3.55409354684293       -2.56932373048065       -0.33601901965986
F            2.55547143445341       -3.59769022481390       -1.88433417814944
F            2.84008095961950       -1.46639325647854       -2.00403980259310
C            0.63665039493125        1.70396323504690        2.38271961277430
C            1.56324370970448        1.20438327426453        3.41918501807962
C           -0.80216970826820        1.40889594809838        2.42097098601980
C            1.18950435871743        2.61537851840755        1.41268078912102
C            2.98506044355543        1.34924251983013        3.20729704095934
C           -1.63990495140581        2.32237130118032        1.73313549467196
C            2.56919140406918        2.72260649313171        1.23658377095529
C            0.27278367717987        3.34243461690802        0.61432597604995
C            3.47935561933854        1.98124565731433        1.99561242450988
C           -1.06037644182700        3.28351259752745        0.85036893709203
C            1.11659305727658        0.69245139290269        4.65460570437886
C           -1.36952927594738        0.21591554342600        2.94757717316169
C            3.84736897245438        0.67273464170146        4.09294746015515
C           -3.01362506052770        2.22727433723666        1.91406340937110
C            2.01158381667880        0.13464132848985        5.53209299057469
C           -2.75885377662894        0.20968654467532        3.19249869802957
C            3.37577513358806        0.06691338937478        5.22498556807535
C           -3.55572275667430        1.23787348563825        2.71145740717227
H            2.93370640625288        3.21536983120288        0.35622504731535
H            0.69323516606759        3.96632757513841       -0.14951766419411
H            4.52914535210324        1.99243642904297        1.82103698474896
H           -1.72602426616759        3.94286196106200        0.32463305568574
H            4.89789340418071        0.63697939173712        3.83656463587538
H           -3.64855920816799        2.95623129870364        1.44514557163607
H            4.06429235729972       -0.38804189085746        5.91053562039134
H           -4.61016147950975        1.19566802732447        2.91535203234640
O           -3.36982229546245       -0.78715114501915        3.87604765232996
C           -2.60675453646621       -1.83743869183520        4.32649592822375
C           -1.28793331386796       -1.96175004333435        3.95539746359332
N           -0.71269005251184       -0.97221919412792        3.17470460360271
C           -0.50192157350887       -3.06813210551244        4.32341323570387
C           -3.16317205946765       -2.81221692662108        5.14053611395516
C           -2.38742818426723       -3.88687522843254        5.54233221870538
C           -1.07215298615258       -4.03088632910173        5.13460218020816
N            0.78733252057868       -3.21774425958759        3.86485805970274
C            1.14008283969045       -2.33299540786603        3.00093625355852
N            0.46008112949040       -1.27955609469530        2.58115512081079
H            1.66131002497866       -0.22342215203895        6.47967344221205
H            0.07227023713746        0.75381242370470        4.88895661192307
H           -4.18995127818216       -2.71044777395976        5.44031008701548
H           -2.82243602665573       -4.63562052989985        6.18098897774946
H           -0.47120636530011       -4.87623114366393        5.42119910016469
C            2.49489057942593       -2.57527232593465        2.37958417717933
F            3.49462458191653       -2.51610603549311        3.27643443824897
F            2.60151763163709       -3.70795110274086        1.72631922027947
F            2.83141258467431       -1.72011424972542        1.42174274308253
92
 energy: -178.027399212580 gnorm: 0.151735986542 xtb: 6.6.1 (8d0f1dd)
C            0.65853799218795        1.56417195570880       -1.21420224744142
C            1.58518344747317        0.99629805820773       -0.31148174277021
C           -0.75998544147910        1.33473725582721       -1.18373812054837
C            1.17474626939746        2.45170706816169       -2.18976186958551
C            2.96160444382784        1.08176868696287       -0.53695646632182
C           -1.61603807986809        2.28029050157217       -1.80422147526500
C            2.56545672938805        2.54295903007333       -2.38467209913079
C            0.27981803948987        3.27169485805892       -2.92732425152869
C            3.43802936123686        1.82500839250645       -1.61857556973172
C           -1.05167222521042        3.25439629424644       -2.67497495484114
C            1.13758792767989        0.56850186328849        1.00760009067326
C           -1.36542559433311        0.20229796474852       -0.58732360504466
C            3.88099399112486        0.49679447084664        0.36120058319968
C           -3.00270922893698        2.21447260557981       -1.59369678567839
C            2.08654150884999        0.15639976846141        1.97975867548631
C           -2.74699911392273        0.20089340655730       -0.32812791761056
C            3.48176582105413        0.11657426268244        1.60233069072077
C           -3.55200044976171        1.23483191089963       -0.80227979350942
H            2.93822393860471        3.16720533753984       -3.17627786369893
H            0.69888268170763        3.93958495070091       -3.66191732246288
H            4.50096919589359        1.85744654522356       -1.77533882696190
H           -1.71910048623273        3.93849160954424       -3.17552493974029
H            4.93742862933442        0.56164372953804        0.21496164194813
H           -3.64027654943770        2.95167338627206       -2.05559038452911
H            4.13616651219720       -0.36790669140305        2.30989441717647
H           -4.60701046092261        1.19465475364352       -0.58962917704088
O           -3.36709538185590       -0.78612279817813        0.37120723807263
C           -2.60779859609753       -1.83996739635932        0.79970234350909
C           -1.28008937033031       -1.95840231731093        0.39850240304964
N           -0.67222710043298       -0.97136742572294       -0.35244787146270
C           -0.50705648070943       -3.08058552142864        0.76827997704645
C           -3.16047409574605       -2.81309843270252        1.61682218184827
C           -2.38458153926212       -3.89707938579229        2.01715968715673
C           -1.07450240645948       -4.04285347533684        1.60557296886966
N            0.75607172747672       -3.20126319337464        0.28377870280310
C            1.16890740546288       -2.26644941916897       -0.52862898917550
N            0.54693378834730       -1.15105133747877       -0.87089278164414
H            1.73445089908032       -0.35414479912517        2.85614648125712
H            0.09544663726677        0.48347165943076        1.19245299671284
H           -4.18637216526539       -2.71194523007000        1.92925000483901
H           -2.81967961068764       -4.63598693614071        2.67039497043918
H           -0.46994451716863       -4.88015760898950        1.90913813296677
C            2.52430396300467       -2.48064869769004       -1.19812389656243
F            3.58665298268731       -2.59632118207898       -0.39418638026371
F            2.53543895844064       -3.60149833171388       -1.90649263380366
F            2.82906409305344       -1.46433160644538       -2.01488190509772
C            0.63434768357660        1.76063319842194        2.41589881103367
C            1.56945610803293        1.27526804511593        3.46613664685479
C           -0.80067452289549        1.44129062198253        2.46524499339831
C            1.19131801554233        2.69178132007509        1.46210450605433
C            2.98989006174217        1.44421505556451        3.27559582147755
C           -1.64199725448497        2.34009511149628        1.75238437060627
C            2.57169990636808        2.79011769192850        1.28032346878340
C            0.26848360752449        3.38094705220431        0.63704821846029
C            3.48283028159490        2.05234110553782        2.04056264081768
C           -1.06568095543707        3.30004534589983        0.86703468795777
C            1.11631803426494        0.72008824914692        4.67547143332845
C           -1.36155762059908        0.22479493890412        2.95873073881840
C            3.84865019468068        0.71906623535183        4.12575360152382
C           -3.01769687450422        2.23186950942830        1.91901411174862
C            2.01099977458743        0.13966020604568        5.54497103199474
C           -2.76061357746802        0.21204559340538        3.19847650538950
C            3.37252417196814        0.07687279453118        5.23969390334220
C           -3.55807537233966        1.23812187440792        2.71389113261872
H            2.93426220627783        3.25475287792721        0.37919103172078
H            0.68587750669935        3.99061617957508       -0.14231144260160
H            4.53795472825738        2.06626553510184        1.86226554652010
H           -1.73450525388907        3.94438448654249        0.32516890459368
H            4.89759050923829        0.66237397952532        3.86009286999795
H           -3.65512130872474        2.95682280329041        1.44555007924975
H            4.06197908578150       -0.40152023493681        5.91085062138457
H           -4.61385123304015        1.19445111152621        2.91386673859708
O           -3.36976868492270       -0.78424941851823        3.87786303332085
C           -2.61338919885114       -1.83606851294727        4.33797952903074
C           -1.29144433416078       -1.96067345447595        3.97247245715324
N           -0.71580226964649       -0.97291336119478        3.18895645809876
C           -0.51034492931986       -3.07000311368523        4.34160455961255
C           -3.17138231427315       -2.81403852025892        5.14756708066671
C           -2.39646365155923       -3.88997356645332        5.54877565448066
C           -1.08076167574242       -4.03551463818971        5.14534590663238
N            0.77982160849716       -3.23304124508007        3.89282930633532
C            1.12787721204484       -2.37040973088733        3.00713994813638
N            0.42807876446384       -1.33048480194081        2.56198523413880
H            1.65755497546040       -0.23683762824883        6.48561598614850
H            0.06654185855649        0.75733436854207        4.89589169488716
H           -4.19826534324280       -2.71278276343151        5.44463384123047
H           -2.82955835871009       -4.64020312479703        6.18522636269905
H           -0.47607457207975       -4.87997335180083        5.42555067226632
C            2.48201607607156       -2.63349354658194        2.38954108971105
F            3.48057666812311       -2.51166591736925        3.28968185026192
F            2.60334371755243       -3.79368254464429        1.78885711205945
F            2.80106849883699       -1.82471435580866        1.39558693313535
92
 energy: -178.115699149414 gnorm: 0.140392115278 xtb: 6.6.1 (8d0f1dd)
C            0.66174079313736        1.54797661260157       -1.23448303036585
C            1.59433943628798        0.96414095493628       -0.33747623853516
C           -0.75581122659788        1.32354724621637       -1.20000889223777
C            1.17550556912922        2.44476611778230       -2.20430322397597
C            2.97384638674783        1.06144823588961       -0.57415657078541
C           -1.61383944091060        2.27492604074535       -1.81082438919356
C            2.56632721873829        2.54481378641259       -2.40240136201567
C            0.27927505378014        3.27154244277054       -2.93245528700070
C            3.44404507369055        1.82033843108528       -1.64944524533607
C           -1.05204703194633        3.25263212998679       -2.67782314131840
C            1.16911617095030        0.51526424862344        0.96175147312293