Optimization of monomers started
Stacking dimer
Calculating transfer integral
Reorganization energy (electron): 0.1963895964234576 eV
Reorganization energy (hole): 0.31685291148684536 eV
Electron Transfer integral J: 0.004 eV
Hole Transfer integral J: 0.007 eV
=                   |     
     |                         S. Grimme                         |     
     |          Mulliken Center for Theoretical Chemistry        |     
     |                    University of Bonn                     |     
      -----------------------------------------------------------      

   * xtb version 6.7.1 (edcfbbe) compiled by 'runner@Mac-1732539442253.local' on 2024-11-25

   xtb is free software: you can redistribute it and/or modify it under
   the terms of the GNU Lesser General Public License as published by
   the Free Software Foundation, either version 3 of the License, or
   (at your option) any later version.
   
   xtb is distributed in the hope that it will be useful,
   but WITHOUT ANY WARRANTY; without even the implied warranty of
   MERCHANTABILITY or FITNESS FOR A PARTICULAR PURPOSE.  See the
   GNU Lesser General Public License for more details.
   
   Cite this work as:
   * C. Bannwarth, E. Caldeweyher, S. Ehlert, A. Hansen, P. Pracht,
     J. Seibert, S. Spicher, S. Grimme, WIREs Comput. Mol. Sci., 2020, 11,
     e01493. DOI: 10.1002/wcms.1493
   
   for GFN2-xTB:
   * C. Bannwarth, S. Ehlert and S. Grimme., J. Chem. Theory Comput., 2019,
     15, 1652-1671. DOI: 10.1021/acs.jctc.8b01176
   for GFN1-xTB:
   * S. Grimme, C. Bannwarth, P. Shushkov, J. Chem. Theory Comput., 2017,
     13, 1989-2009. DOI: 10.1021/acs.jctc.7b00118
   for GFN0-xTB:
   * P. Pracht, E. Caldeweyher, S. Ehlert, S. Grimme, ChemRxiv, 2019, preprint.
     DOI: 10.26434/chemrxiv.8326202.v1
   for GFN-FF:
   * S. Spicher and S. Grimme, Angew. Chem. Int. Ed., 2020, 59, 15665-15673.
     DOI: 10.1002/anie.202004239
   
   for ALPB and GBSA implicit solvation:
   * S. Ehlert, M. Stahn, S. Spicher, S. Grimme, J. Chem. Theory Comput.,
     2021, 17, 4250-4261. DOI: 10.1021/acs.jctc.1c00471
   
   for ddCOSMO and CPCM-X implicit solvation:
   * M. Stahn, S. Ehlert, S. Grimme, J. Phys. Chem. A,
     2023, XX, XXXX-XXXX. DOI: 10.1021/acs.jpca.3c04382
   
   for DFT-D4:
   * E. Caldeweyher, C. Bannwarth and S. Grimme, J. Chem. Phys., 2017,
     147, 034112. DOI: 10.1063/1.4993215
   * E. Caldeweyher, S. Ehlert, A. Hansen, H. Neugebauer, S. Spicher,
     C. Bannwarth and S. Grimme, J. Chem. Phys., 2019, 150, 154122.
     DOI: 10.1063/1.5090222
   * E. Caldeweyher, J.-M. Mewes, S. Ehlert and S. Grimme, Phys. Chem. Chem. Phys.
     2020, 22, 8499-8512. DOI: 10.1039/D0CP00502A
   
   for sTDA-xTB:
   * S. Grimme and C. Bannwarth, J. Chem. Phys., 2016, 145, 054103.
     DOI: 10.1063/1.4959605
   
   in the mass-spec context:
   * V. Asgeirsson, C. Bauer and S. Grimme, Chem. Sci., 2017, 8, 4879.
     DOI: 10.1039/c7sc00601b
   * J. Koopman and S. Grimme, ACS Omega 2019, 4, 12, 15120-15133.
     DOI: 10.1021/acsomega.9b02011
   
   for metadynamics refer to:
   * S. Grimme, J. Chem. Theory Comput., 2019, 155, 2847-2862
     DOI: 10.1021/acs.jctc.9b00143
   
   for SPH calculations refer to:
   * S. Spicher and S. Grimme, J. Chem. Theory Comput., 2021, 17, 1701-1714
     DOI: 10.1021/acs.jctc.0c01306
   
   for ONIOM refer to:
   * C. Plett, A. Katbashev, S. Ehlert, S. Grimme, M. Bursch,
     Phys. Chem. Chem. Phys., 2023, 25, 17860-17868. DOI: 10.1039/D3CP02178E
   
   for DIPRO refer to:
   * J. Kohn, N. Gildemeister, S. Grimme, D. Fazzi, A. Hansen,
     J. Chem. Phys., 2023, just accepted.
   
   for PTB refer to:
   * S. Grimme, M. Mueller, A. Hansen, J. Chem. Phys., 2023, 158, 124111.
     DOI: 10.1063/5.0137838
   
   with help from (in alphabetical order)
   P. Atkinson, C. Bannwarth, F. Bohle, G. Brandenburg, E. Caldeweyher
   M. Checinski, S. Dohm, S. Ehlert, S. Ehrlich, I. Gerasimov, C. Hölzer
   A. Katbashev, J. Kohn, J. Koopman, C. Lavigne, S. Lehtola, F. März, M. Müller,
   F. Musil, H. Neugebauer, J. Pisarek, C. Plett, P. Pracht, F. Pultar,
   J. Seibert, P. Shushkov, S. Spicher, M. Stahn, M. Steiner, T. Strunk,
   J. Stückrath, T. Rose, and J. Unsleber
   
 * started run on 2024/12/02 at 12:36:08.249     
   ID    Z sym.   atoms
    1    6 C      1-11, 13, 14, 16-23, 32-49
    2    7 N      12, 15
    3    8 O      24, 25
    4    1 H      26-31, 50-96

           -------------------------------------------------
          |                Calculation Setup                |
           -------------------------------------------------

          program call               : xtb Base4tBu.mol --opt --gfn 2 --chrg 0 --uhf 1 --vtight
          coordinate file            : Base4tBu.mol
          omp threads                :                     8


molecular fragmentation (1/2 indicates fragments):
111111111111111111111111111111111112211111111222222222222211111111111111
111111111112222221111111
# atoms in fragment 1/2:    75    21
 fragment masses (1/2) :      494.67       87.18
CMA distance (Bohr)    :   5.922
constraining FC (au)   :  0.0500
########################################################################
[WARNING] Please study the warnings concerning your input carefully
-2- prog_main: Charge in sdf/mol input was overwritten
-1- prog_main_parseArguments: Unknown option '--vtight' provided
########################################################################

           -------------------------------------------------
          |                 G F N 2 - x T B                 |
           -------------------------------------------------

        Reference                      10.1021/acs.jctc.8b01176
      * Hamiltonian:
        H0-scaling (s, p, d)           1.850000    2.230000    2.230000
        zeta-weighting                 0.500000
      * Dispersion:
        s8                             2.700000
        a1                             0.520000
        a2                             5.000000
        s9                             5.000000
      * Repulsion:
        kExp                           1.500000    1.000000
        rExp                           1.000000
      * Coulomb:
        alpha                          2.000000
        third order                    shell-resolved
        anisotropic                    true
        a3                             3.000000
        a5                             4.000000
        cn-shift                       1.200000
        cn-exp                         4.000000
        max-rad                        5.000000


          ...................................................
          :                      SETUP                      :
          :.................................................:
          :  # basis functions                 225          :
          :  # atomic orbitals                 225          :
          :  # shells                          139          :
          :  # electrons                       231          :
          :  max. iterations                   250          :
          :  Hamiltonian                  GFN2-xTB          :
          :  restarted?                      false          :
          :  GBSA solvation                  false          :
          :  PC potential                    false          :
          :  electronic temp.          300.0000000     K    :
          :  accuracy                    1.0000000          :
          :  -> integral cutoff          0.2500000E+02      :
          :  -> integral neglect         0.1000000E-07      :
          :  -> SCF convergence          0.1000000E-05 Eh   :
          :  -> wf. convergence          0.1000000E-03 e    :
          :  Broyden damping             0.4000000          :
          :  net charge                          0          :
          :  unpaired electrons                  1          :
          ...................................................

 iter      E             dE          RMSdq      gap      omega  full diag
   1   -124.2167592 -0.124217E+03  0.397E+00    0.67       0.0  T
   2   -123.9710628  0.245696E+00  0.293E+00    0.22       1.0  T
   3   -123.9791861 -0.812338E-02  0.230E+00    0.66       1.0  T
   4   -124.4863126 -0.507126E+00  0.929E-01    0.72       1.0  T
   5   -124.5054777 -0.191650E-01  0.575E-01    0.61       1.0  T
   6   -124.5283057 -0.228281E-01  0.376E-01    0.75       1.0  T
   7   -124.5267627  0.154306E-02  0.266E-01    0.64       1.0  T
   8   -124.5286190 -0.185633E-02  0.152E-01    0.76       1.0  T
   9   -124.5312210 -0.260197E-02  0.692E-02    0.69       1.0  T
  10   -124.5317866 -0.565643E-03  0.289E-02    0.70       1.0  T
  11   -124.5318240 -0.373474E-04  0.172E-02    0.70       1.0  T
  12   -124.5318375 -0.135407E-04  0.112E-02    0.71       1.0  T
  13   -124.5318493 -0.118038E-04  0.529E-03    0.70       1.9  T
  14   -124.5318509 -0.161632E-05  0.254E-03    0.70       4.0  T
  15   -124.5318514 -0.473187E-06  0.111E-03    0.70       9.2  T
  16   -124.5318515 -0.930603E-07  0.492E-04    0.70      20.7  T
  17   -124.5318515 -0.160119E-07  0.235E-04    0.70      43.4  T

   *** convergence criteria satisfied after 17 iterations ***

         #    Occupation            Energy/Eh            Energy/eV
      -------------------------------------------------------------
         1        2.0000           -0.6975998             -18.9827
       ...           ...                  ...                  ...
       110        2.0000           -0.3676298             -10.0037
       111        2.0000           -0.3582812              -9.7493
       112        2.0000           -0.3530641              -9.6074
       113        2.0000           -0.3342686              -9.0959
       114        1.9992           -0.3110010              -8.4628
       115        1.9982           -0.3102558              -8.4425
       116        1.0026           -0.2986065              -8.1255 (HOMO)
       117        0.0000           -0.2728094              -7.4235 (LUMO)
       118                         -0.2567940              -6.9877
       119                         -0.2505605              -6.8181
       120                         -0.2417597              -6.5786
       121                         -0.2339527              -6.3662
       ...                                ...                  ...
       225                          0.9745811              26.5197
      -------------------------------------------------------------
                  HL-Gap            0.0257971 Eh            0.7020 eV
             Fermi-level           -0.2949800 Eh           -8.0268 eV

 SCC (total)                   0 d,  0 h,  0 min,  0.445 sec
 SCC setup                      ...        0 min,  0.000 sec (  0.053%)
 Dispersion                     ...        0 min,  0.001 sec (  0.194%)
 classical contributions        ...        0 min,  0.000 sec (  0.045%)
 integral evaluation            ...        0 min,  0.004 sec (  0.825%)
 iterations                     ...        0 min,  0.413 sec ( 92.733%)
 molecular gradient             ...        0 min,  0.024 sec (  5.474%)
 printout                       ...        0 min,  0.003 sec (  0.673%)

         :::::::::::::::::::::::::::::::::::::::::::::::::::::
         ::                     SUMMARY                     ::
         :::::::::::::::::::::::::::::::::::::::::::::::::::::
         :: total energy            -122.949107719900 Eh    ::
         :: gradient norm              0.888580446228 Eh/a0 ::
         :: HOMO-LUMO gap              0.701975586187 eV    ::
         ::.................................................::
         :: SCC energy              -124.529482749664 Eh    ::
         :: -> isotropic ES            0.075133531322 Eh    ::
         :: -> anisotropic ES          0.033639049680 Eh    ::
         :: -> anisotropic XC          0.080445852867 Eh    ::
         :: -> dispersion             -0.108418789689 Eh    ::
         :: repulsion energy           1.580375029764 Eh    ::
         :: add. restraining           0.000000000000 Eh    ::
         :: total charge               0.000000000052 e     ::
         :::::::::::::::::::::::::::::::::::::::::::::::::::::

      ----------------------------------------------------------- 
     |                   =====================                   |
     |                        A N C O P T                        |
     |                   =====================                   |
     |               Approximate Normal Coordinate               |
     |                Rational Function Optimizer                |
      ----------------------------------------------------------- 
      ----------------------------------------------------------- 
     |                   =====================                   |
     |                        A N C O P T                        |
     |                   =====================                   |
     |               Approximate Normal Coordinate               |
     |                Rational Function Optimizer                |
      ----------------------------------------------------------- 

          ...................................................
          :                      SETUP                      :
          :.................................................:
          :   optimization level            normal          :
          :   max. optcycles                   288          :
          :   ANC micro-cycles                  20          :
          :   degrees of freedom               282          :
          :.................................................:
          :   RF solver                   davidson          :
          :   write xtbopt.log                true          :
          :   linear?                        false          :
          :   energy convergence         0.5000000E-05 Eh   :
          :   grad. convergence          0.1000000E-02 Eh/α :
          :   maxmium RF displ.          1.0000000          :
          :   Hlow (freq-cutoff)         0.1000000E-01      :
          :   Hmax (freq-cutoff)         5.0000000          :
          :   S6 in model hess.         20.0000000          :
          ...................................................

generating ANC from exact Hessian ...
Using Lindh-Hessian (1995)
 Shifting diagonal of input Hessian by    1.2897428276440345E-002
 Lowest  eigenvalues of input Hessian
    0.010000    0.012747    0.012834    0.012856    0.000000    0.012864
    0.000000    0.000000    0.000000    0.000000    0.000000    0.012954
    0.013012    0.013081    0.013117    0.013198    0.013219    0.013326
 Highest eigenvalues
    1.606667    1.615859    1.920411    1.990095    2.296821    2.627654


........................................................................
.............................. CYCLE    1 ..............................
........................................................................

 iter      E             dE          RMSdq      gap      omega  full diag
   1   -124.5318515 -0.124532E+03  0.116E-04    0.70       0.0  T
   2   -124.5318515  0.558543E-09  0.113E-04    0.70      90.4  T
   3   -124.5318515 -0.132371E-08  0.502E-05    0.70     203.4  T
     SCC iter.                  ...        0 min,  0.080 sec
     gradient                   ...        0 min,  0.031 sec
 * total energy  :  -122.9491077 Eh     change       -0.4105956E-08 Eh
   gradient norm :     0.8885882 Eh/α   predicted     0.0000000E+00 (-100.00%)
   displ. norm   :     0.7284102 α      lambda       -0.5382726E+00
   maximum displ.:     0.2956479 α      in ANC's #118, #194, #282, ...

........................................................................
.............................. CYCLE    2 ..............................
........................................................................

 iter      E             dE          RMSdq      gap      omega  full diag
   1   -124.8420408 -0.124842E+03  0.437E-01    0.76       0.0  T
   2   -124.8431329 -0.109214E-02  0.282E-01    0.79       1.0  T
   3   -124.8340154  0.911757E-02  0.271E-01    0.69       1.0  T
   4   -124.8426721 -0.865670E-02  0.106E-01    0.81       1.0  T
   5   -124.8440292 -0.135713E-02  0.546E-02    0.74       1.0  T
   6   -124.8444139 -0.384734E-03  0.192E-02    0.76       1.0  T
   7   -124.8444320 -0.180283E-04  0.111E-02    0.76       1.0  T
   8   -124.8444426 -0.106187E-04  0.566E-03    0.76       1.8  T
   9   -124.8444458 -0.321509E-05  0.251E-03    0.76       4.1  T
  10   -124.8444461 -0.342569E-06  0.128E-03    0.76       8.0  T
  11   -124.8444462 -0.935199E-07  0.486E-04    0.76      21.0  T
  12   -124.8444462 -0.879396E-08  0.262E-04    0.76      38.9  T
     SCC iter.                  ...        0 min,  0.303 sec
     gradient                   ...        0 min,  0.024 sec
 * total energy  :  -123.3802693 Eh     change       -0.4311615E+00 Eh
   gradient norm :     0.4872801 Eh/α   predicted    -0.4121243E+00 (  -4.42%)
   displ. norm   :     0.7865538 α      lambda       -0.3399082E+00
   maximum displ.:     0.3827909 α      in ANC's #118, #194, #119, ...

........................................................................
.............................. CYCLE    3 ..............................
........................................................................

 iter      E             dE          RMSdq      gap      omega  full diag
   1   -125.1059387 -0.125106E+03  0.393E-01    0.80       0.0  T
   2   -125.1058938  0.448523E-04  0.257E-01    0.81       1.0  T
   3   -125.1007561  0.513773E-02  0.241E-01    0.80       1.0  T
   4   -125.1066700 -0.591393E-02  0.743E-02    0.81       1.0  T
   5   -125.1072704 -0.600371E-03  0.325E-02    0.81       1.0  T
   6   -125.1073664 -0.959411E-04  0.190E-02    0.80       1.0  T
   7   -125.1073995 -0.331739E-04  0.106E-02    0.81       1.0  T
   8   -125.1074130 -0.134589E-04  0.492E-03    0.80       2.1  T
   9   -125.1074151 -0.213560E-05  0.239E-03    0.80       4.3  T
  10   -125.1074155 -0.345636E-06  0.929E-04    0.80      11.0  T
  11   -125.1074155 -0.289170E-07  0.519E-04    0.80      19.7  T
     SCC iter.                  ...        0 min,  0.323 sec
     gradient                   ...        0 min,  0.025 sec
 * total energy  :  -123.6667232 Eh     change       -0.2864540E+00 Eh
   gradient norm :     0.3048407 Eh/α   predicted    -0.2750991E+00 (  -3.96%)
   displ. norm   :     0.8316525 α      lambda       -0.2390157E+00
   maximum displ.:     0.3984626 α      in ANC's #118, #119, #194, ...

........................................................................
.............................. CYCLE    4 ..............................
........................................................................

 iter      E             dE          RMSdq      gap      omega  full diag
   1   -125.3299647 -0.125330E+03  0.387E-01    0.82       0.0  T
   2   -125.3261493  0.381539E-02  0.288E-01    0.83       1.0  T
   3   -125.3054632  0.206861E-01  0.444E-01    0.81       1.0  T
   4   -125.3229401 -0.174769E-01  0.227E-01    0.79       1.0  T
   5   -125.3317128 -0.877279E-02  0.790E-02    0.84       1.0  T
   6   -125.3319761 -0.263280E-03  0.571E-02    0.82       1.0  T
   7   -125.3322677 -0.291616E-03  0.373E-02    0.83       1.0  T
   8   -125.3323761 -0.108400E-03  0.170E-02    0.83       1.0  T
   9   -125.3324153 -0.391417E-04  0.322E-03    0.83       3.2  T
  10   -125.3324157 -0.379349E-06  0.187E-03    0.83       5.5  T
  11   -125.3324159 -0.284947E-06  0.913E-04    0.83      11.2  T
  12   -125.3324160 -0.504848E-07  0.389E-04    0.83      26.3  T
     SCC iter.                  ...        0 min,  0.348 sec
     gradient                   ...        0 min,  0.023 sec
 * total energy  :  -123.8711309 Eh     change       -0.2044077E+00 Eh
   gradient norm :     0.2076158 Eh/α   predicted    -0.2021655E+00 (  -1.10%)
   displ. norm   :     0.8562953 α      lambda       -0.1719276E+00
   maximum displ.:     0.3788786 α      in ANC's #118, #119, #44, ...

........................................................................
.............................. CYCLE    5 ..............................
........................................................................

 iter      E             dE          RMSdq      gap      omega  full diag
   1   -125.5253173 -0.125525E+03  0.454E-01    0.80       0.0  T
   2   -125.5086863  0.166310E-01  0.424E-01    0.89       1.0  T
   3   -125.5106315 -0.194520E-02  0.422E-01    0.80       1.0  T
   4   -125.5196110 -0.897953E-02  0.243E-01    0.83       1.0  T
   5   -125.5309893 -0.113783E-01  0.655E-02    0.86       1.0  T
   6   -125.5312973 -0.307999E-03  0.378E-02    0.85       1.0  T
   7   -125.5314259 -0.128626E-03  0.194E-02    0.84       1.0  T
   8   -125.5314555 -0.295737E-04  0.520E-03    0.84       2.0  T
   9   -125.5314583 -0.287204E-05  0.186E-03    0.84       5.5  T
  10   -125.5314585 -0.137961E-06  0.112E-03    0.84       9.1  T
  11   -125.5314586 -0.102026E-06  0.412E-04    0.84      24.8  T
  12   -125.5314586 -0.338034E-08  0.291E-04    0.84      35.0  T
     SCC iter.                  ...        0 min,  0.264 sec
     gradient                   ...        0 min,  0.027 sec
 * total energy  :  -124.0211256 Eh     change       -0.1499947E+00 Eh
   gradient norm :     0.1588406 Eh/α   predicted    -0.1489968E+00 (  -0.67%)
   displ. norm   :     0.8823066 α      lambda       -0.1345114E+00
   maximum displ.:     0.3433660 α      in ANC's #118, #44, #76, ...

........................................................................
.............................. CYCLE    6 ..............................
........................................................................

 iter      E             dE          RMSdq      gap      omega  full diag
   1   -125.7026396 -0.125703E+03  0.489E-01    0.78       0.0  T
   2   -125.6866912  0.159484E-01  0.424E-01    0.96       1.0  T
   3   -125.6892141 -0.252285E-02  0.422E-01    0.80       1.0  T
   4   -125.7034230 -0.142090E-01  0.194E-01    0.85       1.0  T
   5   -125.7096229 -0.619988E-02  0.372E-02    0.86       1.0  T
   6   -125.7097569 -0.134035E-03  0.155E-02    0.85       1.0  T
   7   -125.7097750 -0.180407E-04  0.758E-03    0.85       1.3  T
   8   -125.7097770 -0.200862E-05  0.267E-03    0.85       3.8  T
   9   -125.7097775 -0.564267E-06  0.119E-03    0.85       8.6  T
  10   -125.7097776 -0.990098E-07  0.536E-04    0.85      19.0  T
  11   -125.7097777 -0.151504E-07  0.229E-04    0.85      44.6  T
     SCC iter.                  ...        0 min,  0.314 sec
     gradient                   ...        0 min,  0.024 sec
 * total energy  :  -124.1412686 Eh     change       -0.1201430E+00 Eh
   gradient norm :     0.1295715 Eh/α   predicted    -0.1196119E+00 (  -0.44%)
   displ. norm   :     0.8928402 α      lambda       -0.1081483E+00
   maximum displ.:     0.2629523 α      in ANC's #118, #44, #56, ...

........................................................................
.............................. CYCLE    7 ..............................
........................................................................

 iter      E             dE          RMSdq      gap      omega  full diag
   1   -125.8488095 -0.125849E+03  0.414E-01    0.82       0.0  T
   2   -125.8351221  0.136874E-01  0.385E-01    0.98       1.0  T
   3   -125.8431129 -0.799075E-02  0.319E-01    0.86       1.0  T
   4   -125.8526408 -0.952794E-02  0.127E-01    0.87       1.0  T
   5   -125.8546793 -0.203851E-02  0.195E-02    0.88       1.0  T
   6   -125.8547092 -0.299104E-04  0.912E-03    0.88       1.1  T
   7   -125.8547145 -0.521593E-05  0.521E-03    0.88       2.0  T
   8   -125.8547157 -0.125350E-05  0.143E-03    0.88       7.2  T
   9   -125.8547158 -0.595343E-07  0.803E-04    0.88      12.7  T
  10   -125.8547158 -0.414846E-07  0.273E-04    0.88      37.3  T
     SCC iter.                  ...        0 min,  0.224 sec
     gradient                   ...        0 min,  0.024 sec
 * total energy  :  -124.2359296 Eh     change       -0.9466097E-01 Eh
   gradient norm :     0.1072127 Eh/α   predicted    -0.9718012E-01 (   2.66%)
   displ. norm   :     0.8761429 α      lambda       -0.8172917E-01
   maximum displ.:     0.2619287 α      in ANC's #44, #56, #54, ...

........................................................................
.............................. CYCLE    8 ..............................
........................................................................

 iter      E             dE          RMSdq      gap      omega  full diag
   1   -125.9657432 -0.125966E+03  0.289E-01    0.91       0.0  T
   2   -125.9572234  0.851981E-02  0.313E-01    0.96       1.0  T
   3   -125.9668205 -0.959714E-02  0.173E-01    0.94       1.0  T
   4   -125.9685621 -0.174156E-02  0.829E-02    0.91       1.0  T
   5   -125.9694427 -0.880628E-03  0.168E-02    0.93       1.0  T
   6   -125.9694734 -0.306807E-04  0.485E-03    0.92       2.1  T
   7   -125.9694742 -0.758902E-06  0.318E-03    0.92       3.2  T
   8   -125.9694748 -0.631821E-06  0.108E-03    0.92       9.5  T
   9   -125.9694748 -0.103503E-07  0.500E-04    0.92      20.4  T
  10   -125.9694748 -0.157722E-07  0.216E-04    0.92      47.2  T
     SCC iter.                  ...        0 min,  0.230 sec
     gradient                   ...        0 min,  0.022 sec
 * total energy  :  -124.3066929 Eh     change       -0.7076332E-01 Eh
   gradient norm :     0.0792920 Eh/α   predicted    -0.7223331E-01 (   2.08%)
   displ. norm   :     0.8741845 α      lambda       -0.6095230E-01
   maximum displ.:     0.2934154 α      in ANC's #44, #28, #49, ...

........................................................................
.............................. CYCLE    9 ..............................
........................................................................

 iter      E             dE          RMSdq      gap      omega  full diag
   1   -126.0635241 -0.126064E+03  0.229E-01    0.97       0.0  T
   2   -126.0606543  0.286981E-02  0.207E-01    0.96       1.0  T
   3   -126.0635715 -0.291714E-02  0.140E-01    1.00       1.0  T
   4   -126.0648329 -0.126147E-02  0.590E-02    0.95       1.0  T
   5   -126.0652966 -0.463686E-03  0.123E-02    0.97       1.0  T
   6   -126.0653158 -0.191543E-04  0.316E-03    0.97       3.2  T
   7   -126.0653160 -0.243610E-06  0.198E-03    0.97       5.1  T
   8   -126.0653163 -0.294261E-06  0.657E-04    0.97      15.5  T
   9   -126.0653163 -0.918125E-08  0.294E-04    0.97      34.8  T
     SCC iter.                  ...        0 min,  0.209 sec
     gradient                   ...        0 min,  0.027 sec
 * total energy  :  -124.3603396 Eh     change       -0.5364666E-01 Eh
   gradient norm :     0.0612926 Eh/α   predicted    -0.5376598E-01 (   0.22%)
   displ. norm   :     0.8893175 α      lambda       -0.4940753E-01
   maximum displ.:     0.2775123 α      in ANC's #44, #28, #25, ...

........................................................................
.............................. CYCLE   10 ..............................
........................................................................

 iter      E             dE          RMSdq      gap      omega  full diag
   1   -126.1431294 -0.126143E+03  0.191E-01    1.06       0.0  T
   2   -126.1430511  0.782941E-04  0.126E-01    1.04       1.0  T
   3   -126.1423469  0.704222E-03  0.112E-01    1.09       1.0  T
   4   -126.1433450 -0.998082E-03  0.403E-02    1.04       1.0  T
   5   -126.1436031 -0.258120E-03  0.961E-03    1.06       1.1  T
   6   -126.1436151 -0.119718E-04  0.303E-03    1.06       3.4  T
   7   -126.1436152 -0.149181E-06  0.184E-03    1.06       5.6  T
   8   -126.1436154 -0.180412E-06  0.783E-04    1.06      13.0  T
   9   -126.1436154 -0.139057E-07  0.339E-04    1.06      30.1  T
     SCC iter.                  ...        0 min,  0.270 sec
     gradient                   ...        0 min,  0.024 sec
 * total energy  :  -124.4030800 Eh     change       -0.4274045E-01 Eh
   gradient norm :     0.0574957 Eh/α   predicted    -0.4424160E-01 (   3.51%)
   displ. norm   :     0.9086886 α      lambda       -0.4378656E-01
   maximum displ.:     0.2712320 α      in ANC's #44, #28, #43, ...

........................................................................
.............................. CYCLE   11 ..............................
........................................................................

 iter      E             dE          RMSdq      gap      omega  full diag
   1   -126.2047643 -0.126205E+03  0.189E-01    1.02       0.0  T
   2   -126.2049380 -0.173676E-03  0.127E-01    1.05       1.0  T
   3   -126.2050198 -0.818028E-04  0.793E-02    1.03       1.0  T
   4   -126.2052473 -0.227470E-03  0.129E-02    1.04       1.0  T
   5   -126.2052574 -0.100712E-04  0.661E-03    1.04       1.5  T
   6   -126.2052611 -0.372391E-05  0.321E-03    1.04       3.2  T
   7   -126.2052619 -0.799363E-06  0.186E-03    1.04       5.5  T
   8   -126.2052622 -0.370846E-06  0.515E-04    1.04      19.8  T
   9   -126.2052623 -0.150331E-07  0.232E-04    1.04      44.0  T
     SCC iter.                  ...        0 min,  0.266 sec
     gradient                   ...        0 min,  0.024 sec
 * total energy  :  -124.4375963 Eh     change       -0.3451630E-01 Eh
   gradient norm :     0.0648842 Eh/α   predicted    -0.3997087E-01 (  15.80%)
   displ. norm   :     0.8585806 α      lambda       -0.3773716E-01
   maximum displ.:     0.2715077 α      in ANC's #28, #44, #43, ...

........................................................................
.............................. CYCLE   12 ..............................
........................................................................

 iter      E             dE          RMSdq      gap      omega  full diag
   1   -126.2657185 -0.126266E+03  0.190E-01    1.13       0.0  T
   2   -126.2659237 -0.205207E-03  0.119E-01    1.12       1.0  T
   3   -126.2657354  0.188289E-03  0.643E-02    1.15       1.0  T
   4   -126.2660061 -0.270668E-03  0.183E-02    1.12       1.0  T
   5   -126.2660512 -0.451308E-04  0.856E-03    1.13       1.2  T
   6   -126.2660605 -0.927383E-05  0.270E-03    1.13       3.8  T
   7   -126.2660607 -0.223538E-06  0.137E-03    1.13       7.4  T
   8   -126.2660608 -0.681474E-07  0.613E-04    1.13      16.6  T
   9   -126.2660608 -0.119506E-07  0.296E-04    1.13      34.5  T
     SCC iter.                  ...        0 min,  0.209 sec
     gradient                   ...        0 min,  0.025 sec
 * total energy  :  -124.4662355 Eh     change       -0.2863918E-01 Eh
   gradient norm :     0.0585851 Eh/α   predicted    -0.3277774E-01 (  14.45%)
   displ. norm   :     0.8470626 α      lambda       -0.3153453E-01
   maximum displ.:     0.2643113 α      in ANC's #28, #43, #23, ...

........................................................................
.............................. CYCLE   13 ..............................
........................................................................

 iter      E             dE          RMSdq      gap      omega  full diag
   1   -126.3033923 -0.126303E+03  0.155E-01    1.12       0.0  T
   2   -126.3035516 -0.159264E-03  0.996E-02    1.16       1.0  T
   3   -126.3033739  0.177666E-03  0.668E-02    1.11       1.0  T
   4   -126.3035910 -0.217060E-03  0.317E-02    1.16       1.0  T
   5   -126.3037458 -0.154818E-03  0.782E-03    1.14       1.3  T
   6   -126.3037507 -0.484328E-05  0.325E-03    1.14       3.1  T
   7   -126.3037507 -0.702893E-07  0.158E-03    1.14       6.5  T
   8   -126.3037508 -0.111413E-06  0.598E-04    1.14      17.1  T
   9   -126.3037509 -0.119195E-07  0.320E-04    1.14      31.9  T
     SCC iter.                  ...        0 min,  0.260 sec
     gradient                   ...        0 min,  0.024 sec
 * total energy  :  -124.4907616 Eh     change       -0.2452605E-01 Eh
   gradient norm :     0.0437939 Eh/α   predicted    -0.2708055E-01 (  10.42%)
   displ. norm   :     0.8556227 α      lambda       -0.2520344E-01
   maximum displ.:     0.2683859 α      in ANC's #28, #43, #23, ...

........................................................................
.............................. CYCLE   14 ..............................
........................................................................

 iter      E             dE          RMSdq      gap      omega  full diag
   1   -126.3485019 -0.126349E+03  0.154E-01    1.12       0.0  T
   2   -126.3485846 -0.826971E-04  0.959E-02    1.14       1.0  T
   3   -126.3482495  0.335077E-03  0.604E-02    1.11       1.0  T
   4   -126.3486183 -0.368820E-03  0.202E-02    1.14       1.0  T
   5   -126.3486794 -0.611280E-04  0.651E-03    1.13       1.6  T
   6   -126.3486835 -0.404916E-05  0.240E-03    1.13       4.3  T
   7   -126.3486838 -0.277138E-06  0.119E-03    1.13       8.6  T
   8   -126.3486838 -0.491442E-07  0.506E-04    1.13      20.2  T
   9   -126.3486838 -0.674396E-08  0.206E-04    1.13      49.5  T
     SCC iter.                  ...        0 min,  0.231 sec
     gradient                   ...        0 min,  0.024 sec
 * total energy  :  -124.5100819 Eh     change       -0.1932030E-01 Eh
   gradient norm :     0.0460168 Eh/α   predicted    -0.2182731E-01 (  12.98%)
   displ. norm   :     0.8350917 α      lambda       -0.2225010E-01
   maximum displ.:     0.2567869 α      in ANC's #28, #43, #7, ...

........................................................................
.............................. CYCLE   15 ..............................
........................................................................

 iter      E             dE          RMSdq      gap      omega  full diag
   1   -126.3790881 -0.126379E+03  0.155E-01    1.14       0.0  T
   2   -126.3792172 -0.129149E-03  0.947E-02    1.16       1.0  T
   3   -126.3791245  0.927112E-04  0.503E-02    1.14       1.0  T
   4   -126.3792700 -0.145420E-03  0.970E-03    1.15       1.1  T
   5   -126.3792749 -0.492464E-05  0.407E-03    1.16       2.5  T
   6   -126.3792753 -0.416958E-06  0.241E-03    1.15       4.2  T
   7   -126.3792755 -0.237438E-06  0.120E-03    1.15       8.5  T
   8   -126.3792756 -0.267415E-07  0.587E-04    1.15      17.4  T
   9   -126.3792756 -0.211678E-07  0.258E-04    1.15      39.6  T
     SCC iter.                  ...        0 min,  0.287 sec
     gradient                   ...        0 min,  0.022 sec
 * total energy  :  -124.5262824 Eh     change       -0.1620055E-01 Eh
   gradient norm :     0.0384329 Eh/α   predicted    -0.1888342E-01 (  16.56%)
   displ. norm   :     0.8106194 α      lambda       -0.1702407E-01
   maximum displ.:     0.2606911 α      in ANC's #7, #28, #27, ...

........................................................................
.............................. CYCLE   16 ..............................
........................................................................

 iter      E             dE          RMSdq      gap      omega  full diag
   1   -126.4043346 -0.126404E+03  0.140E-01    1.18       0.0  T
   2   -126.4044215 -0.869065E-04  0.861E-02    1.18       1.0  T
   3   -126.4042768  0.144622E-03  0.459E-02    1.19       1.0  T
   4   -126.4044753 -0.198505E-03  0.960E-03    1.18       1.1  T
   5   -126.4044853 -0.994950E-05  0.437E-03    1.18       2.3  T
   6   -126.4044868 -0.150975E-05  0.215E-03    1.18       4.8  T
   7   -126.4044871 -0.303941E-06  0.106E-03    1.18       9.6  T
   8   -126.4044872 -0.896537E-07  0.390E-04    1.18      26.2  T
   9   -126.4044872 -0.390678E-08  0.159E-04    1.18      64.2  T
     SCC iter.                  ...        0 min,  0.212 sec
     gradient                   ...        0 min,  0.023 sec
 * total energy  :  -124.5376545 Eh     change       -0.1137210E-01 Eh
   gradient norm :     0.0424107 Eh/α   predicted    -0.1410532E-01 (  24.03%)
   displ. norm   :     0.7648160 α      lambda       -0.1593636E-01
   maximum displ.:     0.2741038 α      in ANC's #7, #27, #28, ...

........................................................................
.............................. CYCLE   17 ..............................
........................................................................

 iter      E             dE          RMSdq      gap      omega  full diag
   1   -126.4309765 -0.126431E+03  0.170E-01    1.20       0.0  T
   2   -126.4310983 -0.121798E-03  0.102E-01    1.20       1.0  T
   3   -126.4310420  0.563226E-04  0.346E-02    1.20       1.0  T
   4   -126.4311175 -0.755525E-04  0.996E-03    1.20       1.0  T
   5   -126.4311224 -0.492216E-05  0.428E-03    1.20       2.4  T
   6   -126.4311237 -0.123218E-05  0.231E-03    1.20       4.4  T
   7   -126.4311240 -0.306115E-06  0.127E-03    1.20       8.0  T
   8   -126.4311240 -0.603263E-07  0.572E-04    1.20      17.8  T
   9   -126.4311241 -0.305931E-07  0.207E-04    1.20      49.2  T
     SCC iter.                  ...        0 min,  0.195 sec
     gradient                   ...        0 min,  0.024 sec
 * total energy  :  -124.5470872 Eh     change       -0.9432734E-02 Eh
   gradient norm :     0.0391248 Eh/α   predicted    -0.1262911E-01 (  33.89%)
   displ. norm   :     0.7108566 α      lambda       -0.1109255E-01
   maximum displ.:     0.2912361 α      in ANC's #7, #8, #23, ...

........................................................................
.............................. CYCLE   18 ..............................
........................................................................

 iter      E             dE          RMSdq      gap      omega  full diag
   1   -126.4443980 -0.126444E+03  0.113E-01    1.20       0.0  T
   2   -126.4444328 -0.348535E-04  0.685E-02    1.22       1.0  T
   3   -126.4443223  0.110533E-03  0.394E-02    1.20       1.0  T
   4   -126.4444589 -0.136547E-03  0.758E-03    1.21       1.3  T
   5   -126.4444644 -0.551098E-05  0.445E-03    1.21       2.3  T
   6   -126.4444667 -0.232311E-05  0.141E-03    1.21       7.2  T
   7   -126.4444667 -0.437752E-07  0.764E-04    1.21      13.4  T
   8   -126.4444668 -0.193138E-07  0.338E-04    1.21      30.2  T
     SCC iter.                  ...        0 min,  0.176 sec
     gradient                   ...        0 min,  0.024 sec
 * total energy  :  -124.5547486 Eh     change       -0.7661342E-02 Eh
   gradient norm :     0.0293989 Eh/α   predicted    -0.8348904E-02 (   8.97%)
   displ. norm   :     0.7376714 α      lambda       -0.9608873E-02
   maximum displ.:     0.3617863 α      in ANC's #7, #8, #15, ...

........................................................................
.............................. CYCLE   19 ..............................
........................................................................

 iter      E             dE          RMSdq      gap      omega  full diag
   1   -126.4622530 -0.126462E+03  0.120E-01    1.24       0.0  T
   2   -126.4622859 -0.329249E-04  0.739E-02    1.23       1.0  T
   3   -126.4621164  0.169483E-03  0.408E-02    1.24       1.0  T
   4   -126.4623182 -0.201730E-03  0.663E-03    1.23       1.5  T
   5   -126.4623225 -0.433944E-05  0.362E-03    1.23       2.8  T
   6   -126.4623237 -0.117328E-05  0.175E-03    1.23       5.8  T
   7   -126.4623237 -0.707853E-07  0.782E-04    1.23      13.0  T
   8   -126.4623238 -0.377531E-07  0.327E-04    1.23      31.2  T
     SCC iter.                  ...        0 min,  0.169 sec
     gradient                   ...        0 min,  0.023 sec
 * total energy  :  -124.5609495 Eh     change       -0.6200952E-02 Eh
   gradient norm :     0.0308821 Eh/α   predicted    -0.7418817E-02 (  19.64%)
   displ. norm   :     0.7235300 α      lambda       -0.7604060E-02
   maximum displ.:     0.3828530 α      in ANC's #7, #8, #9, ...

........................................................................
.............................. CYCLE   20 ..............................
........................................................................

 iter      E             dE          RMSdq      gap      omega  full diag
   1   -126.4691312 -0.126469E+03  0.104E-01    1.29       0.0  T
   2   -126.4691678 -0.365503E-04  0.623E-02    1.29       1.0  T
   3   -126.4690972  0.706172E-04  0.287E-02    1.29       1.0  T
   4   -126.4691828 -0.856726E-04  0.598E-03    1.29       1.7  T
   5   -126.4691868 -0.400498E-05  0.224E-03    1.29       4.6  T
   6   -126.4691870 -0.176546E-06  0.124E-03    1.29       8.3  T
   7   -126.4691871 -0.542770E-07  0.550E-04    1.29      18.6  T
   8   -126.4691871 -0.236283E-07  0.253E-04    1.29      40.3  T
     SCC iter.                  ...        0 min,  0.195 sec
     gradient                   ...        0 min,  0.025 sec
 * total energy  :  -124.5666671 Eh     change       -0.5717520E-02 Eh
   gradient norm :     0.0243141 Eh/α   predicted    -0.5792373E-02 (   1.31%)
   displ. norm   :     0.7681332 α      lambda       -0.7948661E-02
   maximum displ.:     0.4362164 α      in ANC's #7, #8, #9, ...
 * RMSD in coord.:     1.3091391 α      energy gain  -0.1617559E+01 Eh

generating ANC from exact Hessian ...
Using Lindh-Hessian (1995)
 Shifting diagonal of input Hessian by    9.8751322836707345E-003
 Lowest  eigenvalues of input Hessian
    0.000000    0.000000    0.000000    0.000000    0.000000    0.000000
    0.010000    0.010020    0.010052    0.010270    0.010319    0.010397
    0.010431    0.010509    0.010708    0.010788    0.010836    0.011196
 Highest eigenvalues
    2.005102    2.019634    2.046645    2.077452    2.154863    2.176382


........................................................................
.............................. CYCLE   21 ..............................
........................................................................

 iter      E             dE          RMSdq      gap      omega  full diag
   1   -126.4839714 -0.126484E+03  0.132E-01    1.30       0.0  T
   2   -126.4840399 -0.685593E-04  0.817E-02    1.30       1.0  T
   3   -126.4838621  0.177815E-03  0.472E-02    1.30       1.0  T
   4   -126.4841109 -0.248763E-03  0.740E-03    1.30       1.4  T
   5   -126.4841154 -0.456497E-05  0.316E-03    1.30       3.2  T
   6   -126.4841160 -0.552848E-06  0.191E-03    1.30       5.3  T
   7   -126.4841162 -0.207304E-06  0.732E-04    1.30      13.9  T
   8   -126.4841162 -0.305048E-07  0.334E-04    1.30      30.5  T
     SCC iter.                  ...        0 min,  0.172 sec
     gradient                   ...        0 min,  0.025 sec
 * total energy  :  -124.5712879 Eh     change       -0.4620844E-02 Eh
   gradient norm :     0.0382892 Eh/α   predicted     0.0000000E+00 (-100.00%)
   displ. norm   :     0.4420130 α      lambda       -0.5625794E-02
   maximum displ.:     0.1636948 α      in ANC's #14, #20, #11, ...

........................................................................
.............................. CYCLE   22 ..............................
........................................................................

 iter      E             dE          RMSdq      gap      omega  full diag
   1   -126.4880443 -0.126488E+03  0.686E-02    1.32       0.0  T
   2   -126.4880509 -0.655837E-05  0.414E-02    1.33       1.0  T
   3   -126.4880047  0.461424E-04  0.195E-02    1.32       1.0  T
   4   -126.4880572 -0.524413E-04  0.318E-03    1.33       3.2  T
   5   -126.4880582 -0.104877E-05  0.145E-03    1.32       7.0  T
   6   -126.4880584 -0.131001E-06  0.698E-04    1.32      14.6  T
   7   -126.4880584 -0.189333E-07  0.308E-04    1.32      33.1  T
     SCC iter.                  ...        0 min,  0.253 sec
     gradient                   ...        0 min,  0.027 sec
 * total energy  :  -124.5759115 Eh     change       -0.4623633E-02 Eh
   gradient norm :     0.0147623 Eh/α   predicted    -0.3362491E-02 ( -27.28%)
   displ. norm   :     0.7351365 α      lambda       -0.5810667E-02
   maximum displ.:     0.2744018 α      in ANC's #14, #11, #20, ...

........................................................................
.............................. CYCLE   23 ..............................
........................................................................

 iter      E             dE          RMSdq      gap      omega  full diag
   1   -126.4897217 -0.126490E+03  0.837E-02    1.37       0.0  T
   2   -126.4897302 -0.847918E-05  0.501E-02    1.37       1.0  T
   3   -126.4896832  0.470327E-04  0.195E-02    1.37       1.0  T
   4   -126.4897362 -0.530059E-04  0.325E-03    1.37       3.1  T
   5   -126.4897372 -0.105790E-05  0.149E-03    1.37       6.9  T
   6   -126.4897374 -0.114932E-06  0.723E-04    1.37      14.1  T
   7   -126.4897374 -0.263180E-07  0.343E-04    1.37      29.7  T
     SCC iter.                  ...        0 min,  0.261 sec
     gradient                   ...        0 min,  0.023 sec
 * total energy  :  -124.5808305 Eh     change       -0.4918920E-02 Eh
   gradient norm :     0.0134997 Eh/α   predicted    -0.4475753E-02 (  -9.01%)
   displ. norm   :     0.8126738 α      lambda       -0.4998361E-02
   maximum displ.:     0.3004664 α      in ANC's #14, #11, #20, ...

........................................................................
.............................. CYCLE   24 ..............................
........................................................................

 iter      E             dE          RMSdq      gap      omega  full diag
   1   -126.4905815 -0.126491E+03  0.804E-02    1.41       0.0  T
   2   -126.4905872 -0.572044E-05  0.477E-02    1.41       1.0  T
   3   -126.4905649  0.223183E-04  0.135E-02    1.41       1.0  T
   4   -126.4905901 -0.251816E-04  0.236E-03    1.41       4.3  T
   5   -126.4905906 -0.448692E-06  0.121E-03    1.41       8.4  T
   6   -126.4905906 -0.848313E-07  0.550E-04    1.41      18.5  T
   7   -126.4905907 -0.125641E-07  0.266E-04    1.41      38.4  T
     SCC iter.                  ...        0 min,  0.170 sec
     gradient                   ...        0 min,  0.024 sec
 * total energy  :  -124.5854056 Eh     change       -0.4575167E-02 Eh
   gradient norm :     0.0220144 Eh/α   predicted    -0.4149737E-02 (  -9.30%)
   displ. norm   :     0.8590964 α      lambda       -0.5145909E-02
   maximum displ.:     0.3094917 α      in ANC's #14, #11, #8, ...

........................................................................
.............................. CYCLE   25 ..............................
........................................................................

 iter      E             dE          RMSdq      gap      omega  full diag
   1   -126.4942076 -0.126494E+03  0.850E-02    1.46       0.0  T
   2   -126.4942134 -0.579496E-05  0.506E-02    1.46       1.0  T
   3   -126.4941898  0.235946E-04  0.139E-02    1.46       1.0  T
   4   -126.4942166 -0.268250E-04  0.205E-03    1.46       5.0  T
   5   -126.4942169 -0.269446E-06  0.992E-04    1.46      10.3  T
   6   -126.4942169 -0.248108E-07  0.448E-04    1.46      22.8  T
     SCC iter.                  ...        0 min,  0.128 sec
     gradient                   ...        0 min,  0.024 sec
 * total energy  :  -124.5901964 Eh     change       -0.4790801E-02 Eh
   gradient norm :     0.0208655 Eh/α   predicted    -0.4471916E-02 (  -6.66%)
   displ. norm   :     0.8593368 α      lambda       -0.5134690E-02
   maximum displ.:     0.2966737 α      in ANC's #14, #8, #11, ...

........................................................................
.............................. CYCLE   26 ..............................
........................................................................

 iter      E             dE          RMSdq      gap      omega  full diag
   1   -126.5027185 -0.126503E+03  0.943E-02    1.49       0.0  T
   2   -126.5027265 -0.791197E-05  0.560E-02    1.49       1.0  T
   3   -126.5026936  0.328532E-04  0.164E-02    1.49       1.0  T
   4   -126.5027308 -0.371944E-04  0.237E-03    1.49       4.3  T
   5   -126.5027312 -0.434669E-06  0.102E-03    1.49      10.0  T
   6   -126.5027312 -0.160821E-07  0.484E-04    1.49      21.1  T
   7   -126.5027313 -0.801306E-08  0.172E-04    1.49      59.2  T
     SCC iter.                  ...        0 min,  0.153 sec
     gradient                   ...        0 min,  0.025 sec
 * total energy  :  -124.5948185 Eh     change       -0.4622063E-02 Eh
   gradient norm :     0.0113135 Eh/α   predicted    -0.4463228E-02 (  -3.44%)
   displ. norm   :     0.8792000 α      lambda       -0.4356685E-02
   maximum displ.:     0.2963958 α      in ANC's #14, #4, #8, ...

........................................................................
.............................. CYCLE   27 ..............................
........................................................................

 iter      E             dE          RMSdq      gap      omega  full diag
   1   -126.5062164 -0.126506E+03  0.998E-02    1.51       0.0  T
   2   -126.5062213 -0.485072E-05  0.589E-02    1.52       1.0  T
   3   -126.5062025  0.188113E-04  0.124E-02    1.51       1.0  T
   4   -126.5062238 -0.212745E-04  0.214E-03    1.52       4.8  T
   5   -126.5062241 -0.329222E-06  0.996E-04    1.52      10.3  T
   6   -126.5062241 -0.918725E-08  0.473E-04    1.52      21.6  T
     SCC iter.                  ...        0 min,  0.130 sec
     gradient                   ...        0 min,  0.024 sec
 * total energy  :  -124.5987413 Eh     change       -0.3922826E-02 Eh
   gradient norm :     0.0104691 Eh/α   predicted    -0.3862188E-02 (  -1.55%)
   displ. norm   :     0.8510060 α      lambda       -0.3739726E-02
   maximum displ.:     0.2930170 α      in ANC's #4, #8, #14, ...

........................................................................
.............................. CYCLE   28 ..............................
........................................................................

 iter      E             dE          RMSdq      gap      omega  full diag
   1   -126.5137864 -0.126514E+03  0.990E-02    1.53       0.0  T
   2   -126.5137904 -0.397984E-05  0.583E-02    1.53       1.0  T
   3   -126.5137795  0.108949E-04  0.907E-03    1.52       1.1  T
   4   -126.5137919 -0.123383E-04  0.203E-03    1.53       5.0  T
   5   -126.5137922 -0.341471E-06  0.938E-04    1.53      10.9  T
   6   -126.5137922 -0.209051E-07  0.479E-04    1.53      21.3  T
     SCC iter.                  ...        0 min,  0.130 sec
     gradient                   ...        0 min,  0.025 sec
 * total energy  :  -124.6020440 Eh     change       -0.3302637E-02 Eh
   gradient norm :     0.0118656 Eh/α   predicted    -0.3224049E-02 (  -2.38%)
   displ. norm   :     0.8458838 α      lambda       -0.3185485E-02
   maximum displ.:     0.3169547 α      in ANC's #4, #8, #14, ...

........................................................................
.............................. CYCLE   29 ..............................
........................................................................

 iter      E             dE          RMSdq      gap      omega  full diag
   1   -126.5125706 -0.126513E+03  0.952E-02    1.53       0.0  T
   2   -126.5125743 -0.368751E-05  0.562E-02    1.54       1.0  T
   3   -126.5125679  0.640245E-05  0.732E-03    1.53       1.4  T
   4   -126.5125753 -0.740614E-05  0.211E-03    1.54       4.8  T
   5   -126.5125757 -0.373605E-06  0.102E-03    1.54      10.0  T
   6   -126.5125757 -0.351532E-07  0.508E-04    1.54      20.1  T
   7   -126.5125757 -0.141097E-07  0.152E-04    1.54      67.3  T
     SCC iter.                  ...        0 min,  0.151 sec
     gradient                   ...        0 min,  0.024 sec
 * total energy  :  -124.6047750 Eh     change       -0.2731014E-02 Eh
   gradient norm :     0.0129333 Eh/α   predicted    -0.2732399E-02 (   0.05%)
   displ. norm   :     0.7930678 α      lambda       -0.2910877E-02
   maximum displ.:     0.3319990 α      in ANC's #4, #8, #9, ...

........................................................................
.............................. CYCLE   30 ..............................
........................................................................

 iter      E             dE          RMSdq      gap      omega  full diag
   1   -126.5252624 -0.126525E+03  0.942E-02    1.54       0.0  T
   2   -126.5252707 -0.828287E-05  0.554E-02    1.54       1.0  T
   3   -126.5252573  0.134006E-04  0.125E-02    1.54       1.0  T
   4   -126.5252731 -0.157745E-04  0.233E-03    1.54       4.4  T
   5   -126.5252734 -0.385949E-06  0.111E-03    1.54       9.2  T
   6   -126.5252735 -0.306655E-07  0.620E-04    1.54      16.5  T
   7   -126.5252735 -0.189668E-07  0.183E-04    1.54      55.8  T
     SCC iter.                  ...        0 min,  0.152 sec
     gradient                   ...        0 min,  0.024 sec
 * total energy  :  -124.6071294 Eh     change       -0.2354471E-02 Eh
   gradient norm :     0.0097887 Eh/α   predicted    -0.2370848E-02 (   0.70%)
   displ. norm   :     0.8010022 α      lambda       -0.2349810E-02
   maximum displ.:     0.3556058 α      in ANC's #4, #8, #9, ...

........................................................................
.............................. CYCLE   31 ..............................
........................................................................

 iter      E             dE          RMSdq      gap      omega  full diag
   1   -126.5229181 -0.126523E+03  0.871E-02    1.54       0.0  T
   2   -126.5229245 -0.643666E-05  0.513E-02    1.54       1.0  T
   3   -126.5229135  0.110516E-04  0.118E-02    1.54       1.0  T
   4   -126.5229265 -0.129653E-04  0.213E-03    1.54       4.8  T
   5   -126.5229268 -0.301577E-06  0.104E-03    1.54       9.8  T
   6   -126.5229268 -0.197398E-07  0.558E-04    1.54      18.3  T
   7   -126.5229268 -0.159411E-07  0.146E-04    1.54      69.9  T
     SCC iter.                  ...        0 min,  0.155 sec
     gradient                   ...        0 min,  0.025 sec
 * total energy  :  -124.6091296 Eh     change       -0.2000177E-02 Eh
   gradient norm :     0.0118418 Eh/α   predicted    -0.1928730E-02 (  -3.57%)
   displ. norm   :     0.7736655 α      lambda       -0.2231237E-02
   maximum displ.:     0.3683183 α      in ANC's #4, #8, #9, ...

........................................................................
.............................. CYCLE   32 ..............................
........................................................................

 iter      E             dE          RMSdq      gap      omega  full diag
   1   -126.5267803 -0.126527E+03  0.871E-02    1.54       0.0  T
   2   -126.5267861 -0.579596E-05  0.511E-02    1.54       1.0  T
   3   -126.5267685  0.176493E-04  0.147E-02    1.54       1.0  T
   4   -126.5267889 -0.204622E-04  0.213E-03    1.54       4.8  T
   5   -126.5267892 -0.282905E-06  0.119E-03    1.54       8.6  T
   6   -126.5267893 -0.486594E-07  0.625E-04    1.54      16.3  T
   7   -126.5267893 -0.215834E-07  0.206E-04    1.54      49.5  T
     SCC iter.                  ...        0 min,  0.154 sec
     gradient                   ...        0 min,  0.022 sec
 * total energy  :  -124.6110559 Eh     change       -0.1926266E-02 Eh
   gradient norm :     0.0133787 Eh/α   predicted    -0.1783403E-02 (  -7.42%)
   displ. norm   :     0.8063790 α      lambda       -0.2389350E-02
   maximum displ.:     0.3871918 α      in ANC's #4, #8, #20, ...

........................................................................
.............................. CYCLE   33 ..............................
........................................................................

 iter      E             dE          RMSdq      gap      omega  full diag
   1   -126.5307830 -0.126531E+03  0.936E-02    1.54       0.0  T
   2   -126.5307914 -0.840053E-05  0.549E-02    1.54       1.0  T
   3   -126.5307659  0.254888E-04  0.163E-02    1.54       1.0  T
   4   -126.5307952 -0.292734E-04  0.283E-03    1.54       3.6  T
   5   -126.5307957 -0.527094E-06  0.147E-03    1.54       6.9  T
   6   -126.5307958 -0.612133E-07  0.802E-04    1.54      12.7  T
   7   -126.5307958 -0.439907E-07  0.252E-04    1.54      40.4  T
     SCC iter.                  ...        0 min,  0.156 sec
     gradient                   ...        0 min,  0.024 sec
 * total energy  :  -124.6129892 Eh     change       -0.1933281E-02 Eh
   gradient norm :     0.0151139 Eh/α   predicted    -0.1971527E-02 (   1.98%)
   displ. norm   :     0.7837677 α      lambda       -0.2186345E-02
   maximum displ.:     0.3826765 α      in ANC's #4, #8, #20, ...

........................................................................
.............................. CYCLE   34 ..............................
........................................................................

 iter      E             dE          RMSdq      gap      omega  full diag
   1   -126.5306860 -0.126531E+03  0.869E-02    1.54       0.0  T
   2   -126.5306911 -0.515191E-05  0.512E-02    1.54       1.0  T
   3   -126.5306758  0.153190E-04  0.115E-02    1.55       1.0  T
   4   -126.5306932 -0.173326E-04  0.249E-03    1.54       4.1  T
   5   -126.5306936 -0.471933E-06  0.131E-03    1.54       7.8  T
   6   -126.5306937 -0.662644E-07  0.655E-04    1.54      15.6  T
   7   -126.5306937 -0.224363E-07  0.208E-04    1.54      49.1  T
     SCC iter.                  ...        0 min,  0.151 sec
     gradient                   ...        0 min,  0.023 sec
 * total energy  :  -124.6148746 Eh     change       -0.1885461E-02 Eh
   gradient norm :     0.0119679 Eh/α   predicted    -0.1764706E-02 (  -6.40%)
   displ. norm   :     0.7997962 α      lambda       -0.2123400E-02
   maximum displ.:     0.3921957 α      in ANC's #4, #8, #20, ...

........................................................................
.............................. CYCLE   35 ..............................
........................................................................

 iter      E             dE          RMSdq      gap      omega  full diag
   1   -126.5339020 -0.126534E+03  0.907E-02    1.55       0.0  T
   2   -126.5339126 -0.106343E-04  0.534E-02    1.55       1.0  T
   3   -126.5338923  0.203278E-04  0.142E-02    1.56       1.0  T
   4   -126.5339149 -0.225376E-04  0.358E-03    1.55       2.9  T
   5   -126.5339163 -0.144516E-05  0.154E-03    1.55       6.6  T
   6   -126.5339164 -0.893403E-07  0.826E-04    1.55      12.4  T
   7   -126.5339164 -0.351480E-07  0.204E-04    1.55      50.1  T
     SCC iter.                  ...        0 min,  0.152 sec
     gradient                   ...        0 min,  0.023 sec
 * total energy  :  -124.6164404 Eh     change       -0.1565731E-02 Eh
   gradient norm :     0.0165103 Eh/α   predicted    -0.1740842E-02 (  11.18%)
   displ. norm   :     0.7736111 α      lambda       -0.2088233E-02
   maximum displ.:     0.3753423 α      in ANC's #4, #8, #3, ...

........................................................................
.............................. CYCLE   36 ..............................
........................................................................

 iter      E             dE          RMSdq      gap      omega  full diag
   1   -126.5286852 -0.126529E+03  0.885E-02    1.56       0.0  T
   2   -126.5287014 -0.161494E-04  0.514E-02    1.56       1.0  T
   3   -126.5286916  0.977830E-05  0.123E-02    1.56       1.0  T
   4   -126.5287024 -0.107877E-04  0.415E-03    1.56       2.5  T
   5   -126.5287043 -0.194855E-05  0.171E-03    1.56       6.0  T
   6   -126.5287044 -0.764755E-07  0.963E-04    1.56      10.6  T
   7   -126.5287045 -0.611114E-07  0.190E-04    1.56      53.6  T
     SCC iter.                  ...        0 min,  0.158 sec
     gradient                   ...        0 min,  0.025 sec
 * total energy  :  -124.6177800 Eh     change       -0.1339629E-02 Eh
   gradient norm :     0.0170087 Eh/α   predicted    -0.1668993E-02 (  24.59%)
   displ. norm   :     0.6446259 α      lambda       -0.1709822E-02
   maximum displ.:     0.3068712 α      in ANC's #4, #8, #15, ...

........................................................................
.............................. CYCLE   37 ..............................
........................................................................

 iter      E             dE          RMSdq      gap      omega  full diag
   1   -126.5301513 -0.126530E+03  0.780E-02    1.56       0.0  T
   2   -126.5301593 -0.806195E-05  0.455E-02    1.56       1.0  T
   3   -126.5301527  0.668238E-05  0.987E-03    1.56       1.0  T
   4   -126.5301605 -0.785613E-05  0.273E-03    1.56       3.7  T
   5   -126.5301611 -0.635357E-06  0.132E-03    1.56       7.7  T
   6   -126.5301612 -0.550943E-07  0.758E-04    1.56      13.5  T
   7   -126.5301612 -0.393845E-07  0.193E-04    1.56      52.8  T
     SCC iter.                  ...        0 min,  0.157 sec
     gradient                   ...        0 min,  0.025 sec
 * total energy  :  -124.6188836 Eh     change       -0.1103623E-02 Eh
   gradient norm :     0.0151741 Eh/α   predicted    -0.1210163E-02 (   9.65%)
   displ. norm   :     0.6769459 α      lambda       -0.1354481E-02
   maximum displ.:     0.3340061 α      in ANC's #4, #8, #3, ...

........................................................................
.............................. CYCLE   38 ..............................
........................................................................

 iter      E             dE          RMSdq      gap      omega  full diag
   1   -126.5305712 -0.126531E+03  0.752E-02    1.57       0.0  T
   2   -126.5305752 -0.398222E-05  0.445E-02    1.57       1.0  T
   3   -126.5305533  0.219240E-04  0.131E-02    1.56       1.0  T
   4   -126.5305781 -0.248079E-04  0.190E-03    1.57       5.4  T
   5   -126.5305783 -0.201636E-06  0.104E-03    1.57       9.8  T
   6   -126.5305783 -0.288137E-07  0.506E-04    1.57      20.2  T
   7   -126.5305783 -0.158538E-07  0.184E-04    1.57      55.5  T
     SCC iter.                  ...        0 min,  0.152 sec
     gradient                   ...        0 min,  0.022 sec
 * total energy  :  -124.6199379 Eh     change       -0.1054254E-02 Eh
   gradient norm :     0.0106529 Eh/α   predicted    -0.9875951E-03 (  -6.32%)
   displ. norm   :     0.6412824 α      lambda       -0.1246250E-02
   maximum displ.:     0.2961598 α      in ANC's #4, #8, #3, ...

........................................................................
.............................. CYCLE   39 ..............................
........................................................................

 iter      E             dE          RMSdq      gap      omega  full diag
   1   -126.5435742 -0.126544E+03  0.729E-02    1.58       0.0  T
   2   -126.5435806 -0.639938E-05  0.435E-02    1.58       1.0  T
   3   -126.5435581  0.224577E-04  0.144E-02    1.57       1.0  T
   4   -126.5435841 -0.259807E-04  0.225E-03    1.58       4.5  T
   5   -126.5435844 -0.337361E-06  0.117E-03    1.58       8.7  T
   6   -126.5435845 -0.397554E-07  0.591E-04    1.58      17.3  T
   7   -126.5435845 -0.130171E-07  0.251E-04    1.58      40.6  T
     SCC iter.                  ...        0 min,  0.153 sec
     gradient                   ...        0 min,  0.028 sec
 * total energy  :  -124.6207554 Eh     change       -0.8175189E-03 Eh
   gradient norm :     0.0113913 Eh/α   predicted    -0.8793897E-03 (   7.57%)
   displ. norm   :     0.7526484 α      lambda       -0.1192989E-02
   maximum displ.:     0.3608574 α      in ANC's #4, #8, #3, ...

........................................................................
.............................. CYCLE   40 ..............................
........................................................................

 iter      E             dE          RMSdq      gap      omega  full diag
   1   -126.5328784 -0.126533E+03  0.845E-02    1.57       0.0  T
   2   -126.5328885 -0.100912E-04  0.495E-02    1.57       1.0  T
   3   -126.5328762  0.122724E-04  0.116E-02    1.57       1.0  T
   4   -126.5328899 -0.136413E-04  0.332E-03    1.57       3.1  T
   5   -126.5328911 -0.118983E-05  0.140E-03    1.57       7.3  T
   6   -126.5328911 -0.440499E-07  0.822E-04    1.57      12.4  T
   7   -126.5328912 -0.381729E-07  0.223E-04    1.57      45.7  T
     SCC iter.                  ...        0 min,  0.165 sec
     gradient                   ...        0 min,  0.024 sec
 * total energy  :  -124.6214217 Eh     change       -0.6663594E-03 Eh
   gradient norm :     0.0140212 Eh/α   predicted    -0.9344022E-03 (  40.22%)
   displ. norm   :     0.5027619 α      lambda       -0.8956240E-03
   maximum displ.:     0.2339562 α      in ANC's #4, #8, #3, ...

........................................................................
.............................. CYCLE   41 ..............................
........................................................................

 iter      E             dE          RMSdq      gap      omega  full diag
   1   -126.5370568 -0.126537E+03  0.585E-02    1.57       0.0  T
   2   -126.5370627 -0.591980E-05  0.344E-02    1.57       1.0  T
   3   -126.5370551  0.758257E-05  0.845E-03    1.57       1.2  T
   4   -126.5370636 -0.843117E-05  0.252E-03    1.57       4.0  T
   5   -126.5370643 -0.708321E-06  0.103E-03    1.57       9.9  T
   6   -126.5370643 -0.111800E-07  0.604E-04    1.57      16.9  T
   7   -126.5370643 -0.197811E-07  0.192E-04    1.57      53.2  T
     SCC iter.                  ...        0 min,  0.151 sec
     gradient                   ...        0 min,  0.024 sec
 * total energy  :  -124.6220226 Eh     change       -0.6008481E-03 Eh
   gradient norm :     0.0092434 Eh/α   predicted    -0.5610103E-03 (  -6.63%)
   displ. norm   :     0.5209800 α      lambda       -0.7137694E-03
   maximum displ.:     0.2382827 α      in ANC's #4, #8, #3, ...

........................................................................
.............................. CYCLE   42 ..............................
........................................................................

 iter      E             dE          RMSdq      gap      omega  full diag
   1   -126.5422860 -0.126542E+03  0.555E-02    1.58       0.0  T
   2   -126.5422894 -0.338580E-05  0.331E-02    1.58       1.0  T
   3   -126.5422809  0.849081E-05  0.898E-03    1.57       1.1  T
   4   -126.5422908 -0.989258E-05  0.179E-03    1.58       5.7  T
   5   -126.5422910 -0.186244E-06  0.975E-04    1.58      10.5  T
   6   -126.5422910 -0.191277E-07  0.537E-04    1.58      19.0  T
     SCC iter.                  ...        0 min,  0.138 sec
     gradient                   ...        0 min,  0.023 sec
 * total energy  :  -124.6225321 Eh     change       -0.5095014E-03 Eh
   gradient norm :     0.0088061 Eh/α   predicted    -0.4537535E-03 ( -10.94%)
   displ. norm   :     0.6138752 α      lambda       -0.6650687E-03
   maximum displ.:     0.2687610 α      in ANC's #4, #8, #3, ...
 * RMSD in coord.:     1.4186588 α      energy gain  -0.5586503E-01 Eh

generating ANC from exact Hessian ...
Using Lindh-Hessian (1995)
 Shifting diagonal of input Hessian by    9.8808499128968351E-003
 Lowest  eigenvalues of input Hessian
    0.000000    0.000000    0.000000    0.000000    0.000000    0.000000
    0.010000    0.010033    0.010040    0.010271    0.010341    0.010400
    0.010429    0.010555    0.010711    0.010802    0.011045    0.011203
 Highest eigenvalues
    2.017175    2.040426    2.070917    2.096435    2.185182    2.190971


........................................................................
.............................. CYCLE   43 ..............................
........................................................................

 iter      E             dE          RMSdq      gap      omega  full diag
   1   -126.5468918 -0.126547E+03  0.634E-02    1.58       0.0  T
   2   -126.5468946 -0.278018E-05  0.379E-02    1.58       1.0  T
   3   -126.5468758  0.187712E-04  0.113E-02    1.58       1.0  T
   4   -126.5468968 -0.209947E-04  0.195E-03    1.58       5.2  T
   5   -126.5468970 -0.234078E-06  0.111E-03    1.58       9.2  T
   6   -126.5468970 -0.277129E-07  0.604E-04    1.58      16.9  T
   7   -126.5468971 -0.185335E-07  0.207E-04    1.58      49.4  T
     SCC iter.                  ...        0 min,  0.163 sec
     gradient                   ...        0 min,  0.023 sec
 * total energy  :  -124.6230065 Eh     change       -0.4744537E-03 Eh
   gradient norm :     0.0073477 Eh/α   predicted     0.0000000E+00 (-100.00%)
   displ. norm   :     0.1113740 α      lambda       -0.2711229E-03
   maximum displ.:     0.0386977 α      in ANC's #2, #6, #4, ...

........................................................................
.............................. CYCLE   44 ..............................
........................................................................

 iter      E             dE          RMSdq      gap      omega  full diag
   1   -126.5439842 -0.126544E+03  0.201E-02    1.58       0.0  T
   2   -126.5439850 -0.793948E-06  0.122E-02    1.58       1.0  T
   3   -126.5439817  0.327100E-05  0.544E-03    1.58       1.9  T
   4   -126.5439855 -0.378543E-05  0.865E-04    1.58      11.8  T
   5   -126.5439856 -0.808253E-07  0.394E-04    1.58      25.9  T
   6   -126.5439856 -0.122399E-07  0.172E-04    1.58      59.3  T
     SCC iter.                  ...        0 min,  0.134 sec
     gradient                   ...        0 min,  0.023 sec
 * total energy  :  -124.6232244 Eh     change       -0.2178417E-03 Eh
   gradient norm :     0.0034335 Eh/α   predicted    -0.1373573E-03 ( -36.95%)
   displ. norm   :     0.3018932 α      lambda       -0.4303279E-03
   maximum displ.:     0.1094422 α      in ANC's #2, #6, #4, ...

........................................................................
.............................. CYCLE   45 ..............................
........................................................................

 iter      E             dE          RMSdq      gap      omega  full diag
   1   -126.5394955 -0.126539E+03  0.419E-02    1.58       0.0  T
   2   -126.5394981 -0.265867E-05  0.251E-02    1.58       1.0  T
   3   -126.5394881  0.100718E-04  0.972E-03    1.57       1.0  T
   4   -126.5394996 -0.115259E-04  0.155E-03    1.58       6.6  T
   5   -126.5394998 -0.214613E-06  0.781E-04    1.58      13.1  T
   6   -126.5394999 -0.460652E-07  0.346E-04    1.58      29.5  T
     SCC iter.                  ...        0 min,  0.132 sec
     gradient                   ...        0 min,  0.023 sec
 * total energy  :  -124.6235287 Eh     change       -0.3042691E-03 Eh
   gradient norm :     0.0048236 Eh/α   predicted    -0.2347787E-03 ( -22.84%)
   displ. norm   :     0.3235801 α      lambda       -0.2896504E-03
   maximum displ.:     0.1241862 α      in ANC's #2, #4, #8, ...

........................................................................
.............................. CYCLE   46 ..............................
........................................................................

 iter      E             dE          RMSdq      gap      omega  full diag
   1   -126.5375615 -0.126538E+03  0.389E-02    1.57       0.0  T
   2   -126.5375629 -0.140026E-05  0.231E-02    1.57       1.0  T
   3   -126.5375593  0.355830E-05  0.612E-03    1.57       1.7  T
   4   -126.5375634 -0.411491E-05  0.109E-03    1.57       9.3  T
   5   -126.5375635 -0.672292E-07  0.605E-04    1.57      16.9  T
   6   -126.5375635 -0.223551E-07  0.279E-04    1.57      36.5  T
     SCC iter.                  ...        0 min,  0.131 sec
     gradient                   ...        0 min,  0.026 sec
 * total energy  :  -124.6237640 Eh     change       -0.2353492E-03 Eh
   gradient norm :     0.0070352 Eh/α   predicted    -0.1599892E-03 ( -32.02%)
   displ. norm   :     0.4477308 α      lambda       -0.3893911E-03
   maximum displ.:     0.1787690 α      in ANC's #2, #4, #8, ...

........................................................................
.............................. CYCLE   47 ..............................
........................................................................

 iter      E             dE          RMSdq      gap      omega  full diag
   1   -126.5375876 -0.126538E+03  0.494E-02    1.57       0.0  T
   2   -126.5375894 -0.180843E-05  0.293E-02    1.57       1.0  T
   3   -126.5375860  0.333517E-05  0.662E-03    1.57       1.5  T
   4   -126.5375900 -0.399840E-05  0.122E-03    1.57       8.4  T
   5   -126.5375901 -0.540484E-07  0.680E-04    1.57      15.0  T
   6   -126.5375901 -0.170941E-07  0.336E-04    1.57      30.4  T
     SCC iter.                  ...        0 min,  0.131 sec
     gradient                   ...        0 min,  0.024 sec
 * total energy  :  -124.6240819 Eh     change       -0.3178555E-03 Eh
   gradient norm :     0.0067160 Eh/α   predicted    -0.2337253E-03 ( -26.47%)
   displ. norm   :     0.4911198 α      lambda       -0.3953435E-03
   maximum displ.:     0.2073938 α      in ANC's #2, #4, #8, ...

........................................................................
.............................. CYCLE   48 ..............................
........................................................................

 iter      E             dE          RMSdq      gap      omega  full diag
   1   -126.5400642 -0.126540E+03  0.510E-02    1.57       0.0  T
   2   -126.5400664 -0.218456E-05  0.303E-02    1.57       1.0  T
   3   -126.5400611  0.528410E-05  0.827E-03    1.57       1.2  T
   4   -126.5400673 -0.618127E-05  0.139E-03    1.57       7.4  T
   5   -126.5400674 -0.103192E-06  0.775E-04    1.57      13.2  T
   6   -126.5400674 -0.240916E-07  0.414E-04    1.57      24.6  T
     SCC iter.                  ...        0 min,  0.141 sec
     gradient                   ...        0 min,  0.024 sec
 * total energy  :  -124.6243886 Eh     change       -0.3067378E-03 Eh
   gradient norm :     0.0044345 Eh/α   predicted    -0.2453499E-03 ( -20.01%)
   displ. norm   :     0.4563356 α      lambda       -0.2743200E-03
   maximum displ.:     0.2056060 α      in ANC's #2, #4, #6, ...

........................................................................
.............................. CYCLE   49 ..............................
........................................................................

 iter      E             dE          RMSdq      gap      omega  full diag
   1   -126.5427775 -0.126543E+03  0.454E-02    1.56       0.0  T
   2   -126.5427794 -0.190679E-05  0.269E-02    1.57       1.0  T
   3   -126.5427749  0.453839E-05  0.781E-03    1.57       1.3  T
   4   -126.5427802 -0.534711E-05  0.121E-03    1.56       8.4  T
   5   -126.5427803 -0.804780E-07  0.656E-04    1.57      15.5  T
   6   -126.5427803 -0.116209E-07  0.361E-04    1.57      28.3  T
     SCC iter.                  ...        0 min,  0.136 sec
     gradient                   ...        0 min,  0.026 sec
 * total energy  :  -124.6246012 Eh     change       -0.2126002E-03 Eh
   gradient norm :     0.0031670 Eh/α   predicted    -0.1657256E-03 ( -22.05%)
   displ. norm   :     0.4211129 α      lambda       -0.2012987E-03
   maximum displ.:     0.2011123 α      in ANC's #2, #4, #6, ...

........................................................................
.............................. CYCLE   50 ..............................
........................................................................

 iter      E             dE          RMSdq      gap      omega  full diag
   1   -126.5445748 -0.126545E+03  0.407E-02    1.56       0.0  T
   2   -126.5445760 -0.122198E-05  0.241E-02    1.56       1.0  T
   3   -126.5445729  0.311465E-05  0.620E-03    1.56       1.6  T
   4   -126.5445765 -0.366652E-05  0.978E-04    1.56      10.4  T
   5   -126.5445766 -0.454288E-07  0.539E-04    1.56      18.9  T
   6   -126.5445766 -0.606840E-08  0.280E-04    1.56      36.4  T
     SCC iter.                  ...        0 min,  0.131 sec
     gradient                   ...        0 min,  0.024 sec
 * total energy  :  -124.6247647 Eh     change       -0.1635089E-03 Eh
   gradient norm :     0.0030919 Eh/α   predicted    -0.1185063E-03 ( -27.52%)
   displ. norm   :     0.4241436 α      lambda       -0.1921224E-03
   maximum displ.:     0.2117806 α      in ANC's #2, #6, #4, ...

........................................................................
.............................. CYCLE   51 ..............................
........................................................................

 iter      E             dE          RMSdq      gap      omega  full diag
   1   -126.5456902 -0.126546E+03  0.408E-02    1.56       0.0  T
   2   -126.5456909 -0.697889E-06  0.241E-02    1.56       1.0  T
   3   -126.5456893  0.163213E-05  0.429E-03    1.56       2.4  T
   4   -126.5456913 -0.196382E-05  0.816E-04    1.56      12.5  T
   5   -126.5456913 -0.180469E-07  0.466E-04    1.56      21.9  T
   6   -126.5456913 -0.604830E-08  0.212E-04    1.56      48.2  T
     SCC iter.                  ...        0 min,  0.138 sec
     gradient                   ...        0 min,  0.024 sec
 * total energy  :  -124.6249248 Eh     change       -0.1600800E-03 Eh
   gradient norm :     0.0033259 Eh/α   predicted    -0.1133428E-03 ( -29.20%)
   displ. norm   :     0.4626602 α      lambda       -0.2015237E-03
   maximum displ.:     0.2365367 α      in ANC's #2, #6, #4, ...

........................................................................
.............................. CYCLE   52 ..............................
........................................................................

 iter      E             dE          RMSdq      gap      omega  full diag
   1   -126.5455076 -0.126546E+03  0.449E-02    1.56       0.0  T
   2   -126.5455080 -0.442308E-06  0.265E-02    1.56       1.0  T
   3   -126.5455075  0.527303E-06  0.251E-03    1.56       4.1  T
   4   -126.5455082 -0.734598E-06  0.768E-04    1.56      13.3  T
   5   -126.5455082 -0.241484E-08  0.451E-04    1.56      22.6  T
     SCC iter.                  ...        0 min,  0.107 sec
     gradient                   ...        0 min,  0.025 sec
 * total energy  :  -124.6250921 Eh     change       -0.1672913E-03 Eh
   gradient norm :     0.0033838 Eh/α   predicted    -0.1223341E-03 ( -26.87%)
   displ. norm   :     0.4793627 α      lambda       -0.1973811E-03
   maximum displ.:     0.2478569 α      in ANC's #2, #6, #4, ...

........................................................................
.............................. CYCLE   53 ..............................
........................................................................

 iter      E             dE          RMSdq      gap      omega  full diag
   1   -126.5452092 -0.126545E+03  0.467E-02    1.56       0.0  T
   2   -126.5452099 -0.649311E-06  0.275E-02    1.56       1.0  T
   3   -126.5452082  0.164182E-05  0.385E-03    1.56       2.7  T
   4   -126.5452102 -0.192855E-05  0.867E-04    1.56      11.8  T
   5   -126.5452102 -0.419675E-07  0.474E-04    1.56      21.5  T
   6   -126.5452102 -0.600481E-08  0.228E-04    1.56      44.8  T
     SCC iter.                  ...        0 min,  0.132 sec
     gradient                   ...        0 min,  0.022 sec
 * total energy  :  -124.6252501 Eh     change       -0.1580001E-03 Eh
   gradient norm :     0.0033807 Eh/α   predicted    -0.1213694E-03 ( -23.18%)
   displ. norm   :     0.4597521 α      lambda       -0.1601666E-03
   maximum displ.:     0.2399270 α      in ANC's #2, #6, #3, ...

........................................................................
.............................. CYCLE   54 ..............................
........................................................................

 iter      E             dE          RMSdq      gap      omega  full diag
   1   -126.5433355 -0.126543E+03  0.431E-02    1.57       0.0  T
[...]
   118   6 C      119   6 C                                       1.3947815
   116   6 C      120   8 O                                       1.3891797
   100   6 C      121   8 O                                       1.3652296
    99   6 C      122   1 H                                       1.0767328
   103   6 C      123   1 H                                       1.0738059
   117   6 C      124   1 H                                       1.0768843
   119   6 C      125   1 H                                       1.0760162
   113   6 C      126   1 H                                       1.0748868
   115   6 C      127   1 H                                       1.0720071 (min)
    98   6 C      128   6 C                                       1.5311986
   128   6 C      129   6 C                                       1.5228220
    97   6 C      130   6 C                                       1.5326769
   130   6 C      131   6 C                                       1.5227088
   120   8 O      132   6 C                                       1.4071614
   121   8 O      133   6 C                                       1.4046163
   134   6 C      135   6 C                                       1.5362046
   134   6 C      136   6 C                                       1.5353735
   134   6 C      137   6 C                                       1.5317843
   138   6 C      139   6 C                                       1.5353942
   138   6 C      140   6 C                                       1.5308069
   138   6 C      141   6 C                                       1.5357312
   142   6 C      143   6 C                                       1.5318701
   142   6 C      144   6 C                                       1.5329881
   142   6 C      145   6 C                                       1.5364828
   144   6 C      146   1 H                                       1.0883615
   144   6 C      147   1 H                                       1.0866923
   144   6 C      148   1 H                                       1.0863984
   143   6 C      149   1 H                                       1.0885993
   143   6 C      150   1 H                                       1.0875563
   143   6 C      151   1 H                                       1.0882851
   145   6 C      152   1 H                                       1.0882396
   145   6 C      153   1 H                                       1.0867223
   145   6 C      154   1 H                                       1.0880264
   141   6 C      155   1 H                                       1.0882102
   141   6 C      156   1 H                                       1.0879937
   141   6 C      157   1 H                                       1.0865540
   140   6 C      158   1 H                                       1.0885244
   140   6 C      159   1 H                                       1.0872186
   140   6 C      160   1 H                                       1.0872810
   137   6 C      161   1 H                                       1.0884013
   137   6 C      162   1 H                                       1.0879941
   137   6 C      163   1 H                                       1.0878055
   136   6 C      164   1 H                                       1.0883355
   136   6 C      165   1 H                                       1.0881893
   136   6 C      166   1 H                                       1.0861874
   135   6 C      167   1 H                                       1.0883723
   135   6 C      168   1 H                                       1.0861004
   135   6 C      169   1 H                                       1.0880294
   139   6 C      170   1 H                                       1.0883558
   139   6 C      171   1 H                                       1.0864575
   139   6 C      172   1 H                                       1.0877413
    98   6 C      173   1 H                                       1.0911166
    98   6 C      174   1 H                                       1.0929110
   128   6 C      175   1 H                                       1.0919976
   128   6 C      176   1 H                                       1.0922030
   129   6 C      177   1 H                                       1.0881555
   129   6 C      178   1 H                                       1.0873352
   129   6 C      179   1 H                                       1.0879324
   132   6 C      180   1 H                                       1.0892705
   132   6 C      181   1 H                                       1.0939990
   132   6 C      182   1 H                                       1.0973068
   133   6 C      183   1 H                                       1.0896635
Note: The following floating-point exceptions are signalling: IEEE_UNDERFLOW_FLAG
normal termination of xtb
   133   6 C      184   1 H                                       1.0967181
   133   6 C      185   1 H                                       1.0933866
    97   6 C      186   1 H                                       1.0903980
    97   6 C      187   1 H                                       1.0923163
   130   6 C      188   1 H                                       1.0917943
   130   6 C      189   1 H                                       1.0919481
   131   6 C      190   1 H                                       1.0880329
   131   6 C      191   1 H                                       1.0871093
   131   6 C      192   1 H                                       1.0879909

 * 4 distinct bonds (by element types)

   Z      Z             #   av. dist./Å        max./Å        min./Å
   1 H    6 C         106     1.0874589     1.0973068     1.0720071
   6 C    6 C          68     1.4512951     1.5370270     1.3815385
   6 C    7 N          12     1.4095944     1.4473305     1.3878366
   6 C    8 O           8     1.3903284     1.4101675     1.3647002


optimized geometry written to: xtbopt.mol


           -------------------------------------------------
          | TOTAL ENERGY             -249.264624729082 Eh   |
          | GRADIENT NORM               0.000353475735 Eh/α |
          | HOMO-LUMO GAP               1.401755827595 eV   |
           -------------------------------------------------
########################################################################
[WARNING] Runtime exception occurred
-3- restart_readRestart: Dimension missmatch in restart file.
-2- restart_readRestart: Multiplicity missmatch in restart file.
-1- restart_readRestart: Number of electron missmatch in restart file.
########################################################################

------------------------------------------------------------------------
 * finished run on 2024/12/02 at 12:37:48.809     
------------------------------------------------------------------------
 total:
 * wall-time:     0 d,  0 h,  0 min, 44.682 sec
 *  cpu-time:     0 d,  0 h,  2 min, 25.191 sec
 * ratio c/w:     3.249 speedup
 SCF:
 * wall-time:     0 d,  0 h,  0 min,  1.478 sec
 *  cpu-time:     0 d,  0 h,  0 min,  5.371 sec
 * ratio c/w:     3.635 speedup
 ANC optimizer:
 * wall-time:     0 d,  0 h,  0 min, 43.173 sec
 *  cpu-time:     0 d,  0 h,  2 min, 19.757 sec
 * ratio c/w:     3.237 speedup

Running optimization for loose_opt_dimer.mol
      -----------------------------------------------------------      
     |                   =====================                   |     
     |                           x T B                           |     
     |                   =====================                   |     
     |                         S. Grimme                         |     
     |          Mulliken Center for Theoretical Chemistry        |     
     |                    University of Bonn                     |     
      -----------------------------------------------------------      

   * xtb version 6.7.1 (edcfbbe) compiled by 'runner@Mac-1732539442253.local' on 2024-11-25

   xtb is free software: you can redistribute it and/or modify it under
   the terms of the GNU Lesser General Public License as published by
   the Free Software Foundation, either version 3 of the License, or
   (at your option) any later version.
   
   xtb is distributed in the hope that it will be useful,
   but WITHOUT ANY WARRANTY; without even the implied warranty of
   MERCHANTABILITY or FITNESS FOR A PARTICULAR PURPOSE.  See the
   GNU Lesser General Public License for more details.
   
   Cite this work as:
   * C. Bannwarth, E. Caldeweyher, S. Ehlert, A. Hansen, P. Pracht,
     J. Seibert, S. Spicher, S. Grimme, WIREs Comput. Mol. Sci., 2020, 11,
     e01493. DOI: 10.1002/wcms.1493
   
   for GFN2-xTB:
   * C. Bannwarth, S. Ehlert and S. Grimme., J. Chem. Theory Comput., 2019,
     15, 1652-1671. DOI: 10.1021/acs.jctc.8b01176
   for GFN1-xTB:
   * S. Grimme, C. Bannwarth, P. Shushkov, J. Chem. Theory Comput., 2017,
     13, 1989-2009. DOI: 10.1021/acs.jctc.7b00118
   for GFN0-xTB:
   * P. Pracht, E. Caldeweyher, S. Ehlert, S. Grimme, ChemRxiv, 2019, preprint.
     DOI: 10.26434/chemrxiv.8326202.v1
   for GFN-FF:
   * S. Spicher and S. Grimme, Angew. Chem. Int. Ed., 2020, 59, 15665-15673.
     DOI: 10.1002/anie.202004239
   
   for ALPB and GBSA implicit solvation:
   * S. Ehlert, M. Stahn, S. Spicher, S. Grimme, J. Chem. Theory Comput.,
     2021, 17, 4250-4261. DOI: 10.1021/acs.jctc.1c00471
   
   for ddCOSMO and CPCM-X implicit solvation:
   * M. Stahn, S. Ehlert, S. Grimme, J. Phys. Chem. A,
     2023, XX, XXXX-XXXX. DOI: 10.1021/acs.jpca.3c04382
   
   for DFT-D4:
   * E. Caldeweyher, C. Bannwarth and S. Grimme, J. Chem. Phys., 2017,
     147, 034112. DOI: 10.1063/1.4993215
   * E. Caldeweyher, S. Ehlert, A. Hansen, H. Neugebauer, S. Spicher,
     C. Bannwarth and S. Grimme, J. Chem. Phys., 2019, 150, 154122.
     DOI: 10.1063/1.5090222
   * E. Caldeweyher, J.-M. Mewes, S. Ehlert and S. Grimme, Phys. Chem. Chem. Phys.
     2020, 22, 8499-8512. DOI: 10.1039/D0CP00502A
   
   for sTDA-xTB:
   * S. Grimme and C. Bannwarth, J. Chem. Phys., 2016, 145, 054103.
     DOI: 10.1063/1.4959605
   
   in the mass-spec context:
   * V. Asgeirsson, C. Bauer and S. Grimme, Chem. Sci., 2017, 8, 4879.
     DOI: 10.1039/c7sc00601b
   * J. Koopman and S. Grimme, ACS Omega 2019, 4, 12, 15120-15133.
     DOI: 10.1021/acsomega.9b02011
   
   for metadynamics refer to:
   * S. Grimme, J. Chem. Theory Comput., 2019, 155, 2847-2862
     DOI: 10.1021/acs.jctc.9b00143
   
   for SPH calculations refer to:
   * S. Spicher and S. Grimme, J. Chem. Theory Comput., 2021, 17, 1701-1714
     DOI: 10.1021/acs.jctc.0c01306
   
   for ONIOM refer to:
   * C. Plett, A. Katbashev, S. Ehlert, S. Grimme, M. Bursch,
     Phys. Chem. Chem. Phys., 2023, 25, 17860-17868. DOI: 10.1039/D3CP02178E
   
   for DIPRO refer to:
   * J. Kohn, N. Gildemeister, S. Grimme, D. Fazzi, A. Hansen,
     J. Chem. Phys., 2023, just accepted.
   
   for PTB refer to:
   * S. Grimme, M. Mueller, A. Hansen, J. Chem. Phys., 2023, 158, 124111.
     DOI: 10.1063/5.0137838
   
   with help from (in alphabetical order)
   P. Atkinson, C. Bannwarth, F. Bohle, G. Brandenburg, E. Caldeweyher
   M. Checinski, S. Dohm, S. Ehlert, S. Ehrlich, I. Gerasimov, C. Hölzer
   A. Katbashev, J. Kohn, J. Koopman, C. Lavigne, S. Lehtola, F. März, M. Müller,
   F. Musil, H. Neugebauer, J. Pisarek, C. Plett, P. Pracht, F. Pultar,
   J. Seibert, P. Shushkov, S. Spicher, M. Stahn, M. Steiner, T. Strunk,
   J. Stückrath, T. Rose, and J. Unsleber
   
 * started run on 2024/12/02 at 12:37:48.850     
   ID    Z sym.   atoms
    1    6 C      1-11, 13, 14, 16-23, 32-49, 97-107, 109, 110, 112-119,
                  128-145
    2    7 N      12, 15, 108, 111
    3    8 O      24, 25, 120, 121
    4    1 H      26-31, 50-96, 122-127, 146-192

           -------------------------------------------------
          |                Calculation Setup                |
           -------------------------------------------------

          program call               : xtb opt_dimer.mol --dipro 0.3 --gfn 2 --chrg 0 --uhf 2
          coordinate file            : opt_dimer.mol
          omp threads                :                     8


molecular fragmentation (1/2 indicates fragments):
111111111111111111111111111111111111111111111111111111111111111111111111
111111111111111111111111222222222222222222222222222222222222222222222222
222222222222222222222222222222222222222222222222
# atoms in fragment 1/2:    96    96
 fragment masses (1/2) :      581.85      581.85
CMA distance (Bohr)    :  12.085
constraining FC (au)   :  0.0500

           -------------------------------------------------
          |                 G F N 2 - x T B                 |
           -------------------------------------------------

        Reference                      10.1021/acs.jctc.8b01176
      * Hamiltonian:
        H0-scaling (s, p, d)           1.850000    2.230000    2.230000
        zeta-weighting                 0.500000
      * Dispersion:
        s8                             2.700000
        a1                             0.520000
        a2                             5.000000
        s9                             5.000000
      * Repulsion:
        kExp                           1.500000    1.000000
        rExp                           1.000000
      * Coulomb:
        alpha                          2.000000
        third order                    shell-resolved
        anisotropic                    true
        a3                             3.000000
        a5                             4.000000
        cn-shift                       1.200000
        cn-exp                         4.000000
        max-rad                        5.000000

q/qsh data taken from xtbrestart
CAMM data taken from xtbrestart
           -------------------------------------------------
          |                    D I P R O                    |
           -------------------------------------------------
Calculation for dimer 
--------------------- 
  
charge of dimer :   0.
unpaired e- of dimer :  2
repulsion energy          3.8332207239825E+00 Eh
dispersion energy         2.0329190228726E-02 Eh
number of electrons       4.6200000000000E+02 e
integral cutoff           1.7347787504999E+01 bohr

------------------------------------------------------------
  cycle        total energy    energy error   density error
------------------------------------------------------------
      1     -248.9315567619  -2.5278511E+02   1.0757062E-01
      2     -249.2067514116  -2.7519465E-01   5.4982213E-02
      3     -249.1894482404   1.7303171E-02   2.6371444E-02
      4     -249.2554931253  -6.6044885E-02   9.8492568E-03
      5     -249.2608574535  -5.3643283E-03   3.9799805E-03
      6     -249.2639290632  -3.0716097E-03   1.8197561E-03
      7     -249.2645399922  -6.1092898E-04   6.6004108E-04
      8     -249.2645488134  -8.8212100E-06   2.1574104E-04
      9     -249.2645528931  -4.0796950E-06   7.9212925E-05
     10     -249.2645535588  -6.6569297E-07   3.7627713E-05
     11     -249.2645537417  -1.8291232E-07   1.8792345E-05
------------------------------------------------------------

electronic energy        -2.5311810365592E+02 Eh
total energy             -2.4926455374171E+02 Eh

 total:                                   1.059 sec
 - repulsion                              0.000 sec (  0%)
 - dispersion                             0.012 sec (  1%)
 - coulomb                                0.003 sec (  0%)
 - hamiltonian                            0.008 sec (  0%)
 - scc                                    1.036 sec ( 97%)

Found 2 fragments!
Fragment 1:  1-96
Fragment 2:  97-192

[Info] Fragment spin read from .UHFfrag
Calculation for fragment 1
 ------------------------------
   
charge of fragment :   0.
unpaired e- of fragment :  1
------------------------------------------------------------
  cycle        total energy    energy error   density error
------------------------------------------------------------
      1     -124.4557155135  -1.2637468E+02   1.0759370E-01
      2     -124.5930933349  -1.3737782E-01   5.4903873E-02
      3     -124.5848790286   8.2143063E-03   2.6286671E-02
      4     -124.6178181132  -3.2939085E-02   9.8482067E-03
      5     -124.6205053130  -2.6871999E-03   3.9143937E-03
      6     -124.6218570853  -1.3517723E-03   1.8372410E-03
      7     -124.6221660804  -3.0899510E-04   6.5717407E-04
      8     -124.6221705921  -4.5116705E-06   2.0064944E-04
      9     -124.6221720501  -1.4580164E-06   7.0632921E-05
     10     -124.6221722616  -2.1145541E-07   3.1981161E-05
     11     -124.6221723093  -4.7721642E-08   1.6714420E-05
------------------------------------------------------------

 total:                                   0.276 sec
Calculation for fragment 2
 ------------------------------
   
charge of fragment :   0.
unpaired e- of fragment :  1
------------------------------------------------------------
  cycle        total energy    energy error   density error
------------------------------------------------------------
      1     -124.4558279595  -1.2637425E+02   1.0778007E-01
      2     -124.5938329591  -1.3800500E-01   5.5048311E-02
      3     -124.5857781327   8.0548263E-03   2.6433703E-02
      4     -124.6184993098  -3.2721177E-02   9.8257671E-03
      5     -124.6210615337  -2.5622239E-03   3.8434504E-03
      6     -124.6223666784  -1.3051447E-03   1.8301914E-03
      7     -124.6226887355  -3.2205705E-04   6.5558171E-04
      8     -124.6226933976  -4.6620975E-06   2.0836383E-04
      9     -124.6226950133  -1.6157369E-06   7.1535086E-05
     10     -124.6226952171  -2.0375046E-07   3.1923783E-05
     11     -124.6226952594  -4.2335742E-08   1.6327996E-05
------------------------------------------------------------

 total:                                   0.322 sec
   
   ::::::::::::::::::::::::::::::::::::::::::::::
   ::     D I P R O      C O U P L I N G S     ::
   ::::::::::::::::::::::::::::::::::::::::::::::
   
energy threshhold for near-degenerate orbitals near HOMO and LUMO considered for DIPRO:  0.300 eV
no. of orbitals within energy window of frag 1         2
no. of orbitals within energy window of frag 2         2
   
  Fragment 1 SOMO   Fragment 2 SOMO 
--------------------------------------
E_mon(orb) frag1 frag2              -8.959    -9.076 eV
J(AB):               -0.012 eV
S(AB):             0.00058371 Eh
|J(AB,eff)|:            0.007 eV
   
  Fragment 1 SOMO   Fragment 2 LUMO 
--------------------------------------
E_mon(orb) frag1 frag2              -8.959    -7.342 eV
J(AB):                0.006 eV
S(AB):            -0.00029914 Eh
|J(AB,eff)|:            0.003 eV
   
  Fragment 1 LUMO   Fragment 2 SOMO 
--------------------------------------
E_mon(orb) frag1 frag2              -7.215    -9.076 eV
J(AB):                0.007 eV
S(AB):            -0.00036742 Eh
|J(AB,eff)|:            0.004 eV
   
  Fragment 1 LUMO   Fragment 2 LUMO 
--------------------------------------
E_mon(orb) frag1 frag2              -7.215    -7.342 eV
J(AB):               -0.007 eV
S(AB):             0.00033185 Eh
|J(AB,eff)|:            0.004 eV
   
..............................................................................
:  total |J(AB,eff)| for hole transport (occ. MOs) :               0.007 eV  :
:  total |J(AB,eff)| for charge transport (unocc. MOs) :           0.004 eV  :
:  total |J(AB,eff)| for charge transfer (CT) :                    0.006 eV  :
..............................................................................
  
 Please remember, DIPRO is not available for restart!
   
normal termination of dipro
----------------------------------------------------------
 * finished run on 2024/12/02 at 12:37:50.536     
----------------------------------------------------------
 dipro:
 * wall-time:     0 d,  0 h,  0 min,  1.678 sec
 *  cpu-time:     0 d,  0 h,  0 min,  5.347 sec
 * ratio c/w:     3.186 speedup
