192
 energy: -249.238081654356 gnorm: 0.082145807026 xtb: 6.7.1 (edcfbbe)
C            0.20160000000000        3.35230000000000       -4.03680000000000
C            2.12590000000000       -2.28540000000000        0.41750000000000
C           -4.20200000000000        1.20790000000000       -2.74380000000000
C           -3.23440000000000        0.37120000000000       -2.19620000000000
C           -1.88860000000000        0.85340000000000       -2.12290000000000
C           -1.53050000000000        1.99200000000000       -2.88890000000000
C           -2.55190000000000        2.79090000000000       -3.40910000000000
C           -3.88650000000000        2.43870000000000       -3.30240000000000
C           -0.88920000000000        0.23620000000000       -1.29490000000000
C            0.47270000000000        0.43110000000000       -1.64020000000000
C            0.83070000000000        1.44960000000000       -2.55960000000000
N           -0.17160000000000        2.25840000000000       -3.11850000000000
C           -1.19010000000000       -0.56430000000000       -0.13830000000000
C           -0.22380000000000       -1.51220000000000        0.28990000000000
N            1.10050000000000       -1.39630000000000       -0.16100000000000
C            1.47340000000000       -0.40200000000000       -1.07820000000000
C            2.79220000000000       -0.22250000000000       -1.49130000000000
C            3.16540000000000        0.78850000000000       -2.36200000000000
C            2.17860000000000        1.61970000000000       -2.86790000000000
C           -2.39640000000000       -0.44090000000000        0.62910000000000
C           -2.73220000000000       -1.47710000000000        1.49550000000000
C           -1.89530000000000       -2.56290000000000        1.71320000000000
C           -0.62350000000000       -2.52160000000000        1.16930000000000
O           -3.25570000000000        0.67330000000000        0.60990000000000
O           -3.50730000000000       -0.93120000000000       -1.77310000000000
H           -5.22640000000000        0.88940000000000       -2.74400000000000
H           -2.29660000000000        3.72330000000000       -3.87220000000000
H           -3.65160000000000       -1.38400000000000        2.04180000000000
H            0.06520000000000       -3.30810000000000        1.40610000000000
H            3.54980000000000       -0.90090000000000       -1.15070000000000
H            2.46490000000000        2.41690000000000       -3.52360000000000
C            2.30290000000000       -3.56420000000000       -0.38520000000000
C            3.34140000000000       -4.49240000000000        0.22200000000000
C            0.50210000000000        4.64250000000000       -3.28920000000000
C            0.88550000000000        5.78360000000000       -4.21610000000000
C           -2.59200000000000        1.91900000000000        0.56570000000000
C           -4.86560000000000       -1.19770000000000       -1.51530000000000
C           -5.01870000000000        3.34750000000000       -3.80380000000000
C           -5.77740000000000        2.63860000000000       -4.93980000000000
C           -5.98150000000000        3.64110000000000       -2.63730000000000
C           -4.48220000000000        4.69000000000000       -4.33720000000000
C           -2.34620000000000       -3.73250000000000        2.59990000000000
C           -1.56820000000000       -5.02070000000000        2.26090000000000
C           -3.84680000000000       -4.01560000000000        2.38910000000000
C           -2.09430000000000       -3.36980000000000        4.06590000000000
C            4.63840000000000        0.92710000000000       -2.78030000000000
C            4.87410000000000        2.18700000000000       -3.63670000000000
C            5.04310000000000       -0.30900000000000       -3.60310000000000
C            5.52860000000000        1.02710000000000       -1.52800000000000
H            6.08100000000000       -0.23900000000000       -3.92840000000000
H            4.41620000000000       -0.40320000000000       -4.48950000000000
H            4.93590000000000       -1.22290000000000       -3.01970000000000
H            5.92830000000000        2.28690000000000       -3.89490000000000
H            4.57920000000000        3.08740000000000       -3.09800000000000
H            4.31310000000000        2.14060000000000       -4.56980000000000
H            6.57160000000000        1.18340000000000       -1.80290000000000
H            5.47940000000000        0.11650000000000       -0.93310000000000
H            5.21730000000000        1.86180000000000       -0.90050000000000
H           -2.40500000000000       -4.17450000000000        4.73080000000000
H           -2.64160000000000       -2.47080000000000        4.34160000000000
H           -1.03570000000000       -3.17850000000000        4.23080000000000
H           -4.15900000000000       -4.89530000000000        2.95160000000000
H           -4.06060000000000       -4.19550000000000        1.33580000000000
H           -4.46180000000000       -3.18160000000000        2.72280000000000
H           -5.30110000000000        5.33050000000000       -4.66430000000000
H           -3.82300000000000        4.53890000000000       -5.19180000000000
H           -3.93180000000000        5.22690000000000       -3.56480000000000
H           -6.78670000000000        4.30430000000000       -2.95290000000000
H           -5.45250000000000        4.12010000000000       -1.81350000000000
H           -6.43400000000000        2.72680000000000       -2.25570000000000
H           -6.57630000000000        3.26990000000000       -5.32850000000000
H           -6.22620000000000        1.70740000000000       -4.59640000000000
H           -5.10350000000000        2.40150000000000       -5.76280000000000
H           -1.96610000000000       -5.87010000000000        2.81590000000000
H           -0.51410000000000       -4.93220000000000        2.52120000000000
H           -1.64210000000000       -5.25020000000000        1.19810000000000
H            1.85930000000000       -2.50740000000000        1.45290000000000
H            3.07460000000000       -1.75390000000000        0.50230000000000
H            2.57510000000000       -3.30540000000000       -1.41680000000000
H            1.33510000000000       -4.07470000000000       -0.47070000000000
H            4.31730000000000       -4.00610000000000        0.28270000000000
H            3.46530000000000       -5.40800000000000       -0.36090000000000
H            3.06410000000000       -4.78360000000000        1.23720000000000
H           -3.21200000000000        2.66250000000000        1.06290000000000
H           -2.44310000000000        2.24080000000000       -0.46190000000000
H           -1.63030000000000        1.84090000000000        1.07340000000000
H           -4.94120000000000       -2.16920000000000       -1.02590000000000
H           -5.42740000000000       -1.22650000000000       -2.44930000000000
H           -5.26590000000000       -0.43430000000000       -0.84650000000000
H           -0.59530000000000        3.50310000000000       -4.76920000000000
H            1.05430000000000        3.04370000000000       -4.64630000000000
H            1.30100000000000        4.45700000000000       -2.55940000000000
H           -0.37150000000000        4.91750000000000       -2.68380000000000
H            1.77370000000000        5.53540000000000       -4.80060000000000
H            1.09920000000000        6.70420000000000       -3.66790000000000
H            0.08430000000000        6.00180000000000       -4.92520000000000
C           -0.64300000000000        3.89670000000000        2.56730000000000
C            2.00740000000000       -2.32380000000000        5.63530000000000
C           -4.78830000000000        1.34750000000000        3.94610000000000
C           -3.74130000000000        0.49970000000000        4.29250000000000
C           -2.41260000000000        1.02950000000000        4.29770000000000
C           -2.18260000000000        2.29810000000000        3.70570000000000
C           -3.28220000000000        3.11910000000000        3.44150000000000
C           -4.58330000000000        2.66330000000000        3.55770000000000
C           -1.28840000000000        0.30490000000000        4.82860000000000
C           -0.00620000000000        0.58790000000000        4.29360000000000
C            0.19220000000000        1.75650000000000        3.51480000000000
N           -0.87910000000000        2.63910000000000        3.30760000000000
C           -1.38200000000000       -0.66000000000000        5.88980000000000
C           -0.33900000000000       -1.61000000000000        6.04190000000000
N            0.88120000000000       -1.40320000000000        5.37910000000000
C            1.07990000000000       -0.28450000000000        4.55510000000000
C            2.31750000000000        0.01410000000000        3.98900000000000
C            2.53520000000000        1.16110000000000        3.24330000000000
C            1.46910000000000        2.01740000000000        3.02430000000000
C           -2.45530000000000       -0.67980000000000        6.83900000000000
C           -2.61840000000000       -1.80980000000000        7.63590000000000
C           -1.70060000000000       -2.85000000000000        7.63920000000000
C           -0.55580000000000       -2.71150000000000        6.87490000000000
O           -3.32970000000000        0.40650000000000        7.05950000000000
O           -3.92840000000000       -0.85860000000000        4.55320000000000
H           -5.78970000000000        0.96320000000000        3.94820000000000
H           -3.11330000000000        4.13040000000000        3.12870000000000
H           -3.46910000000000       -1.82960000000000        8.28990000000000
H            0.16870000000000       -3.50220000000000        6.90050000000000
H            3.14200000000000       -0.65520000000000        4.13740000000000
H            1.64000000000000        2.91790000000000        2.47010000000000
C            2.09170000000000       -3.42430000000000        4.58860000000000
C            3.28460000000000       -4.34270000000000        4.78950000000000
C           -0.14560000000000        5.00840000000000        3.47730000000000
C            0.12450000000000        6.30190000000000        2.72750000000000
C           -2.67220000000000        1.62610000000000        7.34300000000000
C           -5.25130000000000       -1.22570000000000        4.86720000000000
C           -5.78880000000000        3.52570000000000        3.15550000000000
C           -6.44900000000000        2.91020000000000        1.90750000000000
C           -6.80030000000000        3.56630000000000        4.31570000000000
C           -5.37350000000000        4.97240000000000        2.82460000000000
C           -1.88990000000000       -4.10890000000000        8.49830000000000
C           -1.89260000000000       -5.35130000000000        7.58850000000000
C           -3.22100000000000       -4.07470000000000        9.27360000000000
C           -0.73660000000000       -4.21110000000000        9.51290000000000
C            3.95010000000000        1.47400000000000        2.73190000000000
C            3.98940000000000        2.77840000000000        1.91100000000000
C            4.43270000000000        0.32790000000000        1.82970000000000
C            4.90000000000000        1.62250000000000        3.93410000000000
H            5.44810000000000        0.50970000000000        1.47890000000000
H            3.78280000000000        0.24280000000000        0.96120000000000
H            4.42810000000000       -0.62650000000000        2.35430000000000
H            4.99760000000000        2.97470000000000        1.54670000000000
H            3.68710000000000        3.63350000000000        2.51510000000000
H            3.33220000000000        2.71520000000000        1.04360000000000
H            5.91030000000000        1.86550000000000        3.60540000000000
H            4.95050000000000        0.70170000000000        4.51400000000000
H            4.55960000000000        2.41740000000000        4.59720000000000
H           -0.85850000000000       -5.08280000000000       10.15540000000000
H           -0.70340000000000       -3.32590000000000       10.14770000000000
H            0.22630000000000       -4.29930000000000        9.01140000000000
H           -3.35100000000000       -4.98480000000000        9.85890000000000
H           -4.06850000000000       -3.99590000000000        8.59300000000000
H           -3.25190000000000       -3.23270000000000        9.96460000000000
H           -6.24550000000000        5.57730000000000        2.57640000000000
H           -4.70080000000000        5.00320000000000        1.96770000000000
H           -4.87650000000000        5.44130000000000        3.67370000000000
H           -7.65440000000000        4.19560000000000        4.06620000000000
H           -6.33620000000000        3.96850000000000        5.21590000000000
H           -7.17840000000000        2.57220000000000        4.54990000000000
H           -7.29950000000000        3.50760000000000        1.57990000000000
H           -6.80580000000000        1.90060000000000        2.10660000000000
H           -5.73840000000000        2.85340000000000        1.08330000000000
H           -2.02050000000000       -6.26200000000000        8.17340000000000
H           -0.95950000000000       -5.44060000000000        7.03360000000000
H           -2.70820000000000       -5.29830000000000        6.86800000000000
H            1.91860000000000       -2.74530000000000        6.63940000000000
H            2.93910000000000       -1.75500000000000        5.67950000000000
H            2.12900000000000       -2.96440000000000        3.59390000000000
H            1.15940000000000       -4.00300000000000        4.59610000000000
H            4.22280000000000       -3.78610000000000        4.74410000000000
H            3.33050000000000       -5.12760000000000        4.03080000000000
H            3.24680000000000       -4.83060000000000        5.76550000000000
H           -3.41600000000000        2.42000000000000        7.41180000000000
H           -1.95910000000000        1.87240000000000        6.55800000000000
H           -2.14610000000000        1.53900000000000        8.29390000000000
H           -5.25040000000000       -2.25240000000000        5.23470000000000
H           -5.87820000000000       -1.16920000000000        3.97690000000000
H           -5.63430000000000       -0.57210000000000        5.65210000000000
H           -1.55350000000000        4.20500000000000        2.04970000000000
H            0.06170000000000        3.71120000000000        1.75270000000000
H            0.76060000000000        4.67060000000000        3.99680000000000
H           -0.88140000000000        5.17330000000000        4.27530000000000
H            0.87890000000000        6.15750000000000        1.95150000000000
H            0.48120000000000        7.09410000000000        3.38980000000000
H           -0.77830000000000        6.66740000000000        2.23390000000000
192
 energy: -249.253202832341 gnorm: 0.037303608540 xtb: 6.7.1 (edcfbbe)
C            0.19773842820815        3.33741571723907       -4.02295304085274
C            2.11111816948216       -2.27692761571947        0.40702434313155
C           -4.19939161695998        1.21026883770804       -2.74997047862700
C           -3.23200393058081        0.38813052505567       -2.19450670089025
C           -1.88564892299015        0.84421616264443       -2.12650032127388
C           -1.52575379132230        1.97554412462721       -2.90139691914448
C           -2.53822479273564        2.78873145764225       -3.41240824819995
C           -3.87966808094644        2.44528972689160       -3.30165320806816
C           -0.89193873856827        0.23213774780258       -1.29573712342730
C            0.46949711708250        0.42684367448651       -1.64194454241997
C            0.82699494698164        1.44377424789932       -2.56109368031495
N           -0.17207984599023        2.25243390407233       -3.11387068969887
C           -1.18440738319879       -0.55730467033349       -0.13749883849190
C           -0.21933116569320       -1.50077245245772        0.29478130531747
N            1.09696392856872       -1.39422974955349       -0.16656694497176
C            1.47028560971820       -0.40394533844212       -1.07842216947695
C            2.78901086372662       -0.23059352574212       -1.49332796322469
C            3.16006620915135        0.78588648945355       -2.36662296226609
C            2.17246048480167        1.62334847742873       -2.86918951184324
C           -2.38001663742855       -0.45394840203886        0.62264311287700
C           -2.72498553099447       -1.47152333121448        1.49697263975500
C           -1.89424661639044       -2.56504323990083        1.70725966799110
C           -0.61635401291097       -2.51707600219271        1.16342032674568
O           -3.23182067791132        0.64640599331618        0.58339523642651
O           -3.50152904482717       -0.89440578520617       -1.75893316635356
H           -5.22689887508943        0.89165426219742       -2.75039264630322
H           -2.27907610050801        3.71997765391698       -3.87882614329349
H           -3.65388250327235       -1.37546255539262        2.03101476153825
H            0.07322503903758       -3.30468268797190        1.40133794537805
H            3.55134842535724       -0.90678881932634       -1.15027173074357
H            2.45911701691598        2.42167400524115       -3.52560838093000
C            2.29404193718204       -3.56314215080219       -0.39468006604236
C            3.33702123825326       -4.48281597436879        0.22423415683663
C            0.49972515363521        4.63687856717004       -3.27878754650899
C            0.88215435798864        5.77206091645071       -4.21756541075131
C           -2.59212175136825        1.90436711292679        0.54923458562009
C           -4.85575861320951       -1.18977940290346       -1.51088491449776
C           -5.00879360940921        3.34811536847379       -3.80171631062668
C           -5.76989516382311        2.64060951509255       -4.93430324145675
C           -5.97341255072148        3.63883036477185       -2.63998304750401
C           -4.48456943685136        4.68764381801711       -4.33648994353924
C           -2.34486936326512       -3.73388957762963        2.58512743496409
C           -1.57149599547817       -5.02016398429061        2.25408882898713
C           -3.84106436564727       -4.01614467617370        2.38244781504401
C           -2.09230668804286       -3.37647817238941        4.05123508455918
C            4.62814213603503        0.92981756278893       -2.77984592530544
C            4.87282382486353        2.18209871793473       -3.63416492214604
C            5.03548168331496       -0.30438999487930       -3.59983395412795
C            5.52238513503136        1.02789638300517       -1.53433616801489
H            6.07374851640021       -0.22667501562258       -3.92002807822176
H            4.40994341925244       -0.39648363329655       -4.48590811860759
H            4.92961999501857       -1.21627934797759       -3.01596262198775
H            5.92977607794883        2.26787463542513       -3.88187662675660
H            4.58180425336784        3.08200585550186       -3.09486265048930
H            4.31899712862540        2.13337572679767       -4.56980137533867
H            6.56180068047598        1.18517550551753       -1.81974969595338
H            5.47659416117468        0.11753566350159       -0.94274000328601
H            5.20991901967161        1.86083992411846       -0.90775089209599
H           -2.40267218729882       -4.18369554909030        4.71222097024369
H           -2.63415217709341       -2.47888121335484        4.32979797593762
H           -1.03479484956197       -3.18904613591342        4.21270244993171
H           -4.14088106292547       -4.89657342611939        2.94961398688270
H           -4.05590276273413       -4.19441884282716        1.33035757192954
H           -4.44973785723245       -3.18385717392499        2.72370698069863
H           -5.31431233733388        5.31502987936578       -4.65812056614306
H           -3.83146220158858        4.53671860508356       -5.19413011606461
H           -3.93784448699004        5.22551382642137       -3.56393012506719
H           -6.77540571350455        4.30082818123836       -2.96406300850573
H           -5.44402363282136        4.11877859921646       -1.81871261999959
H           -6.42522268149007        2.72545084157150       -2.26033045471527
H           -6.56703511566564        3.27672784056815       -5.31700822313725
H           -6.21870950966558        1.71162479415231       -4.59020813471104
H           -5.09597675259652        2.40505793498858       -5.75622192126065
H           -1.98095210553884       -5.85901165571787        2.81518137524531
H           -0.52092883143775       -4.93422440174003        2.52390816020280
H           -1.64291104282867       -5.24950557495112        1.19259208007602
H            1.83095017487900       -2.50272669277024        1.43945995752040
H            3.06057831279261       -1.74389721678463        0.47715728053861
H            2.58444014004385       -3.30453230167392       -1.41824433688407
H            1.33290546265009       -4.08173628961515       -0.46468329291727
H            4.30976411437216       -3.99357896556818        0.27902376010529
H            3.45339885927596       -5.39228198328015       -0.36377156692589
H            3.05213940390544       -4.77295908323665        1.23559782871820
H           -3.23695390105139        2.61640585673858        1.06562009814800
H           -2.44178297123092        2.25203166128541       -0.47378592950204
H           -1.62943075171453        1.84999525144085        1.05886963803725
H           -4.89476838109511       -2.16552152224171       -1.02597902309038
H           -5.42869644456195       -1.23732522321310       -2.44275788815648
H           -5.28508661613067       -0.44148953491591       -0.83926758239564
H           -0.60996401022850        3.49013208416359       -4.74334848133838
H            1.06061277290672        3.02994372683887       -4.62013490531519
H            1.30962899324556        4.45636802354694       -2.56427424806784
H           -0.37899432876799        4.92073550419830       -2.69011804641708
H            1.77158420447920        5.52060042282403       -4.79505092884966
H            1.09291513968941        6.68465671556004       -3.66104561359482
H            0.07751507309325        5.98815070666766       -4.92020873090279
C           -0.64179949800821        3.88130881019263        2.58380427514111
C            1.99362490205701       -2.31211838123449        5.62983546977666
C           -4.78733750391290        1.35430947948295        3.94016225316798
C           -3.74065094484994        0.52536372155500        4.30653074578246
C           -2.41053627483502        1.02285895737525        4.29080388495332
C           -2.17975896713311        2.28392027137746        3.68946149784426
C           -3.26957071208056        3.11948244381443        3.43783493143419
C           -4.57724673072826        2.67092256906889        3.55399790812285
C           -1.29048682013351        0.30326925145868        4.83009048543246
C           -0.00808496249166        0.58777824852623        4.29747871810551
C            0.19041661971425        1.75572985022713        3.52093936552817
N           -0.87721455244213        2.63615000835744        3.31876301193812
C           -1.37469907045359       -0.65006106679079        5.89298938643264
C           -0.33207796052172       -1.59783526723643        6.05038175789686
N            0.87749321570696       -1.40046499476846        5.37644251787373
C            1.07856500440814       -0.28289496945459        4.55996948289598
C            2.31602006877344        0.01043714165045        3.99362980869196
C            2.53141433822266        1.16374870178555        3.24763701327348
C            1.46437341141462        2.02337031409491        3.02901595388815
C           -2.43812044107961       -0.68417755108690        6.83313793962247
C           -2.61078170538920       -1.79582892578775        7.64284398036436
C           -1.70307537520749       -2.84640739381626        7.63663320904312
C           -0.54849649882667       -2.70284121777587        6.87462844163756
O           -3.31369413821402        0.38818940330216        7.02809129628160
O           -3.92728239741648       -0.81316639969723        4.58766856670207
H           -5.79178410103184        0.96945903210609        3.94341956000565
H           -3.09506004157370        4.13247994858702        3.12777291546191
H           -3.46858171849602       -1.80583202286688        8.29257361242076
H            0.17890216539261       -3.49467717180745        6.90479997688551
H            3.14496740990077       -0.65795083802223        4.14221135406131
H            1.63459266043625        2.92214553454845        2.46952870514048
C            2.08277945646277       -3.42025725819772        4.58276407922718
C            3.28102838892256       -4.33378613040803        4.79520153408508
C           -0.14437431929962        5.00311371309566        3.49135788844010
C            0.12088755841400        6.29160524536960        2.72596444836613
C           -2.66847525338137        1.60783653572461        7.33853568917009
C           -5.24579590224928       -1.21360429014181        4.87810616035579
C           -5.78009897632506        3.52916305272175        3.16001308423474
C           -6.44111271410680        2.91246133044435        1.91530802808581
C           -6.79349298623489        3.56736703729675        4.31443185402262
C           -5.37621258235877        4.97162655206684        2.82637679969630
C           -1.89264082691080       -4.10077304930107        8.49276815667887
C           -1.89267875917385       -5.34383429408017        7.58910510034387
C           -3.21574050439132       -4.07512289151920        9.27016352952773
C           -0.74153840843439       -4.20693682325300        9.50636713279069
C            3.93995004748478        1.47514259620045        2.73522620624978
C            3.98954678777915        2.77255983903475        1.91526095981893
C            4.42750073126112        0.33250592575047        1.83612283074315
C            4.89104818855482        1.62317257399435        3.93336551988775
H            5.44359306550260        0.52267870301697        1.49343128952305
H            3.77844110234231        0.25593596121532        0.96697824610197
H            4.42366476808926       -0.62029073846534        2.36149471261029
H            5.00297082929497        2.95343387721087        1.55962067529942
H            3.69406703541692        3.62881882393708        2.51898793830788
H            3.33671254958964        2.70629836714498        1.04595714438013
H            5.89767741476698        1.86559136600992        3.59512592718602
H            4.94368056435485        0.70307242569808        4.51106040458455
H            4.55124964955156        2.41845457228278        4.59424528546107
H           -0.87112739938128       -5.07996284530985       10.14461275853829
H           -0.71081333067379       -3.32245230664493       10.14025704025114
H            0.22022204907382       -4.29755696692846        9.00647616456707
H           -3.33136277283258       -4.99046613741592        9.84895425583336
H           -4.06206063193325       -3.99884124156417        8.59035441639770
H           -3.24433723700905       -3.23744474480534        9.96416601120184
H           -6.25793358066865        5.56182684814513        2.58232576705944
H           -4.71093535467300        5.00259999804718        1.96508979962489
H           -4.88141861158803        5.44109625758148        3.67485396167348
H           -7.64439268922631        4.19647541839884        4.05656600441371
H           -6.32895253144828        3.97007249677617        5.21265270740599
H           -7.17067034242883        2.57414113993445        4.54574734168800
H           -7.29032999512317        3.51447287793924        1.59411841738392
H           -6.79853472773960        1.90514938282878        2.11576883304705
H           -5.73112477009577        2.85481812421653        1.09210481569749
H           -2.02043606854275       -6.24886340404866        8.18183467551637
H           -0.96074905560614       -5.43295756587384        7.03550329983419
H           -2.70941276288311       -5.28869118026416        6.87200695181764
H            1.88949316932308       -2.73833495015250        6.63070965047244
H            2.92507107776930       -1.74003825416330        5.65886348435875
H            2.13823369976587       -2.95936666919076        3.59130758406363
H            1.15932559086178       -4.00818605362685        4.60490593096301
H            4.21518315309863       -3.77447376076727        4.74442934018933
H            3.31749524896020       -5.11323865125505        4.03469446804584
H            3.23586537620739       -4.82096784723948        5.76895167684816
H           -3.43523717876448        2.38009073576968        7.40155175657414
H           -1.94918315122205        1.88807121009061        6.56683391751673
H           -2.15110158857395        1.53422975910115        8.30109521056596
H           -5.20556432196634       -2.24368563410027        5.23514091538216
H           -5.87896276015471       -1.17704148936620        3.98524013653345
H           -5.66229356224439       -0.57904040281251        5.66392484684802
H           -1.56029553826098        4.18670966693450        2.07908877136110
H            0.07409369165717        3.69356759614894        1.77790312259825
H            0.76994077207273        4.67402305824447        3.99557936574740
H           -0.88883648987090        5.18029707755102        4.27445599342689
H            0.87737668947894        6.14156136547683        1.95571473260873