116
 energy: -22.928061455056 gnorm: 0.329736929581 xtb: 6.6.1 (8d0f1dd)
C           -3.31122850772930        0.79849766164622       -0.92477639677520
C           -2.44380812530352       -0.12270372891954       -0.27661132624697
C           -1.41337090092821        0.39579727573559        0.56335275196199
C           -0.89266158675590        1.65801491088749        0.27377586709581
C           -1.72665675402493        2.51431363229076       -0.49448366572522
C           -2.95444148494349        2.13954154133227       -1.01494489940871
C           -0.74098268209890       -0.43411532818871        1.49825021926784
C            0.56872586496315        0.03782116815119        1.86248088067890
C            1.03782416582094        1.29402317993033        1.50887470833621
N            0.31238977034758        2.07067427098208        0.65193736800696
C           -1.29695700510141       -1.39996043042223        2.41574187746061
C           -0.38243517664656       -2.18060797534842        3.13232615520648
N            0.91308504082021       -1.90366887689689        3.30325166013478
C            1.37712470144904       -0.74872102533751        2.81811050966982
C            2.52149331701875       -0.17739833758153        3.39379298866852
C            2.95849061756259        1.02681208890480        2.95105897606587
C            2.24288949469137        1.78498308775960        2.03503020483770
C           -2.74860936222260       -1.74497937691422        2.38401158947411
C           -3.09416315450955       -2.91614440870436        3.00571134491758
C           -2.16786021984049       -3.77788778654213        3.63251872101904
C           -0.85708937311598       -3.40495313382985        3.68547234358092
O           -3.71994433332149       -0.94984598373544        1.67726658385724
O           -2.55702603277562       -1.47241711578389       -0.57241635275616
C           -3.84297843593025        3.13357444054366       -1.60938954875544
C           -2.68769581069131       -5.03867041417370        4.30484659386931
H           -1.39666850744143        3.51251503834900       -0.76806311868865
H           -4.27662633836220        0.55105838579656       -1.33106614114542
H            2.66329581305412        2.73912661909249        1.72562431984580
H            3.05775395548473       -0.69369546277216        4.16536137542516
H           -0.24710966264510       -4.12034095424229        4.22946223699121
H           -4.11477991332403       -3.04712728052358        3.03244694615357
O           -4.21824883374556        4.03433712717988       -0.87713382485991
O           -4.44510595673734        2.90643496899600       -2.81853501752979
C           -5.44216520282800        3.83300025693726       -3.02488532025093
C            4.23586651889298        1.50004220933226        3.59165660008449
O            5.05927614697201        0.66079890002952        3.91714215179376
O            4.47001334453535        2.86385149488593        3.72605651435371
C            5.79457498613219        3.08584475587818        4.15829123132174
O           -3.82227255313510       -5.27347675879771        4.16636005494405
O           -1.85023202017753       -5.79767454267276        5.06656077253571
C           -2.55119635829503       -6.86252441382958        5.62930343183426
C           -5.07197156564436       -1.42399175670916        1.58830531863830
C           -1.33089900128490       -2.23622472573986       -0.99264499351172
H           -2.54510546830388       -7.76426885143998        4.99136022291012
H           -3.57194749219491       -6.44405511486021        5.74196173723541
H           -2.09133598235598       -7.02043774843818        6.64022264233588
H            5.72707967266424        3.46798026205549        5.10135971236643
H            6.34060091246885        3.78468702308830        3.50069950143490
H            6.17933064298187        2.03010500085905        4.19342358084693
H           -0.91862729772622       -2.57650129080332       -0.01361370304871
H           -0.49769766914251       -1.60651221708571       -1.34094446550576
H           -1.52632419730509       -2.94569707152159       -1.75361447637286
H           -5.11788846557077       -2.41810833635233        1.17520213188926
H           -5.67929807973498       -0.69619639428435        1.04301666067831
H           -5.57598832326623       -1.42383358739762        2.57928294206544
H           -6.13050215934830        3.76035386975488       -2.23272855695873
H           -5.86615610071888        3.45938329385866       -4.02668959924245
H           -5.13479557532099        4.87790991548477       -2.98314551356402
C           -1.38192942069774        3.73616555005018        2.91232598411686
C           -1.84821468128685        2.59982427735607        3.49755545445181
C           -1.05946531454833        2.05730632010638        4.60922730982276
C            0.19893954712228        2.69376791964407        4.86302140881997
C            0.50425395911860        3.94630308659851        4.28768785650746
C           -0.26031777722226        4.46998310053134        3.25072669343212
C           -1.20488993561782        0.74454293276906        5.14851520323437
C           -0.06287609782692        0.02744069315890        5.60930570802864
C            1.19208754369866        0.71421540266195        5.78882868583885
N            1.19428660993148        2.06344359410476        5.62744624321596
C           -2.41361422770794        0.07928500213936        5.25249410304426
C           -2.45851584031083       -1.32662100968547        5.60237876023992
N           -1.29466212405906       -1.98318595734370        5.89916817085159
C           -0.14475655767527       -1.32117560077092        5.98824682881008
C            0.97209270935794       -1.98958449505532        6.53157704134458
C            2.21982707914082       -1.36973967291181        6.68703967237737
C            2.30561929262884       -0.09745313075593        6.26436900324455
C           -3.73018485967715        0.71367583494582        5.25810242262992
C           -4.89964478833448       -0.06184623426677        5.21204641615509
C           -4.82617965800088       -1.39228978090841        5.46901303780036
C           -3.67144193418464       -1.98914944386360        5.67265433266067
O           -3.75568638935321        2.07705011038914        5.52067969627343
O           -2.94192434743730        1.91263938797883        3.01658762327703
C            0.21273512614467        5.50086066357994        2.34765104514621
C           -6.06660304520411       -2.17604633098929        5.80641622556876
H            1.41756699010566        4.38133362238595        4.66974005703471
H           -1.82880610647429        4.11982501512100        2.06992133318584
H            3.26888037378556        0.32655662585251        6.31721410015598
H            0.87146188387207       -3.08471526305024        6.57830423410869
H           -3.67716811065157       -3.05999292755990        5.83019634570050
H           -5.77379677507622        0.43595144608221        4.71017130754348
O            1.34459852619901        5.82615848916894        2.44941456579099
O           -0.74718748219123        6.07961784856304        1.59848183464284
C           -0.21473095568964        7.24015934882472        1.05753806029483
C            3.53228080814219       -2.00967610361154        7.02506769044485
O            3.64093082622715       -3.14437803815732        7.50071391725347
O            4.56565258381079       -1.22937033368332        6.69086985080897
C            5.72579357310716       -1.80692399125161        7.22246151275881
O           -7.04801223588612       -1.95726935745904        5.14194115322235
O           -6.01514389321278       -2.93743591896022        6.94765316328794
C           -7.21292732384718       -3.62681918543340        7.15115816329978
C           -4.95459780685163        2.65960679932188        5.86868674392943
C           -3.68284113682406        2.59129188358641        2.05479246020704
H           -7.43119628931628       -4.22607794725959        6.20622607140901
H           -8.06548455146707       -2.91765848248592        7.29781126410398
H           -7.07314693247270       -4.33087306029711        7.91223421050944
H            6.57332189837178       -1.29353136199234        6.78341268688262
H            5.74663761932316       -2.84282155125561        6.88089468184451
H            5.69426191474290       -1.72781984964892        8.29460302186842
H           -4.10481209541493        3.44288266176275        2.60483747673152
H           -4.49244774344916        1.87419893016926        1.82433103764650
H           -3.18901540870812        2.85154642679373        1.06781919454921
H           -5.55414326821421        2.76698137191684        4.93950725322359
H           -4.78658370641210        3.62090640967288        6.25983200635257
H           -5.43485580473958        1.97242995129449        6.65265772412460
H            0.89164886030839        7.38838561720231        1.13776105146914
H           -0.62894889903848        8.04195665205089        1.64837664327952
H           -0.59282546386754        7.45699159724320        0.03719083132488
116
 energy: -22.508781337633 gnorm: 0.565955503715 xtb: 6.6.1 (8d0f1dd)
C           -2.96718133533008       -0.07396709806817       -1.63960723445849
C           -2.07442712468654       -0.84355343524518       -0.78681420052375
C           -1.25579571681635       -0.32993368521056        0.18068418419560
C           -1.21638645538567        1.10443571765739        0.36373534522967
C           -1.88324086385334        1.87829806807400       -0.63621709415680
C           -2.71473228619823        1.33847309478602       -1.65020771700101
C           -0.63816854073911       -1.08349646505620        1.23392601057764
C            0.54908042618204       -0.47971693622121        1.52127272979133
C            0.86227057590475        0.85344335308621        1.31896338070253
N           -0.04357143170426        1.59686281635244        0.73778223954710
C           -1.06446694239311       -2.26252410323548        1.71024557463027
C           -0.03588859152457       -2.84374553720327        2.68250933106318
N            1.15761061887730       -2.43860045552842        2.94356889254265
C            1.42839106608229       -1.24930663253662        2.30529959887912
C            2.70018034138800       -0.71438078188398        2.71403298825942
C            3.12701777693010        0.46615865281473        2.20024887472735
C            2.21951421885659        1.33854899021551        1.64356292063559
C           -2.37289101307496       -2.72317001552155        1.74473724313940
C           -2.76824095988677       -3.59539705682231        2.72694182737433
C           -1.85795411458918       -4.07301072230288        3.61576607742601
C           -0.50750421673211       -3.71945424876580        3.66585755740937
O           -3.51229839271850       -2.29787611239978        1.08577670254762
O           -1.93816717155264       -2.26826268777182       -0.87667598501600
C           -3.80828739526849        2.12644707369849       -2.08481666811143
C           -2.29285323913287       -4.83379876516014        4.84060660122512
H           -1.68111803803261        2.97108520090593       -0.46478629974343
H           -3.46920905994322       -0.64139278023622       -2.31981581044495
H            2.53986041312773        2.35000350447266        1.41887284013717
H            3.28604817685262       -1.11796169866375        3.42826070012318
H            0.09505461054222       -3.91017879165825        4.62190530851575
H           -3.68590278627092       -4.10405271342660        2.26207772029714
O           -3.64511256845648        3.25517510627251       -2.53589876480202
O           -5.01040189877959        1.84696693720085       -1.46366673126636
C           -6.11663222514720        2.60396334018860       -1.88037393324003
C            4.38131046094413        1.04708109333783        2.87593018576805
O            5.06819713393494        0.26681580046501        3.51624586207678
O            4.72354725461562        2.47913212681767        2.93111687609869
C            5.60267000501291        2.56678030205935        4.02860474170588
O           -3.41183104156390       -4.64470212051113        5.31393351688404
O           -1.31079289599972       -5.49163659734801        5.56519853958850
C           -1.79087694630202       -5.88625262415989        6.85129146723265
C           -4.44222379016946       -1.26472366384063        1.65959679003279
C           -2.27688456852397       -2.90375886182672       -2.23588892176451
H           -1.73865597815767       -5.36604411396114        7.93022928874342
H           -0.86653121737884       -6.60266916314309        6.80685893251081
H           -2.85739200161099       -6.26884210163649        6.73528290556251
H            5.20337795158227        1.80364475080309        4.66213155163917
H            5.61072268323853        3.67604408587525        4.02865642811587
H            6.66330466809793        2.56702423249816        3.93934736878508
H           -1.84275128234309       -2.04774638362973       -2.75884772749547
H           -3.30153947118812       -3.04971034203736       -2.36965837935679
H           -1.67286810768615       -3.70703590066665       -2.64212530584006
H           -5.34915479230917       -1.75473414750118        1.96086147727841
H           -4.83529973700674       -0.55069903286209        0.99579305699573
H           -3.91304409946021       -0.66332763911205        2.32864230955088
H           -5.73744896797746        3.71125349029687       -2.20774335980719
H           -6.83597649748544        2.71047496046531       -0.92745816290509
H           -6.57863860758891        1.98439099937768       -2.70507474334525
C           -1.53106744341847        4.45553759282525        3.82480594740272
C           -1.72806607591778        3.09786766279323        4.13695812692751
C           -0.76145460364367        2.28066433165024        4.75119940475040
C            0.46613541115761        2.82258295804729        5.00587730175384
C            0.87555765773663        4.13570398274064        4.63704829613165
C           -0.16154388202216        4.94025056168049        4.16637537750220
C           -1.07092257156676        1.08697050380791        5.41365989306462
C           -0.00158308450872        0.21546612721466        5.74776886070481
C            1.23487089288754        0.79417163433787        5.86100640348544
N            1.31462515509609        2.10962714220774        5.79685515338499
C           -2.49750805188407        0.51337830880854        5.35904814913590
C           -2.64779924114098       -0.86399536930806        5.68336171803998
N           -1.52852398727709       -1.70117709070286        6.00376597666580
C           -0.32223003842898       -1.07485921102366        6.00415187495098
C            0.80597518247813       -1.81554486216383        6.38280905906803
C            1.99293056792949       -1.26522506251340        6.90402971881740
C            2.32084035871888        0.04198239906734        6.47004045279234
C           -3.66581221832247        1.35116271923986        5.43784177996057
C           -4.90842935592853        0.76417338689943        5.20073709454276
C           -5.12929893580391       -0.57493190893743        5.14555769273222
C           -3.95853479947088       -1.32463218748473        5.46701419231686
O           -3.59265071570965        2.60882569725959        5.88630221799055
O           -2.71350695980019        2.51228724652948        3.45441778780945
C           -0.00009265404145        6.35610963925535        3.78302048330348
C           -6.41685685578366       -1.21784829485090        5.07772282181710
H            1.75270725510617        4.68491636988063        5.07309206891113
H           -2.20151358532892        5.07289191748756        3.16351190366622
H            3.28532765136965        0.28016963906611        6.25533207052652
H            0.72467202904407       -2.73614193122767        6.82402934520282
H           -4.22570911076263       -2.23123743442164        6.02695716840186
H           -5.83315629897201        1.42114307532159        5.12513895179554
O            1.02894708999887        6.97948939177418        3.91795290351845
O           -1.03741963584368        6.96824982433629        3.09359799802556
C           -0.79392185148922        8.11700105697595        2.36363418149488
C            3.19989576553869       -2.03067660649424        7.15482798915651
O            3.07037343232140       -3.14256225128819        6.71910119360868
O            4.37084246761454       -1.29165891402272        7.52849607485328
C            5.52722737722729       -1.82810521442732        7.12071853461941
O           -7.15745180422537       -0.81481003687401        4.23601656352343
O           -6.70252172056826       -2.15703159503181        6.04971128939340
C           -7.36100099157555       -3.18950193013914        5.36042464063104
C           -4.80480071557589        3.43632947974079        5.93712116280808
C           -3.67871718598652        3.22741902314828        2.77348557973694
H           -6.98960483980092       -4.01933635369611        4.65863908908093
H           -8.03257433794597       -2.35627565880206        4.74343415858452
H           -7.94799643378147       -3.70459213922103        6.08076884270828
H            6.50583134350281       -1.32816709666624        7.34970591913480
H            5.24773211932534       -1.90103414700950        6.11607052230650
H            5.56252500499944       -2.98765104928785        7.26623079590131
H           -4.72627271400258        2.77236844551319        2.78330400002441
H           -3.44021759526242        3.57312325328898        1.74557453138796
H           -4.20503456864845        4.08261672688149        3.41894230666609
H           -4.59023987047774        4.37233006079779        6.69499541208134
H           -5.49822957968429        2.73762196472588        6.56092983959496
H           -5.54888520393359        3.52983047835739        5.09752715243664
H           -1.01895646138817        7.99322476770805        1.30029435630175
H            0.31933838339631        7.95330375722127        2.44208046429888
H           -1.33697705139785        8.94731465657028        2.74981080081951
116
 energy: -22.602940144388 gnorm: 0.544153255835 xtb: 6.6.1 (8d0f1dd)
C           -3.39524105912621       -0.11709577946624       -1.03784217751074
C           -2.44614055408872       -0.96722489894880       -0.50893454568225
C           -1.27596440306737       -0.38345482421104        0.17736964820630
C           -0.76377623090621        0.83138458168970       -0.27619187336087
C           -1.63317209920003        1.67822134700772       -1.04862713851086
C           -2.87392409910071        1.15398259331689       -1.44189468404650
C           -0.52542602972500       -0.92693179887873        1.23682116038846
C            0.86298467893165       -0.40965373546965        1.41353784780429
C            1.37040636801263        0.63275629663255        0.65325442200355
N            0.48096685852373        1.30589238482413       -0.06522638817076
C           -0.94110468412925       -1.92186083915429        2.11166037925382
C           -0.11496965993137       -2.53592995992410        3.10041395108115
N            1.09944149342601       -1.99721457187822        3.21268072900524
C            1.49468303277891       -0.93087498155266        2.58552927225058
C            2.74187900597860       -0.42530057634385        2.93708112973031
C            3.26705470480287        0.70142346210100        2.18416034964903
C            2.50751059815526        1.17745636649862        1.09675732892996
C           -2.25301334179456       -2.29516978930633        2.26647400667799
C           -2.60019728194734       -3.50307544149838        2.98999096045273
C           -1.87790310113392       -4.02044110148300        4.09623485185114
C           -0.58362598564090       -3.40431707026580        4.16984540367333
O           -3.43945140983979       -1.40627234535996        2.10668274418170
O           -2.05955888729789       -2.30058988607750       -0.68241549059065
C           -3.93185744818034        1.77329119735814       -2.40090334811067
C           -2.40935371448144       -5.39027401217855        4.57123284253012
H           -1.29935556422123        2.61142716392718       -1.40476112727994
H           -4.25401204833646       -0.61316065950125       -1.28397767363141
H            3.04933519326691        1.90394292300743        0.50715050539547
H            3.06585370425408       -0.64211997830624        3.82725177108426
H            0.14187242873860       -3.53568897985410        4.97517086101512
H           -3.61757301221674       -3.87025152678522        2.89486216314402
O           -5.03025357215313        2.12926163886290       -2.00912313738049
O           -3.61438798361244        1.90744666338892       -3.75123918372991
C           -4.73445441992073        2.25627762821367       -4.35361099347953
C            4.30478529728009        1.47980062183911        2.78727267290471
O            4.38414788490109        1.60263793103763        3.99018233402372
O            4.91236034520541        2.21589027331009        1.89412681052519
C            6.09466356898468        2.80177813070458        2.38915391857132
O           -3.17479410997121       -6.22141395821503        3.83435973549329
O           -1.89988748291947       -5.89158335104120        5.79068061739118
C           -1.86636061187043       -7.33791882126046        5.83616910786462
C           -3.64410917868155       -0.55939900758037        3.15868725985409
C           -3.19881518628085       -3.13615920484994       -1.26447220865874
H           -1.71723646784906       -7.42209906644917        6.93628685172397
H           -1.18028354301280       -7.91411462192354        5.17169913049629
H           -2.85497606643062       -7.51189707081178        5.54051247806759
H            6.31863397696844        2.49234476745139        3.45288953186727
H            5.74403971361858        3.81579280178628        2.55459333469881
H            6.86551164730441        3.01903500708638        1.50533848535831
H           -3.76469899771994       -3.02518624880337       -0.31285634408791
H           -2.89832857473957       -4.22731889125700       -1.31548154853331
H           -3.43644716176829       -2.57836305031840       -2.18641297005636
H           -3.72191697159016       -1.11638982478972        4.02715036587060
H           -4.65475794072754       -0.33589544830720        3.16916512345321
H           -2.87256103409139        0.19059588084265        3.20942174057188
H           -4.30240658823972        3.15343356972881       -4.92250559721323
H           -5.47613606056687        2.68448808731182       -3.63906375424893
H           -5.15413916927158        1.46969602336857       -5.05014813855587
C           -1.62312506216959        4.31909882743667        3.79414328872612
C           -2.01392304384307        2.93154099730958        3.98574784097733
C           -1.02544233807897        2.38716438704582        4.94255976488749
C            0.34972869549672        2.78652733159088        4.79969355427393
C            0.68617721730659        4.14017811891902        4.45282541703276
C           -0.40529071208573        4.96924554663398        4.06288697486309
C           -1.34602801840043        1.19254322149398        5.59365181064337
C           -0.30561546639938        0.49146666025561        6.17718685021725
C            1.05663723913355        0.93454008751071        5.94352666696159
N            1.37833120052097        2.11224086775315        5.24504378829977
C           -2.61759544043672        0.80985741301278        5.96873308519081
C           -2.73681973424412       -0.52863925466583        6.45983441792409
N           -1.87554178547153       -0.96525307742738        7.33120568681888
C           -0.58568119907473       -0.60609292801746        7.09746627844516
C            0.57494488529264       -1.37687928198021        7.32635441928342
C            1.82279185251622       -1.00143823377443        6.90229544056957
C            2.17602256257700        0.21978286793354        6.36530553055415
C           -3.95130793519798        1.53639270732718        5.66779758995470
C           -5.04359386728280        0.77855394901301        5.32725116330278
C           -5.09259257816525       -0.52489787951143        5.78192586994533
C           -4.04255101542750       -1.24523087164973        6.35364956841212
O           -4.15699647411782        2.97744096554020        5.71525672325873
O           -3.06616011168765        2.27184188950350        3.51078976688012
C           -0.13370135668019        6.46755212679025        3.86136463576492
C           -6.41791196496315       -1.08639064064635        5.47760399066911
H            1.59739146843112        4.63598514897909        4.71550777859811
H           -2.29610806619641        5.07034867642131        3.44293150883592
H            3.16880118029976        0.46231512629491        6.19839523911340
H            0.45117418180003       -2.29162511452343        7.78834275447233
H           -4.36095539187623       -2.25291324789349        6.49807733640936
H           -5.97505719126550        1.28853394162871        5.19411646757319
O            0.98063727703625        6.92905612400727        4.03239005128855
O           -1.20853318554107        7.22845960118752        3.60225121779446
C           -0.70595381619237        8.58543649304187        3.57893248306660
C            2.87577552452716       -2.07473985618385        7.02348168505199
O            2.71330924311312       -3.25829287729814        7.34603516157345
O            4.10269487977232       -1.67730986524842        6.61907149394592
C            5.12619800360873       -2.66332890766724        6.74900457415286
O           -7.38880731176446       -0.44185622678349        5.55812793562115
O           -6.49365481588131       -2.42899259658443        4.78401299286334
C           -7.70894487050670       -3.01515350874030        4.41412129229615
C           -3.17468182097983        3.58125878288953        6.41478048286388
C           -3.67649027370015        2.68529095271724        2.22157271643605
H           -7.44395856557765       -3.80541058548239        3.74148296478341
H           -8.60070867340503       -2.34164338434053        4.44251531707640
H           -7.92333336285942       -3.56806443364110        5.38685882205244
H            5.94188252707183       -2.43034842927026        6.07053560368128
H            4.82693115561996       -3.71154342208131        6.34168558165857
H            5.49952918238894       -2.80647573423055        7.76096582481261
H           -3.29357396921216        1.89831565216837        1.58943922520787
H           -3.19525938924674        3.57420678773412        1.66765823701500
H           -4.69727000582092        2.93239255694638        2.60322428069166
H           -3.67691439762936        4.28652660053705        7.26529251509033
H           -2.56701194825013        4.27258467814439        5.78124148813738
H           -2.44630194869279        3.09678850624828        7.03742853202984
H           -0.41972800344885        8.51031929657783        2.48404969665917
H            0.19597311323230        8.86174073715479        4.03216338086242
H           -1.49298461857027        9.42781161894451        3.86753073435925
116
 energy: -22.522270350629 gnorm: 0.605847311641 xtb: 6.6.1 (8d0f1dd)
C           -2.46556465724542       -0.42315367824415       -1.89364354887568
C           -1.98635214499811       -1.08699956279723       -0.70527073675301
C           -1.68220201537157       -0.50276463866140        0.57619166036147
C           -1.52113954966545        0.96813063054606        0.47004299449911
C           -2.17087120118368        1.61553594076038       -0.61852608045044
C           -2.35177546939059        1.03427842001813       -1.84795007658503
C           -0.94496184231373       -1.00086764869468        1.69289672242400
C            0.21480853213253       -0.29831416122256        2.16777636085956
C            0.42423466916071        0.95288327971695        1.50417549788350
N           -0.53830913279540        1.65052674232698        1.04790259586614
C           -1.29913227412999       -2.18458815309914        2.42869124984281
C           -0.21373843183913       -2.80510967154525        3.20208499441221
N            1.01845141616895       -2.25597025624791        3.37963056784291
C            1.23073893980781       -0.99809743179709        2.86010367051612
C            2.43291765386048       -0.21769799627525        3.20333714186369
C            2.77858636353620        0.93674311876700        2.51528595426383
C            1.77351986779663        1.50154000904400        1.66415249062821
C           -2.67270136609461       -2.88692735274713        2.59842509391659
C           -2.58879730344310       -4.27644768241083        3.04041399284622
C           -1.46903978658831       -4.76467355117516        3.65104962392732
C           -0.38726188091493       -4.07260377754000        3.71087120593262
O           -3.82292797489833       -2.43772595946062        2.11155890055518
O           -2.09841000206359       -2.54139121694318       -0.66604746170966
C           -2.23637232408479        1.79635457480004       -3.08709443439621
C           -1.63434410355300       -6.12282112969248        4.03327236691334
H           -2.17618513458881        2.69943205504587       -0.72015209571505
H           -2.79611766285445       -1.00744472093826       -2.69822570415694
H            1.76936560171818        2.56742037206617        1.52346915763761
H            3.01436598131679       -0.89493299179308        3.66372731931662
H            0.47342671485448       -4.45422367630896        4.10697159905434
H           -3.56029930623121       -4.78229244291353        3.36650930549902
O           -1.56975449802506        1.28955461420002       -4.01231501140589