110
 energy: -291.975227997374 gnorm: 0.352474318818 xtb: 6.7.1 (edcfbbe)
C            0.03970000000000        1.31700000000000       -3.08950000000000
C           -0.65370000000000        0.63830000000000       -2.09020000000000
C           -0.00620000000000        0.45590000000000       -0.82410000000000
C            1.38900000000000        0.71690000000000       -0.71980000000000
C            2.02290000000000        1.38950000000000       -1.77800000000000
C            1.35520000000000        1.70410000000000       -2.92820000000000
C           -0.66380000000000       -0.11300000000000        0.30960000000000
C            0.16700000000000       -0.69660000000000        1.27520000000000
C            1.56880000000000       -0.45850000000000        1.25050000000000
N            2.15600000000000        0.30270000000000        0.31140000000000
C           -2.06930000000000       -0.11750000000000        0.59570000000000
C           -2.52610000000000       -1.04600000000000        1.57140000000000
N           -1.71440000000000       -1.77460000000000        2.36430000000000
C           -0.40280000000000       -1.50330000000000        2.29580000000000
C            0.44030000000000       -2.02150000000000        3.28250000000000
C            1.78600000000000       -1.75540000000000        3.28730000000000
C            2.34830000000000       -0.99970000000000        2.28450000000000
C           -2.98400000000000        0.88890000000000        0.13040000000000
C           -4.32130000000000        0.80820000000000        0.52340000000000
C           -4.77080000000000       -0.17290000000000        1.38540000000000
C           -3.89550000000000       -1.10200000000000        1.86520000000000
O           -2.50430000000000        1.96810000000000       -0.61050000000000
O           -1.89690000000000        0.05870000000000       -2.28450000000000
H            3.06660000000000        1.64810000000000       -1.68280000000000
H           -0.43550000000000        1.53490000000000       -4.03030000000000
H            3.41140000000000       -0.81360000000000        2.29640000000000
H            0.01100000000000       -2.60250000000000        4.08370000000000
H           -4.24030000000000       -1.86420000000000        2.54450000000000
H           -5.02240000000000        1.56340000000000        0.20950000000000
C           -3.11040000000000        3.20840000000000       -0.33450000000000
C           -2.45030000000000        0.20730000000000       -3.56810000000000
S            2.24430000000000        2.63250000000000       -4.32270000000000
F            1.70140000000000        3.97060000000000       -3.67610000000000
F            3.51720000000000        2.69540000000000       -3.38960000000000
F            2.99140000000000        3.40650000000000       -5.48230000000000
F            0.92400000000000        2.51680000000000       -5.17960000000000
F            2.71070000000000        1.21970000000000       -4.86110000000000
S           -6.56320000000000       -0.21080000000000        2.00790000000000
F           -6.03130000000000        0.56190000000000        3.27350000000000
F           -6.80550000000000        1.14170000000000        1.23780000000000
F           -8.04470000000000       -0.23610000000000        2.54930000000000
F           -6.92900000000000       -1.01610000000000        0.70190000000000
F           -6.21680000000000       -1.55230000000000        2.75410000000000
S            2.83220000000000       -2.41410000000000        4.72250000000000
F            4.11530000000000       -2.08200000000000        3.86500000000000
F            2.75220000000000       -3.84400000000000        4.05490000000000
F            3.68150000000000       -2.93850000000000        5.94510000000000
F            2.81160000000000       -0.93680000000000        5.27020000000000
F            1.48550000000000       -2.70130000000000        5.49130000000000
H           -3.40560000000000       -0.32120000000000       -3.57980000000000
H           -1.78430000000000       -0.23880000000000       -4.30940000000000
H           -2.62220000000000        1.26610000000000       -3.77060000000000
H           -2.45720000000000        3.99610000000000       -0.71650000000000
H           -3.19730000000000        3.31420000000000        0.74830000000000
H           -4.08660000000000        3.26820000000000       -0.81850000000000
C           -3.28670000000000        1.22120000000000        4.69320000000000
C           -2.85820000000000        0.20850000000000        5.55260000000000
C           -1.62240000000000        0.38470000000000        6.26520000000000
C           -0.80760000000000        1.50820000000000        5.95410000000000
C           -1.30900000000000        2.48490000000000        5.08070000000000
C           -2.51270000000000        2.33840000000000        4.45700000000000
C           -1.08720000000000       -0.57700000000000        7.18170000000000
C            0.28990000000000       -0.50630000000000        7.43590000000000
C            1.01990000000000        0.65050000000000        7.05390000000000
N            0.46090000000000        1.67060000000000        6.38560000000000
C           -1.78950000000000       -1.62560000000000        7.85960000000000
C           -1.02530000000000       -2.72900000000000        8.33940000000000
N            0.32080000000000       -2.71950000000000        8.43500000000000
C            0.95100000000000       -1.58270000000000        8.09120000000000
C            2.32060000000000       -1.45110000000000        8.36470000000000
C            3.01210000000000       -0.30300000000000        8.05390000000000
C            2.37310000000000        0.72990000000000        7.40990000000000
C           -3.17840000000000       -1.55060000000000        8.21870000000000
C           -3.79010000000000       -2.70360000000000        8.70590000000000
C           -3.07150000000000       -3.85180000000000        8.97390000000000
C           -1.71220000000000       -3.85410000000000        8.82800000000000
O           -3.83070000000000       -0.32670000000000        8.14650000000000
O           -3.53790000000000       -0.99890000000000        5.65590000000000
H           -0.71010000000000        3.35880000000000        4.87500000000000
H           -4.20750000000000        1.12070000000000        4.13900000000000
H            2.93190000000000        1.61500000000000        7.14590000000000
H            2.84280000000000       -2.27300000000000        8.83180000000000
H           -1.14890000000000       -4.73150000000000        9.10780000000000
H           -4.85040000000000       -2.71620000000000        8.89080000000000
C           -5.00830000000000       -0.22100000000000        8.91190000000000
C           -4.90990000000000       -0.95820000000000        5.34310000000000
S           -3.05700000000000        3.65660000000000        3.21290000000000
F           -3.96390000000000        2.56530000000000        2.54640000000000
F           -4.21520000000000        4.04230000000000        4.20880000000000
F           -3.49050000000000        4.70920000000000        2.13080000000000
F           -1.86510000000000        3.15990000000000        2.30940000000000
F           -2.08650000000000        4.66780000000000        3.92990000000000
S           -3.96960000000000       -5.40400000000000        9.59080000000000
F           -3.72170000000000       -4.86810000000000       11.05800000000000
F           -5.32010000000000       -4.59000000000000        9.52860000000000
F           -4.71350000000000       -6.70100000000000       10.10440000000000
F           -4.15090000000000       -5.80990000000000        8.07270000000000
F           -2.56830000000000       -6.13120000000000        9.61950000000000
S            4.84330000000000       -0.12910000000000        8.51700000000000
F            4.79660000000000        1.34390000000000        7.94250000000000
F            5.23710000000000       -0.66810000000000        7.07810000000000
F            6.36410000000000        0.02660000000000        8.93320000000000
F            4.34440000000000        0.40600000000000        9.92340000000000
F            4.78980000000000       -1.61100000000000        9.06700000000000
H           -5.37580000000000       -1.86850000000000        5.72510000000000
H           -5.03090000000000       -0.92970000000000        4.26310000000000
H           -5.37180000000000       -0.08270000000000        5.80370000000000
H           -5.30310000000000        0.83000000000000        8.92640000000000
H           -4.81200000000000       -0.55300000000000        9.93330000000000
H           -5.80380000000000       -0.81140000000000        8.45540000000000
110
 energy: -292.066585816895 gnorm: 0.241032950832 xtb: 6.7.1 (edcfbbe)
C            0.03313953928115        1.31113858244369       -3.08959622350166
C           -0.65435335174849        0.63833172463576       -2.08898211843595
C           -0.01539998733120        0.44798780768691       -0.83166298021858
C            1.38377473860221        0.71172675858351       -0.72125198938464
C            2.02955102728177        1.39202106231595       -1.77466533555917
C            1.35310754490656        1.70334776382790       -2.91663977498189
C           -0.66780252566627       -0.11014864070317        0.30542573307544
C            0.16252797395693       -0.69296111631255        1.27346595543605
C            1.56697497871392       -0.45707722872296        1.24663738502403
N            2.14066641119958        0.30185864054272        0.30922451876352
C           -2.06891501475855       -0.10340724801444        0.59352654105344
C           -2.52346133134758       -1.03542514156516        1.57187418845371
N           -1.71333667595857       -1.76472563235186        2.35277742729395
C           -0.40804195411923       -1.49872574467873        2.29646721904465
C            0.43542233271103       -2.02696350875126        3.28739646974950
C            1.78294684993067       -1.75697189473766        3.28110556079369
C            2.35527007429678       -0.99821187860648        2.28405001470112
C           -2.98161259207069        0.88704614620993        0.12947204936253
C           -4.31565081277476        0.81317649083289        0.51888930090685
C           -4.76424649289685       -0.18145205042015        1.37558185220967
C           -3.89688403004619       -1.10908333941683        1.86745843740920
O           -2.50226966407642        1.94539709146468       -0.60300720996260
O           -1.87934161078673        0.06647035252275       -2.28068930499741
H            3.07045130844280        1.63832129608614       -1.67045753815260
H           -0.44317309286367        1.52797006601061       -4.02701260732509
H            3.41349302779153       -0.80465618744411        2.28997879888158
H           -0.00124444349319       -2.61112204634244        4.07651316748959
H           -4.22366640896389       -1.87202982060990        2.54847595394025
H           -5.01316901235543        1.56646578154580        0.20063213805270
C           -3.11301824132957        3.19657894332472       -0.35102720557210
C           -2.44688797290054        0.20862377601983       -3.56387130007431
S            2.23422354750318        2.62146536678971       -4.30382492526858
F            1.69968197629400        3.99761119207977       -3.67863927950411
F            3.54815695436622        2.71085733977031       -3.39616119978974
F            2.98173664593080        3.39765126975413       -5.46962748001392
F            0.91745745717941        2.52642448616108       -5.20897597932568
F            2.72383600995620        1.20716532377211       -4.87976649403474
S           -6.54633469013520       -0.20683274908754        1.98554498988225
F           -6.05548349957927        0.58473865143246        3.28610245776163
F           -6.83179999229416        1.16728150984404        1.22612667770569
F           -8.03389424734065       -0.23119900003701        2.53037701758240
F           -6.95388435944442       -1.03024767705564        0.67734296437640
F           -6.25161909991954       -1.57315557965303        2.75992263407465
S            2.82314435473807       -2.40592933568894        4.70432743531327
F            4.14803288038161       -2.08918611843672        3.86863574100505
F            2.75821251021814       -3.87019350403550        4.05912510100887
F            3.67554349719548       -2.93206070310010        5.93077593617581
F            2.82398455746493       -0.91774925930274        5.28635295763270
F            1.48262949645329       -2.70783059513378        5.52320748813432
H           -3.39946143920885       -0.32267954098399       -3.56456106390774
H           -1.78989624309703       -0.23455008190009       -4.31690713524080
H           -2.62571201207751        1.26428762770394       -3.78006036695243
H           -2.45314583449630        3.97836041383111       -0.72817872333127
H           -3.21409240834757        3.32026634278185        0.71661169779168
H           -4.08951608367739        3.27299859388935       -0.82982807208542
C           -3.28508533030018        1.21233820211174        4.69424293464582
C           -2.85345381130433        0.20638227339237        5.55212519273195
C           -1.62644472285821        0.37382226570463        6.25871088141739
C           -0.80559197507164        1.50001312852922        5.95004337748940
C           -1.30116882749056        2.49180950703303        5.08216628648648
C           -2.50722108677904        2.33702398545740        4.47320367157319
C           -1.09237063712967       -0.57841060582547        7.18176082810357
C            0.28493461786998       -0.50647591897099        7.43651026165028
C            1.01681959046494        0.65011677723370        7.04992247819245
N            0.45193749182093        1.66135006959206        6.39038762422966
C           -1.79789500930206       -1.61541385450024        7.86543893863388
C           -1.02869150308499       -2.72172421694827        8.34025028324340
N            0.31017941008090       -2.70835493274273        8.42838214612755
C            0.94587815921612       -1.58201890621575        8.09602247914894
C            2.32265630232130       -1.45699336195804        8.36900482161485
C            3.00500509709128       -0.30344215476424        8.05191796185885
C            2.37553741451313        0.73760384996114        7.40956168011289
C           -3.17638152889448       -1.55047722195306        8.21732923245028
C           -3.79107481198858       -2.69442357672992        8.70666942633842
C           -3.06383613742437       -3.84754936865955        8.96596965229946
C           -1.70742296812009       -3.85887152797237        8.82763766724629
O           -3.81711962771833       -0.34058525321828        8.15212271855648
O           -3.52384900041830       -0.97864989255054        5.67424887889998
H           -0.69405888602855        3.35485519731555        4.87752367959384
H           -4.20573407061669        1.11659552314592        4.15094766883561
H            2.92249929703144        1.62290125045113        7.14061260722714
H            2.83363915216000       -2.28142352688349        8.83362715554592
H           -1.13463156050543       -4.72333302264273        9.11038972414885
H           -4.84896342473876       -2.70316205731897        8.89280839843986
C           -5.00405545879852       -0.22494967741832        8.90917335084446
C           -4.89927598277827       -0.95810020658892        5.35325188827177
S           -3.05111261231238        3.63993809098301        3.24503951780851
F           -3.98308488102678        2.55939903500123        2.53419298307395
F           -4.24199705040873        4.05808449572577        4.22277087901926
F           -3.49016972071293        4.70739308868678        2.16316990706051
F           -1.84630370848120        3.16328968916835        2.30214667832772
F           -2.08008382426793        4.70372859249830        3.93248376937808
S           -3.95676626519545       -5.38518728253473        9.58201823793820
F           -3.72612385615581       -4.87249754346427       11.08367350159275
F           -5.35005448299258       -4.59825784544084        9.53564630386627
F           -4.70606432065202       -6.68527780881662       10.09869320314916
F           -4.16214302479757       -5.82786226525592        8.05529819157955
F           -2.56120191271703       -6.16442613115328        9.62803611686591
S            4.82164312538004       -0.13354303773667        8.50940388484084
F            4.82084116222180        1.36554581645862        7.94381074170075
F            5.25059862365852       -0.67342395664946        7.06137604402213
F            6.34801038729780        0.02327988945849        8.92743994750322
F            4.35332859605841        0.41427441362806        9.94533548377015
F            4.81321928260602       -1.62933317125216        9.08042753760443
H           -5.35634668498037       -1.87102738990743        5.73525213246051
H           -5.02428801718871       -0.93555263036831        4.27939913897347
H           -5.37861567815877       -0.08617874965792        5.80210990161427
H           -5.28983120965286        0.82792620831795        8.91694085562430
H           -4.82277240839902       -0.55436137630610        9.93535470678413
H           -5.81019226003193       -0.80907765621965        8.46000493701732
110
 energy: -292.139561878364 gnorm: 0.080913923113 xtb: 6.7.1 (edcfbbe)
C            0.02792809942843        1.30787341087813       -3.09355136556752
C           -0.65672143348213        0.63524453772686       -2.09163295230236
C           -0.02420931855294        0.44085260983093       -0.83885347531991
C            1.38040667651764        0.70799567785391       -0.72170811370114
C            2.04011731267072        1.39520458349258       -1.77367079738095
C            1.34893601437465        1.69970061082315       -2.90054212075617
C           -0.66994384350485       -0.10864809158797        0.30320994395386
C            0.16005901032134       -0.69078207707580        1.27466051546328
C            1.56707722906336       -0.45566234579411        1.24352849870413
N            2.12451013834219        0.29944303622127        0.30574907587094
C           -2.06951751168841       -0.09143323082716        0.58998842909443
C           -2.52233090982154       -1.02862519213074        1.57186187678571
N           -1.71297434100857       -1.75228365218202        2.34375769691425
C           -0.41253841465285       -1.49615007978984        2.29921001150079
C            0.43217831840090       -2.03431460164098        3.29518260335954
C            1.77592635200496       -1.75475594860984        3.26918006250302
C            2.36475972437263       -0.99612613779368        2.28570528654876
C           -2.97936810625801        0.89061288261781        0.12725400403826
C           -4.31450906380910        0.81857714919605        0.51344177297277
C           -4.75049439015006       -0.18862625337940        1.36455625245729
C           -3.90219083662389       -1.11687052687846        1.87365470843082
O           -2.50353533972797        1.92544685044079       -0.58754555093671
O           -1.85971184962033        0.07658329383967       -2.28038993660862
H            3.07785670759585        1.63178259557987       -1.65886226011566
H           -0.44472388616893        1.52618861775726       -4.02913467975527
H            3.41849034781578       -0.79687422347348        2.28504428111869
H           -0.01163744151325       -2.62083313194986        4.07346514857260
H           -4.21158837386565       -1.88214253796551        2.55494586589755
H           -5.01115666141478        1.56896731548582        0.19586829824504
C           -3.11714701160054        3.19085526949390       -0.36313051411941
C           -2.44654106122952        0.20938490203081       -3.56211572805509
S            2.21511708560190        2.60090922782975       -4.26948665057697
F            1.69474924557393        4.03700528908647       -3.67849177877156
F            3.59176235626493        2.73004409814389       -3.40049148559934
F            2.96676269430908        3.38312953693107       -5.44909263473365
F            0.90330445939331        2.53865983683527       -5.25004856046606
F            2.74084524994599        1.18457922217784       -4.90455645238346
S           -6.50657627447467       -0.20263020461926        1.95613436416765
F           -6.07738878365970        0.61837929996736        3.31146032566976
F           -6.86449660545016        1.20324713819295        1.21289462069621
F           -8.00848497265265       -0.22784827836968        2.51300251495462
F           -6.98478352571807       -1.05153663541231        0.64487822717759
F           -6.28676606332654       -1.60801157011578        2.77363238977937
S            2.80438402184646       -2.39248183575717        4.66843970847811
F            4.19483121585466       -2.09749891052347        3.87024636339491
F            2.76517424224583       -3.91112563479649        4.06041261755987
F            3.66233337196856       -2.92152795776029        5.90814554664461
F            2.83675108697893       -0.88692217616790        5.30721009688530
F            1.47137551131276       -2.71754471191625        5.56589492097026
H           -3.39494740476315       -0.32549448094472       -3.54773972169096
H           -1.79624340386809       -0.23172471605488       -4.32357473553915
H           -2.63021468072861        1.26257013343597       -3.78848940870849
H           -2.44711956203027        3.96029485861171       -0.74291297267674
H           -3.23086287225906        3.33142969681628        0.69757163328795
H           -4.09033184277682        3.27488818664871       -0.84600670579505
C           -3.28839064178750        1.20620747793648        4.69429883299636
C           -2.85303379766058        0.20165389959266        5.55095620894385
C           -1.62977865040327        0.36361889689945        6.25151902924757
C           -0.80252471252341        1.49375624224101        5.94650654688344
C           -1.29212951704252        2.50133553108722        5.08033015330718
C           -2.50010527678496        2.33043082286344        4.49322070902565
C           -1.09422537655496       -0.57990836261156        7.18217162493384
C            0.28357054129560       -0.50641164814779        7.43803109057585
C            1.01604479599907        0.65122488695815        7.04734416950656
N            0.44327483122460        1.65014037221798        6.39370138016964
C           -1.80647519344126       -1.60648004150510        7.87000739345081
C           -1.03081009329641       -2.71684565960178        8.34044365911342
N            0.29818301349221       -2.69494488243291        8.42398645276144
C            0.94347308805644       -1.58306914192486        8.10139702747283
C            2.32822166272126       -1.46331243353379        8.37624863483824
C            2.99121561417644       -0.30399043496435        8.05094610392936
C            2.38180539021509        0.74678991267031        7.41140567879736
C           -3.17703794969481       -1.54792557179529        8.22104234779440
C           -3.79539965148323       -2.68860093268347        8.70965849808376
C           -3.05308876797819       -3.83934474287448        8.95614995392389
C           -1.70246647169534       -3.86752011886156        8.83009933570024
O           -3.80454622292245       -0.35728069490410        8.16234569701533
O           -3.51191048329592       -0.95352847737477        5.68975795549529
H           -0.67885033895750        3.35569317807535        4.88053141292400
H           -4.20815137969909        1.11717035291074        4.15755668084935
H            2.91763103997623        1.63242223241517        7.13643901034842
H            2.82912882393206       -2.29117963804298        8.83657712477237
H           -1.11976874111818       -4.72014621609593        9.11292499885700
H           -4.85026835380998       -2.69899993292029        8.89762397641210
C           -5.00301409444319       -0.22662037441479        8.90758565953971
C           -4.89272002050922       -0.95922455110993        5.35858933154624
S           -3.03867645930067        3.60741184090503        3.28969046184869
F           -4.01554764195331        2.54630059136531        2.50984198131785
F           -4.28041145486360        4.08029275276723        4.23660408481147
F           -3.48674724781886        4.70093445650891        2.20057025159703
F           -1.81647312653840        3.16049583383219        2.27957307651347
F           -2.06746131941767        4.75195616534341        3.93248416965249
S           -3.93366510330287       -5.35020126644135        9.56610323254958
F           -3.73032638127173       -4.87414103130806       11.12151499710897
F           -5.39406580367959       -4.60526027325072        9.54392328449338
F           -4.69358334621632       -6.66028263475556       10.08979080948729
F           -4.17669251127255       -5.85160126787783        8.02646942103281
F           -2.54663541386589       -6.20854648787648        9.63893588017644
S            4.78207189566040       -0.14118465213123        8.49464911568180
F            4.85140752203424        1.39841747105285        7.94264279238009
F            5.26956088314420       -0.68234938477882        7.03466298780485
F            6.32183001832980        0.01965187700882        8.91956681476246
F            4.35968239054317        0.42617969143995        9.97683625260798
F            4.84349209792099       -1.65749074705282        9.09954354618313
H           -5.33590275501054       -1.87517798898429        5.74516897933924
H           -5.02262247088713       -0.94016898292898        4.28718780210575
H           -5.38568803062017       -0.09103409597322        5.80042764626336
H           -5.27630666923306        0.82815176627363        8.90634716033223
H           -4.83392575094256       -0.55463536365900        9.93730647605070
H           -5.81584707322862       -0.80590294397619        8.46260303614588
110
 energy: -292.154211178438 gnorm: 0.027505109048 xtb: 6.7.1 (edcfbbe)
C            0.03269889760882        1.30917658758677       -3.09726452781572
C           -0.65562402607387        0.63460321811967       -2.09678161933907
C           -0.02510472535154        0.43766925758307       -0.84156744422973
C            1.37947812528640        0.70428054670702       -0.72264787667510
C            2.04730220085210        1.39530232436758       -1.76905499131622
C            1.35097674563820        1.69905021891239       -2.89172352330505
C           -0.67089308665792       -0.10864555799012        0.30351564588341
C            0.15827096605367       -0.68888490462417        1.27831714203413
C            1.56509654576318       -0.45592796361549        1.24396032703994
N            2.11863601274785        0.29650674166370        0.30422480272572
C           -2.07106987688590       -0.08967027743881        0.59106879965564
C           -2.52495167548087       -1.02387986294394        1.57429065113009
N           -1.71608660488615       -1.74322802532312        2.34660357874279
C           -0.41527149070429       -1.49202279866736        2.30366444736102
C            0.42902949368293       -2.03983143638544        3.29647453258101
C            1.77136121295457       -1.75608346926551        3.25968498477820
C            2.36742762528547       -0.99527508262947        2.28419695040224
C           -2.97962177812570        0.89316016290735        0.12492815987813
C           -4.31896127634560        0.81557927701661        0.50361538521560
C           -4.74813780796758       -0.19489711893734        1.35064482331135
C           -3.90665864035645       -1.12191254693385        1.87436284001596
O           -2.50062329410507        1.91599758858817       -0.58852960479748
O           -1.85522696678117        0.08266515640855       -2.28378085281450
H            3.08787069211585        1.62322392738612       -1.64488084077758
H           -0.43695468002035        1.52735484339184       -4.03506264116491
H            3.42130653431602       -0.78743993578304        2.28156985482693
H           -0.01816227054849       -2.63978194002909        4.06533662146964
H           -4.20525130633350       -1.89129929306239        2.55865092295843
H           -5.01402168581339        1.56788721569895        0.18597086255850
C           -3.12629373213463        3.18718358777175       -0.40712230457365
C           -2.45240720188616        0.20896633144726       -3.56294414254051
S            2.21014396062596        2.59640802517109       -4.25806922309559
F            1.69514359035981        4.05922960230164       -3.68319315872059
F            3.61703794364095        2.74676653753586       -3.40988866677487
F            2.96130655041017        3.38019116002055       -5.44679418770947
F            0.89969256731002        2.54730353581961       -5.27203478496726
F            2.75137383010019        1.17804046387024       -4.91739180438708
S           -6.50535256437013       -0.19501859309661        1.92070469789878
F           -6.11079006851826        0.64387079845779        3.30203518220724
F           -6.89095698841708        1.22310450169232        1.18038462690293
F           -8.01763027766430       -0.21693354806253        2.47533979623468
F           -7.01004617089297       -1.05541480371220        0.60695739443891
F           -6.32753938059925       -1.61883421863036        2.76260679773144
S            2.80327001813639       -2.38929302413031        4.65177537806263
F            4.22380172767691       -2.11424049821331        3.86913976171113
F            2.76838481219547       -3.93644261092194        4.07105883422228
F            3.66339390865885       -2.91332755485445        5.90158177554294
F            2.85467144344339       -0.87097728776928        5.30800744334284
F            1.47391731510797       -2.71394077464248        5.59339072426592
H           -3.39539993340010       -0.33291676535722       -3.52202386214604