Optimization of monomers started
      -----------------------------------------------------------      
     |                   =====================                   |     
     |                           x T B                           |     
     |                   =====================                   |     
     |                         S. Grimme                         |     
     |          Mulliken Center for Theoretical Chemistry        |     
     |                    University of Bonn                     |     
      -----------------------------------------------------------      

   * xtb version 6.7.1 (edcfbbe) compiled by 'runner@Mac-1732539442253.local' on 2024-11-25

   xtb is free software: you can redistribute it and/or modify it under
   the terms of the GNU Lesser General Public License as published by
   the Free Software Foundation, either version 3 of the License, or
   (at your option) any later version.
   
   xtb is distributed in the hope that it will be useful,
   but WITHOUT ANY WARRANTY; without even the implied warranty of
   MERCHANTABILITY or FITNESS FOR A PARTICULAR PURPOSE.  See the
   GNU Lesser General Public License for more details.
   
   Cite this work as:
   * C. Bannwarth, E. Caldeweyher, S. Ehlert, A. Hansen, P. Pracht,
     J. Seibert, S. Spicher, S. Grimme, WIREs Comput. Mol. Sci., 2020, 11,
     e01493. DOI: 10.1002/wcms.1493
   
   for GFN2-xTB:
   * C. Bannwarth, S. Ehlert and S. Grimme., J. Chem. Theory Comput., 2019,
     15, 1652-1671. DOI: 10.1021/acs.jctc.8b01176
   for GFN1-xTB:
   * S. Grimme, C. Bannwarth, P. Shushkov, J. Chem. Theory Comput., 2017,
     13, 1989-2009. DOI: 10.1021/acs.jctc.7b00118
   for GFN0-xTB:
   * P. Pracht, E. Caldeweyher, S. Ehlert, S. Grimme, ChemRxiv, 2019, preprint.
     DOI: 10.26434/chemrxiv.8326202.v1
   for GFN-FF:
   * S. Spicher and S. Grimme, Angew. Chem. Int. Ed., 2020, 59, 15665-15673.
     DOI: 10.1002/anie.202004239
   
   for ALPB and GBSA implicit solvation:
   * S. Ehlert, M. Stahn, S. Spicher, S. Grimme, J. Chem. Theory Comput.,
     2021, 17, 4250-4261. DOI: 10.1021/acs.jctc.1c00471
   
   for ddCOSMO and CPCM-X implicit solvation:
   * M. Stahn, S. Ehlert, S. Grimme, J. Phys. Chem. A,
     2023, XX, XXXX-XXXX. DOI: 10.1021/acs.jpca.3c04382
   
   for DFT-D4:
   * E. Caldeweyher, C. Bannwarth and S. Grimme, J. Chem. Phys., 2017,
     147, 034112. DOI: 10.1063/1.4993215
   * E. Caldeweyher, S. Ehlert, A. Hansen, H. Neugebauer, S. Spicher,
     C. Bannwarth and S. Grimme, J. Chem. Phys., 2019, 150, 154122.
     DOI: 10.1063/1.5090222
   * E. Caldeweyher, J.-M. Mewes, S. Ehlert and S. Grimme, Phys. Chem. Chem. Phys.
     2020, 22, 8499-8512. DOI: 10.1039/D0CP00502A
   
   for sTDA-xTB:
   * S. Grimme and C. Bannwarth, J. Chem. Phys., 2016, 145, 054103.
     DOI: 10.1063/1.4959605
   
   in the mass-spec context:
   * V. Asgeirsson, C. Bauer and S. Grimme, Chem. Sci., 2017, 8, 4879.
     DOI: 10.1039/c7sc00601b
   * J. Koopman and S. Grimme, ACS Omega 2019, 4, 12, 15120-15133.
     DOI: 10.1021/acsomega.9b02011
   
   for metadynamics refer to:
   * S. Grimme, J. Chem. Theory Comput., 2019, 155, 2847-2862
     DOI: 10.1021/acs.jctc.9b00143
   
   for SPH calculations refer to:
   * S. Spicher and S. Grimme, J. Chem. Theory Comput., 2021, 17, 1701-1714
     DOI: 10.1021/acs.jctc.0c01306
   
   for ONIOM refer to:
   * C. Plett, A. Katbashev, S. Ehlert, S. Grimme, M. Bursch,
     Phys. Chem. Chem. Phys., 2023, 25, 17860-17868. DOI: 10.1039/D3CP02178E
   
   for DIPRO refer to:
   * J. Kohn, N. Gildemeister, S. Grimme, D. Fazzi, A. Hansen,
     J. Chem. Phys., 2023, just accepted.
   
   for PTB refer to:
   * S. Grimme, M. Mueller, A. Hansen, J. Chem. Phys., 2023, 158, 124111.
     DOI: 10.1063/5.0137838
   
   with help from (in alphabetical order)
   P. Atkinson, C. Bannwarth, F. Bohle, G. Brandenburg, E. Caldeweyher
   M. Checinski, S. Dohm, S. Ehlert, S. Ehrlich, I. Gerasimov, C. Hölzer
   A. Katbashev, J. Kohn, J. Koopman, C. Lavigne, S. Lehtola, F. März, M. Müller,
   F. Musil, H. Neugebauer, J. Pisarek, C. Plett, P. Pracht, F. Pultar,
   J. Seibert, P. Shushkov, S. Spicher, M. Stahn, M. Steiner, T. Strunk,
   J. Stückrath, T. Rose, and J. Unsleber
   
 * started run on 2025/03/04 at 12:41:10.663     
   ID    Z sym.   atoms
    1    6 C      1-9, 11, 12, 14-21, 34, 38, 41-43
    2    7 N      10, 13
    3    8 O      22, 23, 32, 33, 36, 37, 39, 40
    4   16 S      24, 25, 35
    5    1 H      26-31, 44-58

           -------------------------------------------------
          |                Calculation Setup                |
           -------------------------------------------------

          program call               : xtb Base3SO2Me.mol --opt tight --cycles 500 --chrg 0 --uhf 1 --spinpol --tblite
          coordinate file            : Base3SO2Me.mol
          omp threads                :                     8

repulsion energy          1.1532234384035E+00 Eh
dispersion energy         7.2386336977476E-04 Eh
interaction energy        0.0000000000000E+00 Eh
number of electrons       1.9300000000000E+02 e
integral cutoff           1.8403572253217E+01 bohr

------------------------------------------------------------
  cycle        total energy    energy error   density error
------------------------------------------------------------
      1     -109.5325760499  -1.1068652E+02   1.5996610E-01
      2     -110.0403803482  -5.0780430E-01   7.3329340E-02
      3     -110.0473300648  -6.9497166E-03   3.8036771E-02
      4     -110.0891529557  -4.1822891E-02   2.1413194E-02
      5     -110.1204788115  -3.1325856E-02   7.9750072E-03
      6     -110.1240564365  -3.5776250E-03   4.2220911E-03
      7     -110.1240774283  -2.0991803E-05   3.0121594E-03
      8     -110.1250123775  -9.3494923E-04   1.3957156E-03
      9     -110.1251390393  -1.2666178E-04   7.6537744E-04
     10     -110.1251658901  -2.6850750E-05   3.0653422E-04
     11     -110.1251692719  -3.3818747E-06   2.1294306E-04
     12     -110.1251713602  -2.0882621E-06   9.9090649E-05
     13     -110.1251716095  -2.4926238E-07   5.7905600E-05
     14     -110.1251716985  -8.9068365E-08   2.5955240E-05
     15     -110.1251717151  -1.6570809E-08   1.3334990E-05
------------------------------------------------------------

electronic energy        -1.1127911901689E+02 Eh
total energy             -1.1012517171511E+02 Eh

 total:                                   0.662 sec
 - repulsion                              0.000 sec (  0%)
 - dispersion                             0.004 sec (  0%)
 - coulomb                                0.001 sec (  0%)
 - hamiltonian                            0.014 sec (  2%)
 - scc                                    0.643 sec ( 97%)

      ----------------------------------------------------------- 
     |                   =====================                   |
     |                        A N C O P T                        |
     |                   =====================                   |
     |               Approximate Normal Coordinate               |
     |                Rational Function Optimizer                |
      ----------------------------------------------------------- 
      ----------------------------------------------------------- 
     |                   =====================                   |
     |                        A N C O P T                        |
     |                   =====================                   |
     |               Approximate Normal Coordinate               |
     |                Rational Function Optimizer                |
      ----------------------------------------------------------- 

          ...................................................
          :                      SETUP                      :
          :.................................................:
          :   optimization level             tight          :
          :   max. optcycles                   500          :
          :   ANC micro-cycles                  20          :
          :   degrees of freedom               168          :
          :.................................................:
          :   RF solver                   davidson          :
          :   write xtbopt.log                true          :
          :   linear?                        false          :
          :   energy convergence         0.1000000E-05 Eh   :
          :   grad. convergence          0.8000000E-03 Eh/α :
          :   maxmium RF displ.          1.0000000          :
          :   Hlow (freq-cutoff)         0.1000000E-01      :
          :   Hmax (freq-cutoff)         5.0000000          :
          :   S6 in model hess.         20.0000000          :
          ...................................................

generating ANC from exact Hessian ...
Using Lindh-Hessian (1995)
 Shifting diagonal of input Hessian by    9.8479454768016401E-003
 Lowest  eigenvalues of input Hessian
    0.000000    0.000000    0.000000    0.000000    0.000000    0.000000
    0.010000    0.010087    0.010159    0.010214    0.010408    0.010619
    0.010799    0.011324    0.011655    0.012172    0.013096    0.013142
 Highest eigenvalues
    1.998203    2.001135    2.019775    2.051370    2.171033    2.174787


........................................................................
.............................. CYCLE    1 ..............................
........................................................................
------------------------------------------------------------
  cycle        total energy    energy error   density error
------------------------------------------------------------
      1     -110.1251716541  -1.1127912E+02   2.2039032E-05
      2     -110.1251716609  -6.8086194E-09   1.8959460E-05
------------------------------------------------------------

 total:                                   0.144 sec
 * total energy  :  -110.1251717 Eh     change        0.5419682E-07 Eh
   gradient norm :     0.2637200 Eh/α   predicted     0.0000000E+00 (-100.00%)
   displ. norm   :     0.4471255 α      lambda       -0.7225119E-01
   maximum displ.:     0.1662142 α      in ANC's #75, #56, #64, ...

........................................................................
.............................. CYCLE    2 ..............................
........................................................................
------------------------------------------------------------
  cycle        total energy    energy error   density error
------------------------------------------------------------
      1     -110.1769411494  -1.1137310E+02   1.0576182E-02
      2     -110.1781424842  -1.2013348E-03   5.8501566E-03
      3     -110.1781494446  -6.9603814E-06   3.2759848E-03
      4     -110.1782589815  -1.0953691E-04   1.4538838E-03
      5     -110.1784699156  -2.1093413E-04   4.9172403E-04
      6     -110.1784793684  -9.4527674E-06   2.6980562E-04
      7     -110.1784852473  -5.8789340E-06   1.2789729E-04
      8     -110.1784865482  -1.3009006E-06   6.8777507E-05
      9     -110.1784867860  -2.3772954E-07   3.3336819E-05
     10     -110.1784868129  -2.6909817E-08   1.4373248E-05
------------------------------------------------------------

 total:                                   0.441 sec
 * total energy  :  -110.1784868 Eh     change       -0.5331515E-01 Eh
   gradient norm :     0.1605624 Eh/α   predicted    -0.4338756E-01 ( -18.62%)
   displ. norm   :     0.4151677 α      lambda       -0.4004457E-01
   maximum displ.:     0.1381043 α      in ANC's #34, #36, #40, ...

........................................................................
.............................. CYCLE    3 ..............................
........................................................................
------------------------------------------------------------
  cycle        total energy    energy error   density error
------------------------------------------------------------
      1     -110.2002608063  -1.1144511E+02   8.3603068E-03
      2     -110.2018448649  -1.5840586E-03   5.3824604E-03
      3     -110.2020222348  -1.7736990E-04   3.0778777E-03
      4     -110.2018639015   1.5833327E-04   1.3920501E-03
      5     -110.2020909355  -2.2703398E-04   2.8933078E-04
      6     -110.2020951402  -4.2046975E-06   1.6890790E-04
      7     -110.2020960073  -8.6714951E-07   6.2137759E-05
      8     -110.2020961480  -1.4067366E-07   2.7948583E-05
      9     -110.2020961689  -2.0897502E-08   1.7756213E-05
------------------------------------------------------------

 total:                                   0.433 sec
 * total energy  :  -110.2020962 Eh     change       -0.2360936E-01 Eh
   gradient norm :     0.0324263 Eh/α   predicted    -0.2347343E-01 (  -0.58%)
   displ. norm   :     0.3815895 α      lambda       -0.5783068E-02
   maximum displ.:     0.1439325 α      in ANC's #34, #21, #33, ...

........................................................................
.............................. CYCLE    4 ..............................
........................................................................
------------------------------------------------------------
  cycle        total energy    energy error   density error
------------------------------------------------------------
      1     -110.2062697208  -1.1145958E+02   3.3244533E-03
      2     -110.2063000489  -3.0328069E-05   1.8701701E-03
      3     -110.2062706700   2.9378931E-05   6.6046254E-04
      4     -110.2062991604  -2.8490439E-05   3.2129509E-04
      5     -110.2063094344  -1.0274010E-05   1.0794976E-04
      6     -110.2063096823  -2.4786374E-07   6.3802616E-05
      7     -110.2063101386  -4.5633828E-07   2.6151043E-05
      8     -110.2063101632  -2.4632911E-08   1.5829389E-05
------------------------------------------------------------

 total:                                   0.298 sec
 * total energy  :  -110.2063102 Eh     change       -0.4213994E-02 Eh
   gradient norm :     0.0205683 Eh/α   predicted    -0.3312570E-02 ( -21.39%)
   displ. norm   :     0.4338443 α      lambda       -0.3279505E-02
   maximum displ.:     0.1855218 α      in ANC's #21, #8, #31, ...

........................................................................
.............................. CYCLE    5 ..............................
........................................................................
------------------------------------------------------------
  cycle        total energy    energy error   density error
------------------------------------------------------------
      1     -110.2084951435  -1.1146573E+02   2.9893584E-03
      2     -110.2085265374  -3.1393958E-05   1.6828311E-03
      3     -110.2085086986   1.7838856E-05   5.6736852E-04
      4     -110.2085250110  -1.6312424E-05   2.7906622E-04
      5     -110.2085334284  -8.4173478E-06   1.1627921E-04
      6     -110.2085338895  -4.6110138E-07   6.3662229E-05
      7     -110.2085343115  -4.2201535E-07   2.7061717E-05
      8     -110.2085343343  -2.2778579E-08   1.7967807E-05
------------------------------------------------------------

 total:                                   0.364 sec
 * total energy  :  -110.2085343 Eh     change       -0.2224171E-02 Eh
   gradient norm :     0.0126532 Eh/α   predicted    -0.1948388E-02 ( -12.40%)
   displ. norm   :     0.3596038 α      lambda       -0.1300669E-02
   maximum displ.:     0.1802181 α      in ANC's #8, #21, #4, ...

........................................................................
.............................. CYCLE    6 ..............................
........................................................................
------------------------------------------------------------
  cycle        total energy    energy error   density error
------------------------------------------------------------
      1     -110.2094921898  -1.1146961E+02   2.0833741E-03
      2     -110.2095049468  -1.2757009E-05   1.1705674E-03
      3     -110.2094924422   1.2504650E-05   4.4089330E-04
      4     -110.2095045377  -1.2095558E-05   1.9540181E-04
      5     -110.2095089732  -4.4354544E-06   7.4827988E-05
      6     -110.2095092663  -2.9313149E-07   4.0803473E-05
      7     -110.2095094055  -1.3918319E-07   1.7579160E-05
------------------------------------------------------------

 total:                                   0.299 sec
 * total energy  :  -110.2095094 Eh     change       -0.9750713E-03 Eh
   gradient norm :     0.0109417 Eh/α   predicted    -0.7344587E-03 ( -24.68%)
   displ. norm   :     0.4334111 α      lambda       -0.1097503E-02
   maximum displ.:     0.2518728 α      in ANC's #8, #21, #4, ...

........................................................................
.............................. CYCLE    7 ..............................
........................................................................
------------------------------------------------------------
  cycle        total energy    energy error   density error
------------------------------------------------------------
      1     -110.2103467917  -1.1147095E+02   2.4445047E-03
      2     -110.2103596801  -1.2888456E-05   1.3333347E-03
      3     -110.2103459790   1.3701111E-05   4.7887604E-04
      4     -110.2103602042  -1.4225205E-05   2.1197719E-04
      5     -110.2103642364  -4.0322088E-06   8.1460241E-05
      6     -110.2103644666  -2.3016808E-07   4.2311863E-05
      7     -110.2103646681  -2.0151660E-07   1.6960928E-05
------------------------------------------------------------

 total:                                   0.352 sec
 * total energy  :  -110.2103647 Eh     change       -0.8552626E-03 Eh
   gradient norm :     0.0107037 Eh/α   predicted    -0.6518360E-03 ( -23.79%)
   displ. norm   :     0.4643405 α      lambda       -0.9485801E-03
   maximum displ.:     0.2800620 α      in ANC's #8, #4, #21, ...

........................................................................
.............................. CYCLE    8 ..............................
........................................................................
------------------------------------------------------------
  cycle        total energy    energy error   density error
------------------------------------------------------------
      1     -110.2110922903  -1.1147100E+02   2.5190550E-03
      2     -110.2111056138  -1.3323516E-05   1.3805267E-03
      3     -110.2110929314   1.2682416E-05   4.7115957E-04
      4     -110.2111033558  -1.0424462E-05   2.4152191E-04
      5     -110.2111094857  -6.1299158E-06   8.4467197E-05
      6     -110.2111096759  -1.9011493E-07   4.8231414E-05
      7     -110.2111099834  -3.0759500E-07   1.4893636E-05
------------------------------------------------------------

 total:                                   0.299 sec
 * total energy  :  -110.2111100 Eh     change       -0.7453153E-03 Eh
   gradient norm :     0.0090310 Eh/α   predicted    -0.5765550E-03 ( -22.64%)
   displ. norm   :     0.4625684 α      lambda       -0.7541665E-03
   maximum displ.:     0.2941817 α      in ANC's #8, #4, #13, ...

........................................................................
.............................. CYCLE    9 ..............................
........................................................................
------------------------------------------------------------
  cycle        total energy    energy error   density error
------------------------------------------------------------
      1     -110.2116573516  -1.1147081E+02   2.3874520E-03
      2     -110.2116674728  -1.0121233E-05   1.3081354E-03
      3     -110.2116496598   1.7812958E-05   4.6574222E-04
      4     -110.2116636065  -1.3946701E-05   2.5506839E-04
      5     -110.2116711871  -7.5805148E-06   8.0677283E-05
      6     -110.2116714024  -2.1538941E-07   4.0780545E-05
      7     -110.2116716246  -2.2213361E-07   1.3310302E-05
------------------------------------------------------------

 total:                                   0.323 sec
 * total energy  :  -110.2116716 Eh     change       -0.5616411E-03 Eh
   gradient norm :     0.0081800 Eh/α   predicted    -0.4577725E-03 ( -18.49%)
   displ. norm   :     0.3699659 α      lambda       -0.4574519E-03
   maximum displ.:     0.2520393 α      in ANC's #8, #4, #9, ...

........................................................................
.............................. CYCLE   10 ..............................
........................................................................
------------------------------------------------------------
  cycle        total energy    energy error   density error
------------------------------------------------------------
      1     -110.2119842424  -1.1147275E+02   1.6493609E-03
      2     -110.2119912379  -6.9954868E-06   9.5622267E-04
      3     -110.2119791902   1.2047726E-05   3.6661768E-04
      4     -110.2119887483  -9.5581170E-06   1.8644043E-04
      5     -110.2119937038  -4.9555484E-06   5.2456644E-05
      6     -110.2119936961   7.7564977E-09   3.4755298E-05
      7     -110.2119938541  -1.5806053E-07   9.6924524E-06
------------------------------------------------------------

 total:                                   0.277 sec
 * total energy  :  -110.2119939 Eh     change       -0.3222295E-03 Eh
   gradient norm :     0.0078743 Eh/α   predicted    -0.2600428E-03 ( -19.30%)
   displ. norm   :     0.2925096 α      lambda       -0.2766670E-03
   maximum displ.:     0.2090947 α      in ANC's #8, #9, #13, ...

........................................................................
.............................. CYCLE   11 ..............................
........................................................................
------------------------------------------------------------
  cycle        total energy    energy error   density error
------------------------------------------------------------
      1     -110.2121749829  -1.1147337E+02   1.2940315E-03
      2     -110.2121774375  -2.4546024E-06   7.2967099E-04
      3     -110.2121659115   1.1525961E-05   3.1184141E-04
      4     -110.2121787462  -1.2834706E-05   1.0345291E-04
      5     -110.2121792582  -5.1192974E-07   4.4179776E-05
      6     -110.2121793532  -9.5047227E-08   2.4023796E-05
      7     -110.2121794315  -7.8328057E-08   8.6946068E-06
------------------------------------------------------------

 total:                                   0.320 sec
 * total energy  :  -110.2121794 Eh     change       -0.1855774E-03 Eh
   gradient norm :     0.0052982 Eh/α   predicted    -0.1501750E-03 ( -19.08%)
   displ. norm   :     0.2179679 α      lambda       -0.1901914E-03
   maximum displ.:     0.1572629 α      in ANC's #8, #13, #9, ...

........................................................................
.............................. CYCLE   12 ..............................
........................................................................
------------------------------------------------------------
  cycle        total energy    energy error   density error
------------------------------------------------------------
      1     -110.2123043134  -1.1147568E+02   8.3791665E-04
      2     -110.2123061358  -1.8224192E-06   4.9057417E-04
      3     -110.2122996557   6.4801776E-06   2.4827422E-04
      4     -110.2123068592  -7.2035845E-06   8.5243552E-05
      5     -110.2123077876  -9.2840068E-07   2.7348941E-05
      6     -110.2123077885  -9.0790309E-10   1.7327399E-05
------------------------------------------------------------

 total:                                   0.212 sec
 * total energy  :  -110.2123078 Eh     change       -0.1283570E-03 Eh
   gradient norm :     0.0048584 Eh/α   predicted    -0.9961422E-04 ( -22.39%)
   displ. norm   :     0.1949432 α      lambda       -0.1155957E-03
   maximum displ.:     0.1344914 α      in ANC's #8, #13, #9, ...

........................................................................
.............................. CYCLE   13 ..............................
........................................................................
------------------------------------------------------------
  cycle        total energy    energy error   density error
------------------------------------------------------------
      1     -110.2123857180  -1.1147496E+02   7.0388652E-04
      2     -110.2123863766  -6.5852515E-07   4.0174316E-04
      3     -110.2123786704   7.7061899E-06   2.5004010E-04
      4     -110.2123875353  -8.8649669E-06   7.1505686E-05
      5     -110.2123879974  -4.6203155E-07   2.7835820E-05
      6     -110.2123880258  -2.8464527E-08   1.5415871E-05
------------------------------------------------------------

 total:                                   0.313 sec
 * total energy  :  -110.2123880 Eh     change       -0.8023729E-04 Eh
   gradient norm :     0.0044565 Eh/α   predicted    -0.6000126E-04 ( -25.22%)
   displ. norm   :     0.1863347 α      lambda       -0.1087471E-03
   maximum displ.:     0.1230120 α      in ANC's #8, #3, #11, ...

........................................................................
.............................. CYCLE   14 ..............................
........................................................................
------------------------------------------------------------
  cycle        total energy    energy error   density error
------------------------------------------------------------
      1     -110.2124322486  -1.1147621E+02   8.1252221E-04
      2     -110.2124338424  -1.5938467E-06   4.5592547E-04
      3     -110.2124280212   5.8212588E-06   2.3777957E-04
      4     -110.2124337445  -5.7233837E-06   9.8034934E-05
      5     -110.2124350162  -1.2716728E-06   2.7697360E-05
      6     -110.2124350292  -1.3015068E-08   1.5165107E-05
------------------------------------------------------------

 total:                                   0.301 sec
 * total energy  :  -110.2124350 Eh     change       -0.4700339E-04 Eh
   gradient norm :     0.0040144 Eh/α   predicted    -0.5626343E-04 (  19.70%)
   displ. norm   :     0.1054776 α      lambda       -0.5941805E-04
   maximum displ.:     0.0529930 α      in ANC's #8, #13, #11, ...

........................................................................
.............................. CYCLE   15 ..............................
........................................................................
------------------------------------------------------------
  cycle        total energy    energy error   density error
------------------------------------------------------------
      1     -110.2124690682  -1.1147469E+02   4.4791714E-04
      2     -110.2124693843  -3.1605131E-07   2.5988106E-04
      3     -110.2124663174   3.0668205E-06   1.5971008E-04
      4     -110.2124698528  -3.5353418E-06   3.6272455E-05
      5     -110.2124699227  -6.9906605E-08   1.9543571E-05
------------------------------------------------------------

 total:                                   0.201 sec
 * total energy  :  -110.2124699 Eh     change       -0.3489345E-04 Eh
   gradient norm :     0.0028688 Eh/α   predicted    -0.3004500E-04 ( -13.90%)
   displ. norm   :     0.0590917 α      lambda       -0.3312780E-04
   maximum displ.:     0.0263638 α      in ANC's #14, #11, #17, ...

........................................................................
.............................. CYCLE   16 ..............................
........................................................................
------------------------------------------------------------
  cycle        total energy    energy error   density error
------------------------------------------------------------
      1     -110.2124959433  -1.1147441E+02   3.8969898E-04
      2     -110.2124961617  -2.1845507E-07   2.3398019E-04
      3     -110.2124934705   2.6911917E-06   1.6158712E-04
      4     -110.2124969098  -3.4392517E-06   3.2821493E-05
      5     -110.2124970116  -1.0184193E-07   1.5837790E-05
------------------------------------------------------------

 total:                                   0.304 sec
 * total energy  :  -110.2124970 Eh     change       -0.2708893E-04 Eh
   gradient norm :     0.0024339 Eh/α   predicted    -0.1662327E-04 ( -38.63%)
   displ. norm   :     0.1489709 α      lambda       -0.6088315E-04
   maximum displ.:     0.0662603 α      in ANC's #14, #11, #17, ...

........................................................................
.............................. CYCLE   17 ..............................
........................................................................
------------------------------------------------------------
  cycle        total energy    energy error   density error
------------------------------------------------------------
      1     -110.2125338589  -1.1147436E+02   9.2716304E-04
      2     -110.2125346922  -8.3329326E-07   5.3261888E-04
      3     -110.2125238816   1.0810571E-05   2.8184112E-04
      4     -110.2125359432  -1.2061625E-05   6.5891596E-05
      5     -110.2125362645  -3.2126700E-07   3.2133637E-05
      6     -110.2125363696  -1.0516462E-07   1.1059054E-05
------------------------------------------------------------

 total:                                   0.277 sec
 * total energy  :  -110.2125364 Eh     change       -0.3935802E-04 Eh
   gradient norm :     0.0028960 Eh/α   predicted    -0.3111790E-04 ( -20.94%)
   displ. norm   :     0.1125391 α      lambda       -0.2724635E-04
   maximum displ.:     0.0412008 α      in ANC's #11, #3, #14, ...

........................................................................
.............................. CYCLE   18 ..............................
........................................................................
------------------------------------------------------------
  cycle        total energy    energy error   density error
------------------------------------------------------------
      1     -110.2125542240  -1.1147412E+02   6.2144817E-04
      2     -110.2125545398  -3.1572891E-07   3.5299983E-04
      3     -110.2125523236   2.2161453E-06   1.2966071E-04
      4     -110.2125546500  -2.3263735E-06   4.5240578E-05
      5     -110.2125548022  -1.5222412E-07   1.6579225E-05
------------------------------------------------------------

 total:                                   0.224 sec
 * total energy  :  -110.2125548 Eh     change       -0.1843257E-04 Eh
   gradient norm :     0.0029763 Eh/α   predicted    -0.1379652E-04 ( -25.15%)
   displ. norm   :     0.1534711 α      lambda       -0.3591983E-04
   maximum displ.:     0.0561981 α      in ANC's #3, #14, #6, ...

........................................................................
.............................. CYCLE   19 ..............................
........................................................................
------------------------------------------------------------
  cycle        total energy    energy error   density error
------------------------------------------------------------
      1     -110.2125700757  -1.1147490E+02   8.5598525E-04
      2     -110.2125710203  -9.4460759E-07   4.8319344E-04
      3     -110.2125661886   4.8316585E-06   1.9862037E-04
      4     -110.2125715107  -5.3220569E-06   6.5014910E-05
      5     -110.2125717328  -2.2211454E-07   3.3029322E-05
      6     -110.2125718558  -1.2302350E-07   1.2120899E-05
------------------------------------------------------------

 total:                                   0.291 sec
 * total energy  :  -110.2125719 Eh     change       -0.1705363E-04 Eh
   gradient norm :     0.0021724 Eh/α   predicted    -0.1838553E-04 (   7.81%)
   displ. norm   :     0.0534702 α      lambda       -0.1786383E-04
   maximum displ.:     0.0213003 α      in ANC's #3, #2, #15, ...

........................................................................
.............................. CYCLE   20 ..............................
........................................................................
------------------------------------------------------------
  cycle        total energy    energy error   density error
------------------------------------------------------------
      1     -110.2125824777  -1.1147515E+02   2.7446757E-04
      2     -110.2125825537  -7.5949345E-08   1.5252003E-04
      3     -110.2125810634   1.4902605E-06   1.1731506E-04
      4     -110.2125829684  -1.9049532E-06   2.5110909E-05
      5     -110.2125829910  -2.2647569E-08   1.3802643E-05
------------------------------------------------------------

 total:                                   0.305 sec
 * total energy  :  -110.2125830 Eh     change       -0.1113518E-04 Eh
   gradient norm :     0.0014042 Eh/α   predicted    -0.8960216E-05 ( -19.53%)
   displ. norm   :     0.0553969 α      lambda       -0.1020072E-04
   maximum displ.:     0.0221352 α      in ANC's #2, #15, #14, ...
 * RMSD in coord.:     0.4931787 α      energy gain  -0.8741128E-01 Eh

generating ANC from exact Hessian ...
Using Lindh-Hessian (1995)
 Shifting diagonal of input Hessian by    9.8157197843756448E-003
 Lowest  eigenvalues of input Hessian
    0.000000    0.000000    0.000000    0.000000    0.000000    0.000000
    0.010000    0.010072    0.010157    0.010221    0.010467    0.010744
    0.010813    0.011008    0.011657    0.011867    0.013494    0.013684
 Highest eigenvalues
    2.119191    2.199287    2.208549    2.637244    2.659574    2.668341


........................................................................
.............................. CYCLE   21 ..............................
........................................................................
------------------------------------------------------------
  cycle        total energy    energy error   density error
------------------------------------------------------------
      1     -110.2125909693  -1.1147529E+02   3.4055702E-04
      2     -110.2125913133  -3.4391617E-07   1.8696054E-04
      3     -110.2125901735   1.1397172E-06   1.0256176E-04
      4     -110.2125916306  -1.4570969E-06   3.0389997E-05
      5     -110.2125916812  -5.0596867E-08   1.4736206E-05
------------------------------------------------------------

 total:                                   0.187 sec
 * total energy  :  -110.2125917 Eh     change       -0.8690223E-05 Eh
   gradient norm :     0.0017530 Eh/α   predicted     0.0000000E+00 (-100.00%)
   displ. norm   :     0.0244849 α      lambda       -0.5776358E-05
   maximum displ.:     0.0097016 α      in ANC's #2, #4, #21, ...

........................................................................
.............................. CYCLE   22 ..............................
........................................................................
------------------------------------------------------------
  cycle        total energy    energy error   density error
------------------------------------------------------------
      1     -110.2125992948  -1.1147529E+02   1.8907025E-04
      2     -110.2125993808  -8.5984595E-08   1.0516867E-04
      3     -110.2125989247   4.5609914E-07   7.4188755E-05
      4     -110.2125996270  -7.0228958E-07   2.0682712E-05
      5     -110.2125996485  -2.1529218E-08   1.0435815E-05
------------------------------------------------------------

 total:                                   0.203 sec
 * total energy  :  -110.2125996 Eh     change       -0.7967280E-05 Eh
   gradient norm :     0.0005898 Eh/α   predicted    -0.3726092E-05 ( -53.23%)
   displ. norm   :     0.0518845 α      lambda       -0.7233002E-05
   maximum displ.:     0.0219185 α      in ANC's #2, #4, #6, ...

........................................................................
.............................. CYCLE   23 ..............................
........................................................................
------------------------------------------------------------
  cycle        total energy    energy error   density error
------------------------------------------------------------
      1     -110.2126071165  -1.1147518E+02   3.0202784E-04
      2     -110.2126073242  -2.0771701E-07   1.6095819E-04
      3     -110.2126063792   9.4500112E-07   9.7775282E-05
      4     -110.2126075135  -1.1343458E-06   3.4515519E-05
      5     -110.2126076023  -8.8777384E-08   1.7246478E-05
------------------------------------------------------------

 total:                                   0.274 sec
 * total energy  :  -110.2126076 Eh     change       -0.7953802E-05 Eh
   gradient norm :     0.0009361 Eh/α   predicted    -0.3621085E-05 ( -54.47%)
   displ. norm   :     0.0794083 α      lambda       -0.7144707E-05
   maximum displ.:     0.0345350 α      in ANC's #2, #6, #4, ...

........................................................................
.............................. CYCLE   24 ..............................
........................................................................
------------------------------------------------------------
  cycle        total energy    energy error   density error
------------------------------------------------------------
      1     -110.2126148641  -1.1147511E+02   4.3393918E-04
      2     -110.2126151518  -2.8776020E-07   2.2830381E-04
      3     -110.2126129132   2.2385941E-06   1.4608725E-04
      4     -110.2126156624  -2.7491125E-06   4.4532326E-05
      5     -110.2126157458  -8.3434401E-08   2.4418851E-05
      6     -110.2126157985  -5.2707918E-08   8.1887340E-06
------------------------------------------------------------

 total:                                   0.279 sec
 * total energy  :  -110.2126158 Eh     change       -0.8196171E-05 Eh
   gradient norm :     0.0014100 Eh/α   predicted    -0.3586291E-05 ( -56.24%)
   displ. norm   :     0.1041650 α      lambda       -0.7581426E-05
   maximum displ.:     0.0467956 α      in ANC's #2, #6, #4, ...

........................................................................
.............................. CYCLE   25 ..............................
........................................................................
------------------------------------------------------------
  cycle        total energy    energy error   density error
------------------------------------------------------------
      1     -110.2126238150  -1.1147508E+02   5.2503805E-04
      2     -110.2126241945  -3.7951322E-07   2.7325059E-04
      3     -110.2126236034   5.9115300E-07   8.9814813E-05
      4     -110.2126241005  -4.9708480E-07   5.3763146E-05
      5     -110.2126243499  -2.4942740E-07   1.8001873E-05
------------------------------------------------------------

 total:                                   0.199 sec
 * total energy  :  -110.2126243 Eh     change       -0.8551387E-05 Eh
   gradient norm :     0.0012092 Eh/α   predicted    -0.3821540E-05 ( -55.31%)
   displ. norm   :     0.0950500 α      lambda       -0.5991032E-05
   maximum displ.:     0.0453790 α      in ANC's #2, #6, #4, ...

........................................................................
.............................. CYCLE   26 ..............................
........................................................................
------------------------------------------------------------
  cycle        total energy    energy error   density error
------------------------------------------------------------
      1     -110.2126303934  -1.1147517E+02   4.7092824E-04
      2     -110.2126306669  -2.7345833E-07   2.4710833E-04
      3     -110.2126282083   2.4585735E-06   1.3896158E-04
      4     -110.2126310458  -2.8375064E-06   4.5642341E-05
      5     -110.2126311177  -7.1830215E-08   2.1512140E-05
      6     -110.2126311490  -3.1317001E-08   7.1158963E-06
------------------------------------------------------------

 total:                                   0.315 sec
 * total energy  :  -110.2126311 Eh     change       -0.6799092E-05 Eh
   gradient norm :     0.0005497 Eh/α   predicted    -0.3019782E-05 ( -55.59%)
   displ. norm   :     0.0752909 α      lambda       -0.4288724E-05
   maximum displ.:     0.0393086 α      in ANC's #6, #2, #4, ...

........................................................................
.............................. CYCLE   27 ..............................
........................................................................
------------------------------------------------------------
  cycle        total energy    energy error   density error
------------------------------------------------------------
      1     -110.2126358454  -1.1147528E+02   3.5489376E-04
      2     -110.2126360220  -1.7658155E-07   1.8224043E-04
      3     -110.2126359935   2.8449776E-08   4.5104744E-05
      4     -110.2126359529   4.0589299E-08   3.2907058E-05
      5     -110.2126360659  -1.1294783E-07   1.1220766E-05
------------------------------------------------------------

 total:                                   0.193 sec
 * total energy  :  -110.2126361 Eh     change       -0.4916911E-05 Eh
   gradient norm :     0.0004268 Eh/α   predicted    -0.2154273E-05 ( -56.19%)
   displ. norm   :     0.0626672 α      lambda       -0.3384523E-05
   maximum displ.:     0.0354288 α      in ANC's #6, #2, #4, ...

........................................................................
.............................. CYCLE   28 ..............................
........................................................................
------------------------------------------------------------
  cycle        total energy    energy error   density error
------------------------------------------------------------
      1     -110.2126397724  -1.1147534E+02   3.0707253E-04
      2     -110.2126398467  -7.4289630E-08   1.6023129E-04
      3     -110.2126384617   1.3849859E-06   1.0369777E-04
      4     -110.2126400924  -1.6307080E-06   2.8137341E-05
      5     -110.2126401089  -1.6493047E-08   1.0968140E-05
------------------------------------------------------------

 total:                                   0.251 sec
 * total energy  :  -110.2126401 Eh     change       -0.4042987E-05 Eh
   gradient norm :     0.0006911 Eh/α   predicted    -0.1698876E-05 ( -57.98%)
   displ. norm   :     0.0643883 α      lambda       -0.3280332E-05
   maximum displ.:     0.0374239 α      in ANC's #6, #2, #4, ...

........................................................................
.............................. CYCLE   29 ..............................
........................................................................
------------------------------------------------------------
  cycle        total energy    energy error   density error
------------------------------------------------------------
      1     -110.2126437524  -1.1147532E+02   3.2632112E-04
      2     -110.2126439342  -1.8178021E-07   1.7108653E-04
      3     -110.2126432402   6.9398406E-07   8.3802641E-05
      4     -110.2126440493  -8.0913838E-07   3.2394094E-05
      5     -110.2126440841  -3.4836958E-08   1.7300427E-05
------------------------------------------------------------

 total:                                   0.195 sec
 * total energy  :  -110.2126441 Eh     change       -0.3975271E-05 Eh
   gradient norm :     0.0006806 Eh/α   predicted    -0.1647433E-05 ( -58.56%)
   displ. norm   :     0.0775278 α      lambda       -0.3508992E-05
   maximum displ.:     0.0452162 α      in ANC's #6, #2, #4, ...

........................................................................
.............................. CYCLE   30 ..............................
........................................................................
------------------------------------------------------------
  cycle        total energy    energy error   density error
------------------------------------------------------------
      1     -110.2126476173  -1.1147524E+02   4.1714371E-04
      2     -110.2126478130  -1.9572596E-07   2.2210229E-04
      3     -110.2126449966   2.8164460E-06   1.5003420E-04
      4     -110.2126484050  -3.4084721E-06   4.0580610E-05
      5     -110.2126484517  -4.6689905E-08   2.1466397E-05
      6     -110.2126484866  -3.4851297E-08   8.0679834E-06
------------------------------------------------------------

 total:                                   0.200 sec
 * total energy  :  -110.2126485 Eh     change       -0.4402429E-05 Eh
   gradient norm :     0.0005114 Eh/α   predicted    -0.1762191E-05 ( -59.97%)
   displ. norm   :     0.0982069 α      lambda       -0.4079212E-05
   maximum displ.:     0.0574277 α      in ANC's #6, #2, #4, ...

........................................................................
.............................. CYCLE   31 ..............................
........................................................................
------------------------------------------------------------
  cycle        total energy    energy error   density error
------------------------------------------------------------
      1     -110.2126528879  -1.1147513E+02   5.3987730E-04
      2     -110.2126534301  -5.4226545E-07   2.7856409E-04
      3     -110.2126533280   1.0212385E-07   7.4081771E-05
      4     -110.2126533309  -2.8700669E-09   5.0190622E-05
      5     -110.2126535316  -2.0073875E-07   2.0673646E-05
      6     -110.2126535560  -2.4323953E-08   9.7055253E-06
------------------------------------------------------------

 total:                                   0.228 sec
 * total energy  :  -110.2126536 Eh     change       -0.5069386E-05 Eh
   gradient norm :     0.0004697 Eh/α   predicted    -0.2056773E-05 ( -59.43%)
   displ. norm   :     0.1322517 α      lambda       -0.4910093E-05
   maximum displ.:     0.0772523 α      in ANC's #6, #2, #4, ...

........................................................................
.............................. CYCLE   32 ..............................
........................................................................
------------------------------------------------------------
  cycle        total energy    energy error   density error
------------------------------------------------------------
      1     -110.2126579737  -1.1147501E+02   7.4425838E-04
      2     -110.2126589452  -9.7153813E-07   3.8023619E-04
      3     -110.2126572693   1.6759518E-06   1.3662600E-04
      4     -110.2126586898  -1.4205227E-06   8.2437881E-05
      5     -110.2126593754  -6.8561428E-07   2.7244275E-05
      6     -110.2126593879  -1.2503605E-08   1.2920843E-05
------------------------------------------------------------

 total:                                   0.214 sec
 * total energy  :  -110.2126594 Eh     change       -0.5831955E-05 Eh
   gradient norm :     0.0006482 Eh/α   predicted    -0.2476014E-05 ( -57.54%)
   displ. norm   :     0.1466925 α      lambda       -0.4544389E-05
   maximum displ.:     0.0860769 α      in ANC's #6, #2, #4, ...

........................................................................
.............................. CYCLE   33 ..............................
........................................................................
------------------------------------------------------------
  cycle        total energy    energy error   density error
------------------------------------------------------------
      1     -110.2126627163  -1.1147493E+02   8.2875596E-04
      2     -110.2126639751  -1.2588636E-06   4.1712111E-04
      3     -110.2126629290   1.0461455E-06   1.3665077E-04
      4     -110.2126637903  -8.6135432E-07   8.5185599E-05
      5     -110.2126643724  -5.8202875E-07   3.2942624E-05
      6     -110.2126644164  -4.4083720E-08   1.7104497E-05
------------------------------------------------------------

 total:                                   0.314 sec
 * total energy  :  -110.2126644 Eh     change       -0.5028533E-05 Eh
   gradient norm :     0.0007388 Eh/α   predicted    -0.2298778E-05 ( -54.29%)
   displ. norm   :     0.1142523 α      lambda       -0.3011686E-05
   maximum displ.:     0.0677759 α      in ANC's #6, #2, #4, ...

........................................................................
.............................. CYCLE   34 ..............................
........................................................................
------------------------------------------------------------
  cycle        total energy    energy error   density error
------------------------------------------------------------
      1     -110.2126661580  -1.1147501E+02   6.4659866E-04
      2     -110.2126667181  -5.6004605E-07   3.2692517E-04
      3     -110.2126620917   4.6263459E-06   1.8894294E-04
      4     -110.2126675508  -5.4590692E-06   6.1658821E-05
      5     -110.2126676694  -1.1862959E-07   2.8476304E-05
      6     -110.2126677171  -4.7616084E-08   1.3289988E-05
------------------------------------------------------------

 total:                                   0.201 sec
 * total energy  :  -110.2126677 Eh     change       -0.3300613E-05 Eh
   gradient norm :     0.0005506 Eh/α   predicted    -0.1517133E-05 ( -54.03%)
   displ. norm   :     0.0759945 α      lambda       -0.1921522E-05
   maximum displ.:     0.0456618 α      in ANC's #6, #2, #4, ...

........................................................................
.............................. CYCLE   35 ..............................
........................................................................
------------------------------------------------------------
  cycle        total energy    energy error   density error
------------------------------------------------------------
      1     -110.2126691687  -1.1147516E+02   4.2774233E-04
      2     -110.2126694631  -2.9439607E-07   2.1154568E-04
      3     -110.2126682861   1.1769800E-06   1.0875071E-04
      4     -110.2126697160  -1.4298857E-06   3.9852725E-05
      5     -110.2126697370  -2.0935360E-08   2.1608318E-05
      6     -110.2126697889  -5.1955737E-08   8.2745382E-06
------------------------------------------------------------

 total:                                   0.231 sec
 * total energy  :  -110.2126698 Eh     change       -0.2071865E-05 Eh
   gradient norm :     0.0002830 Eh/α   predicted    -0.9636183E-06 ( -53.49%)
   displ. norm   :     0.0551088 α      lambda       -0.1172165E-05
   maximum displ.:     0.0335572 α      in ANC's #6, #2, #4, ...

........................................................................
.............................. CYCLE   36 ..............................
........................................................................
------------------------------------------------------------
  cycle        total energy    energy error   density error
------------------------------------------------------------
      1     -110.2126707764  -1.1147523E+02   3.1745435E-04
      2     -110.2126709043  -1.2789053E-07   1.5954777E-04
      3     -110.2126701210   7.8324898E-07   7.9546542E-05
      4     -110.2126710375  -9.1653322E-07   2.8400641E-05
      5     -110.2126710521  -1.4520197E-08   1.2120058E-05
------------------------------------------------------------

 total:                                   0.174 sec
 * total energy  :  -110.2126711 Eh     change       -0.1263136E-05 Eh
   gradient norm :     0.0002424 Eh/α   predicted    -0.5874236E-06 ( -53.49%)
   displ. norm   :     0.0362971 α      lambda       -0.8415188E-06
   maximum displ.:     0.0213736 α      in ANC's #6, #2, #12, ...

........................................................................
.............................. CYCLE   37 ..............................
........................................................................
------------------------------------------------------------
  cycle        total energy    energy error   density error
------------------------------------------------------------
      1     -110.2126717474  -1.1147528E+02   2.1674114E-04
      2     -110.2126718292  -8.1874575E-08   1.1706354E-04
      3     -110.2126711521   6.7708289E-07   7.6586742E-05
      4     -110.2126720225  -8.7035043E-07   1.9789955E-05
------------------------------------------------------------

 total:                                   0.163 sec
 * total energy  :  -110.2126720 Eh     change       -0.9704349E-06 Eh
   gradient norm :     0.0002828 Eh/α   predicted    -0.4249621E-06 ( -56.21%)
   displ. norm   :     0.0351451 α      lambda       -0.7449249E-06
   maximum displ.:     0.0212963 α      in ANC's #6, #12, #2, ...

   *** GEOMETRY OPTIMIZATION CONVERGED AFTER 37 ITERATIONS ***

------------------------------------------------------------------------
 total energy gain   :        -0.0875003 Eh      -54.9073 kcal/mol
 total RMSD          :         0.5321342 a0        0.2816 Å
 total power (kW/mol):        -6.2089737 (step)  -23.2781 (real)
------------------------------------------------------------------------

 ANCopt (total)                0 d,  0 h,  0 min,  9.869 sec
 optimizer setup                ...        0 min,  0.001 sec (  0.010%)
 model hessian                  ...        0 min,  0.023 sec (  0.236%)
 ANC generation                 ...        0 min,  0.016 sec (  0.163%)
 coordinate transformation      ...        0 min,  0.001 sec (  0.006%)
 single point calculation       ...        0 min,  9.811 sec ( 99.411%)
 optimization log               ...        0 min,  0.005 sec (  0.051%)
 hessian update                 ...        0 min,  0.003 sec (  0.029%)
 rational function              ...        0 min,  0.008 sec (  0.077%)

================
 final structure:
================
 xtb: 6.7.1 (edcfbbe)
          03042512413D

 58 62  0     0  0            999 V2000
   -2.0933    1.5298   -2.6752 C   0  0  0  0  0  0  0  0  0  0  0  0
   -1.8735    0.6810   -1.6087 C   0  0  0  0  0  0  0  0  0  0  0  0
   -1.0442    1.1124   -0.5393 C   0  0  0  0  0  0  0  0  0  0  0  0
   -0.2451    2.2875   -0.7159 C   0  0  0  0  0  0  0  0  0  0  0  0
   -0.5190    3.1441   -1.8094 C   0  0  0  0  0  0  0  0  0  0  0  0
   -1.4515    2.7715   -2.7284 C   0  0  0  0  0  0  0  0  0  0  0  0
   -0.8744    0.4017    0.6874 C   0  0  0  0  0  0  0  0  0  0  0  0
    0.3193    0.6361    1.3881 C   0  0  0  0  0  0  0  0  0  0  0  0
    1.1391    1.7483    1.0320 C   0  0  0  0  0  0  0  0  0  0  0  0
    0.7814    2.6006    0.0753 N   0  0  0  0  0  0  0  0  0  0  0  0
   -1.7920   -0.5184    1.2802 C   0  0  0  0  0  0  0  0  0  0  0  0
   -1.2556   -1.4266    2.2492 C   0  0  0  0  0  0  0  0  0  0  0  0
   -0.0339   -1.3021    2.7719 N   0  0  0  0  0  0  0  0  0  0  0  0
    0.6978   -0.2405    2.4488 C   0  0  0  0  0  0  0  0  0  0  0  0
    1.9148    0.0089    3.1217 C   0  0  0  0  0  0  0  0  0  0  0  0
    2.6844    1.0982    2.7731 C   0  0  0  0  0  0  0  0  0  0  0  0
    2.3248    1.9728    1.7665 C   0  0  0  0  0  0  0  0  0  0  0  0
   -3.1917   -0.5187    1.0455 C   0  0  0  0  0  0  0  0  0  0  0  0
   -3.9566   -1.5514    1.5516 C   0  0  0  0  0  0  0  0  0  0  0  0
   -3.3729   -2.5432    2.3403 C   0  0  0  0  0  0  0  0  0  0  0  0
   -2.0670   -2.4824    2.7289 C   0  0  0  0  0  0  0  0  0  0  0  0
   -3.7030    0.5522    0.3916 O   0  0  0  0  0  0  0  0  0  0  0  0
   -2.3391   -0.5908   -1.5398 O   0  0  0  0  0  0  0  0  0  0  0  0
   -1.9139    3.8797   -4.1141 S   0  0  0  0  0  0  0  0  0  0  0  0
   -4.4269   -3.9398    2.9011 S   0  0  0  0  0  0  0  0  0  0  0  0
    0.0371    4.0611   -1.9192 H   0  0  0  0  0  0  0  0  0  0  0  0
   -2.7554    1.2665   -3.4843 H   0  0  0  0  0  0  0  0  0  0  0  0
    2.9422    2.8201    1.5150 H   0  0  0  0  0  0  0  0  0  0  0  0
    2.2324   -0.6491    3.9158 H   0  0  0  0  0  0  0  0  0  0  0  0
   -1.6383   -3.1954    3.4132 H   0  0  0  0  0  0  0  0  0  0  0  0
   -5.0170   -1.6301    1.3688 H   0  0  0  0  0  0  0  0  0  0  0  0
   -1.0562    5.0338   -3.9557 O   0  0  0  0  0  0  0  0  0  0  0  0
   -3.4250    4.2632   -3.4932 O   0  0  0  0  0  0  0  0  0  0  0  0
   -3.4378    5.1401   -2.3967 C   0  0  0  0  0  0  0  0  0  0  0  0
    4.2779    1.3998    3.6497 S   0  0  0  0  0  0  0  0  0  0  0  0
    4.3137    0.3714    4.6686 O   0  0  0  0  0  0  0  0  0  0  0  0
    5.2564    0.9082    2.3863 O   0  0  0  0  0  0  0  0  0  0  0  0
    5.3403   -0.4745    2.1574 C   0  0  0  0  0  0  0  0  0  0  0  0
   -5.7143   -3.6509    2.2953 O   0  0  0  0  0  0  0  0  0  0  0  0
   -3.6702   -5.1045    1.9719 O   0  0  0  0  0  0  0  0  0  0  0  0
   -3.8719   -5.0274    0.5856 C   0  0  0  0  0  0  0  0  0  0  0  0
   -5.0974    0.6288    0.2099 C   0  0  0  0  0  0  0  0  0  0  0  0
   -3.1255   -1.0810   -2.5988 C   0  0  0  0  0  0  0  0  0  0  0  0
   -3.7352   -6.0276    0.1770 H   0  0  0  0  0  0  0  0  0  0  0  0
   -3.1535   -4.3387    0.1282 H   0  0  0  0  0  0  0  0  0  0  0  0
   -4.8911   -4.6850    0.3756 H   0  0  0  0  0  0  0  0  0  0  0  0
    6.3175   -0.6777    1.7217 H   0  0  0  0  0  0  0  0  0  0  0  0
    4.5527   -0.8014    1.4711 H   0  0  0  0  0  0  0  0  0  0  0  0
    5.2440   -1.0158    3.1046 H   0  0  0  0  0  0  0  0  0  0  0  0
   -3.3789   -2.1048   -2.3264 H   0  0  0  0  0  0  0  0  0  0  0  0
   -2.5694   -1.0846   -3.5416 H   0  0  0  0  0  0  0  0  0  0  0  0
   -4.0447   -0.4999   -2.7217 H   0  0  0  0  0  0  0  0  0  0  0  0
   -5.2724    1.5663   -0.3162 H   0  0  0  0  0  0  0  0  0  0  0  0
   -5.6247    0.6450    1.1684 H   0  0  0  0  0  0  0  0  0  0  0  0
   -5.4722   -0.2031   -0.3941 H   0  0  0  0  0  0  0  0  0  0  0  0
   -4.3847    5.6780   -2.4155 H   0  0  0  0  0  0  0  0  0  0  0  0
   -2.6119    5.8540   -2.4806 H   0  0  0  0  0  0  0  0  0  0  0  0
   -3.3418    4.5864   -1.4569 H   0  0  0  0  0  0  0  0  0  0  0  0
  1  2  2  0  0  0  0
  1  6  1  0  0  0  0
  1 27  1  0  0  0  0
  2  3  1  0  0  0  0
  2 23  1  0  0  0  0
  3  4  2  0  0  0  0
  3  7  1  0  0  0  0
  4  5  1  0  0  0  0
  4 10  1  0  0  0  0
  5  6  2  0  0  0  0
  5 26  1  0  0  0  0
  6 24  1  0  0  0  0
  7  8  2  0  0  0  0
  7 11  1  0  0  0  0
  8  9  1  0  0  0  0
  8 14  1  0  0  0  0
  9 10  1  0  0  0  0
  9 17  2  0  0  0  0
 11 12  2  0  0  0  0
 11 18  1  0  0  0  0
 12 13  1  0  0  0  0
 12 21  1  0  0  0  0
 13 14  2  0  0  0  0
 14 15  1  0  0  0  0
 15 16  2  0  0  0  0
 15 29  1  0  0  0  0
 16 17  1  0  0  0  0
 16 35  1  0  0  0  0
 17 28  1  0  0  0  0
 18 19  2  0  0  0  0
 18 22  1  0  0  0  0
 19 20  1  0  0  0  0
 19 31  1  0  0  0  0
 20 21  2  0  0  0  0
 20 25  1  0  0  0  0
 21 30  1  0  0  0  0
 22 42  1  0  0  0  0
 23 43  1  0  0  0  0
 24 32  2  0  0  0  0
 24 33  1  0  0  0  0
 25 39  2  0  0  0  0
 25 40  1  0  0  0  0
 33 34  1  0  0  0  0
 34 56  1  0  0  0  0
 34 57  1  0  0  0  0
 34 58  1  0  0  0  0
 35 36  2  0  0  0  0
 35 37  1  0  0  0  0
 37 38  1  0  0  0  0
 38 47  1  0  0  0  0
 38 48  1  0  0  0  0
 38 49  1  0  0  0  0
 40 41  1  0  0  0  0
 41 44  1  0  0  0  0
 41 45  1  0  0  0  0
 41 46  1  0  0  0  0
 42 53  1  0  0  0  0
 42 54  1  0  0  0  0
 42 55  1  0  0  0  0
 43 50  1  0  0  0  0
 43 51  1  0  0  0  0
 43 52  1  0  0  0  0
M  END

 Bond Distances (Angstroems)
 ---------------------------
C1-C2=1.3807         C1-C6=1.3988         C1-H27=1.0781        C2-C1=1.3807         C2-C3=1.4204         C2-O23=1.3561        
C3-C2=1.4204         C3-C4=1.4320         C3-C7=1.4278         C4-C3=1.4320         C4-C5=1.4158         C4-N10=1.3333        
C5-C4=1.4158         C5-C6=1.3612         C5-H26=1.0780        C6-C1=1.3988         C6-C5=1.3612         C6-S24=1.8336        
C7-C3=1.4278         C7-C8=1.4039         C7-C11=1.4283        C8-C7=1.4039         C8-C9=1.4269         C8-C14=1.4271        
C9-C8=1.4269         C9-N10=1.3303        C9-C17=1.4127        N10-C4=1.3333        N10-C9=1.3303        C11-C7=1.4283        
C11-C12=1.4323       C11-C18=1.4193       C12-C11=1.4323       C12-N13=1.3346       C12-C21=1.4154       N13-C12=1.3346       
N13-C14=1.3292       C14-C8=1.4271        C14-N13=1.3292       C14-C15=1.4129       C15-C14=1.4129       C15-C16=1.3785       
C15-H29=1.0791       C16-C15=1.3785       C16-C17=1.3811       C16-S35=1.8435       C17-C9=1.4127        C17-C16=1.3811       
C17-H28=1.0781       C18-C11=1.4193       C18-C19=1.3812       C18-O22=1.3549       C19-C18=1.3812       C19-C20=1.3951       
C19-H31=1.0789       C20-C19=1.3951       C20-C21=1.3639       C20-S25=1.8373       C21-C12=1.4154       C21-C20=1.3639       
C21-H30=1.0772       O22-C18=1.3549       O22-C42=1.4083       O23-C2=1.3561        O23-C43=1.4072       S24-C6=1.8336        
S24-O32=1.4467       S24-O33=1.6781       S25-C20=1.8373       S25-O39=1.4518       S25-O40=1.6710       H26-C5=1.0780        
H27-C1=1.0781        H28-C17=1.0781       H29-C15=1.0791       H30-C21=1.0772       H31-C19=1.0789       O32-S24=1.4467       
O33-S24=1.6781       O33-C34=1.4041       C34-O33=1.4041       C34-H56=1.0891       C34-H57=1.0949       C34-H58=1.0949       
S35-C16=1.8435       S35-O36=1.4482       S35-O37=1.6720       O36-S35=1.4482       O37-S35=1.6720       O37-C38=1.4041       
C38-O37=1.4041       C38-H47=1.0891       C38-H48=1.0947       C38-H49=1.0952       O39-S25=1.4518       O40-S25=1.6710       
O40-C41=1.4030       C41-O40=1.4030       C41-H44=1.0891       C41-H45=1.0953       C41-H46=1.0955       C42-O22=1.4083       
C42-H53=1.0892       C42-H54=1.0941       C42-H55=1.0942       C43-O23=1.4072       C43-H50=1.0893       C43-H51=1.0946       
C43-H52=1.0943       H44-C41=1.0891       H45-C41=1.0953       H46-C41=1.0955       H47-C38=1.0891       H48-C38=1.0947       
H49-C38=1.0952       H50-C43=1.0893       H51-C43=1.0946       H52-C43=1.0943       H53-C42=1.0892       H54-C42=1.0941       
H55-C42=1.0942       H56-C34=1.0891       H57-C34=1.0949       H58-C34=1.0949       
 C  H  Rav=1.0887 sigma=0.0070  Rmin=1.0772  Rmax=1.0955    21
 C  C  Rav=1.4055 sigma=0.0223  Rmin=1.3612  Rmax=1.4323    21
 N  C  Rav=1.3319 sigma=0.0022  Rmin=1.3292  Rmax=1.3346     4
 O  C  Rav=1.3911 sigma=0.0226  Rmin=1.3549  Rmax=1.4083     7
 S  C  Rav=1.8381 sigma=0.0041  Rmin=1.8336  Rmax=1.8435     3
 S  O  Rav=1.5613 sigma=0.1124  Rmin=1.4467  Rmax=1.6781     6

 selected bond angles (degree)
 --------------------
C6-C1-C2=120.13                H27-C1-C2=121.83               H27-C1-C6=118.04               C3-C2-C1=119.20                
O23-C2-C1=124.13               O23-C2-C3=116.56               C4-C3-C2=118.83                C7-C3-C2=124.41                
C7-C3-C4=116.62                C5-C4-C3=118.93                N10-C4-C3=123.31               N10-C4-C5=117.72               
C6-C5-C4=119.23                H26-C5-C4=119.57               H26-C5-C6=121.16               C5-C6-C1=122.12                
S24-C6-C1=116.71               S24-C6-C5=121.17               C8-C7-C3=116.54                C11-C7-C3=126.93               
C11-C7-C8=116.53               C9-C8-C7=119.61                C14-C8-C7=119.60               C14-C8-C9=120.79               
N10-C9-C8=121.63               C17-C9-C8=118.45               C17-C9-N10=119.85              C9-N10-C4=118.90               

 selected dihedral angles (degree)
 ---------------------------------
C3-C2-C1-C6=  3.15            C3-C2-C1-H27=183.23           O23-C2-C1-C6=187.15           O23-C2-C1-H27=  7.23          
C4-C3-C2-C1=347.34            C4-C3-C2-O23=163.63           C7-C3-C2-C1=171.84            C7-C3-C2-O23=348.14           
C5-C4-C3-C2= 13.99            C5-C4-C3-C7=189.84            N10-C4-C3-C2=196.27           N10-C4-C3-C7= 12.12           
C6-C5-C4-C3=354.24            C6-C5-C4-N10=172.09           H26-C5-C4-C3=176.39           H26-C5-C4-N10=354.24          
C5-C6-C1-C2=  5.42            C5-C6-C1-H27=185.35           S24-C6-C1-C2=184.82           S24-C6-C1-H27=  4.75          
C1-C6-C5-C4=356.01            C1-C6-C5-H26=173.82           S24-C6-C5-C4=176.63           S24-C6-C5-H26=354.45          
C8-C7-C3-C2=155.28            C8-C7-C3-C4=339.70            C11-C7-C3-C2=335.03           C11-C7-C3-C4=159.44           
C9-C8-C7-C3= 13.95            C9-C8-C7-C11=194.18           C14-C8-C7-C3=193.90           C14-C8-C7-C11= 14.13          
N10-C9-C8-C7=  2.15           N10-C9-C8-C14=182.20          C17-C9-C8-C7=179.07           C17-C9-C8-C14=359.11          
C9-N10-C4-C3=  4.04           C9-N10-C4-C5=186.30           C4-N10-C9-C8=348.62           C4-N10-C9-C17=171.75          
           -------------------------------------------------
          |                Final Singlepoint                |
           -------------------------------------------------
repulsion energy          1.2616187093070E+00 Eh
dispersion energy         9.8717266465039E-04 Eh
interaction energy        0.0000000000000E+00 Eh
number of electrons       1.9300000000000E+02 e
integral cutoff           1.8403572253217E+01 bohr

------------------------------------------------------------
  cycle        total energy    energy error   density error
------------------------------------------------------------
      1     -110.2126717272  -1.1147528E+02   4.1299430E-05
      2     -110.2126716173   1.0993294E-07   4.7251502E-05
      3     -110.2126720394  -4.2212596E-07   2.5888579E-06
------------------------------------------------------------

electronic energy        -1.1147527792141E+02 Eh
total energy             -1.1021267203944E+02 Eh

 total:                                   0.142 sec
 - repulsion                              0.000 sec (  0%)
 - dispersion                             0.003 sec (  2%)
 - coulomb                                0.001 sec (  0%)
 - hamiltonian                            0.006 sec (  4%)
 - scc                                    0.131 sec ( 92%)

           -------------------------------------------------
          |                Property Printout                |
           -------------------------------------------------
           -------------------------------------------------
          |                Geometry Summary                 |
           -------------------------------------------------

      molecular mass/u    :      561.6274254
   center of mass at/Å    :       -0.9906628       0.3149272       0.5458292
  moments of inertia/u·Å² :        0.6449638E+04   0.6618982E+04   0.1205184E+05
rotational constants/cm⁻¹ :        0.2613733E-02   0.2546862E-02   0.1398760E-02

 * 56 selected distances

     #   Z          #   Z                                           value/Å
     1   6 C        2   6 C                                       1.3807280
     2   6 C        3   6 C                                       1.4203861
     3   6 C        4   6 C                                       1.4320198
     4   6 C        5   6 C                                       1.4158401
     1   6 C        6   6 C                                       1.3988055
     5   6 C        6   6 C                                       1.3611871
     3   6 C        7   6 C                                       1.4277885
     7   6 C        8   6 C                                       1.4039118
     8   6 C        9   6 C                                       1.4268618
     4   6 C       10   7 N                                       1.3333290
     9   6 C       10   7 N                                       1.3303324
     7   6 C       11   6 C                                       1.4282592
    11   6 C       12   6 C                                       1.4322588
    12   6 C       13   7 N                                       1.3346063
     8   6 C       14   6 C                                       1.4270531
    13   7 N       14   6 C                                       1.3292232
    14   6 C       15   6 C                                       1.4128840
    15   6 C       16   6 C                                       1.3784879
     9   6 C       17   6 C                                       1.4126950
    16   6 C       17   6 C                                       1.3811224
    11   6 C       18   6 C                                       1.4192646
    18   6 C       19   6 C                                       1.3812149
    19   6 C       20   6 C                                       1.3951470
    12   6 C       21   6 C                                       1.4153515
    20   6 C       21   6 C                                       1.3638660
    18   6 C       22   8 O                                       1.3548680
     2   6 C       23   8 O                                       1.3560700
     5   6 C       26   1 H                                       1.0780205
     1   6 C       27   1 H                                       1.0780710
    17   6 C       28   1 H                                       1.0781023
    15   6 C       29   1 H                                       1.0791286
    21   6 C       30   1 H                                       1.0772395 (min)
    19   6 C       31   1 H                                       1.0789211
    24  16 S       32   8 O                                       1.4466673
    33   8 O       34   6 C                                       1.4040684
    35  16 S       36   8 O                                       1.4481960
    37   8 O       38   6 C                                       1.4040793
    25  16 S       39   8 O                                       1.4518133 (max)
    40   8 O       41   6 C                                       1.4029988
    22   8 O       42   6 C                                       1.4082833
    23   8 O       43   6 C                                       1.4071716
    41   6 C       44   1 H                                       1.0890586
    41   6 C       45   1 H                                       1.0952997
    41   6 C       46   1 H                                       1.0955011
    38   6 C       47   1 H                                       1.0890571
    38   6 C       48   1 H                                       1.0947030
    38   6 C       49   1 H                                       1.0951784
    43   6 C       50   1 H                                       1.0892788
    43   6 C       51   1 H                                       1.0945946
    43   6 C       52   1 H                                       1.0943434
    42   6 C       53   1 H                                       1.0891965
    42   6 C       54   1 H                                       1.0941404
    42   6 C       55   1 H                                       1.0942371
    34   6 C       56   1 H                                       1.0891373
    34   6 C       57   1 H                                       1.0949316
    34   6 C       58   1 H                                       1.0949327

 * 5 distinct bonds (by element types)

   Z      Z             #   av. dist./Å        max./Å        min./Å
   1 H    6 C          21     1.0887178     1.0955011     1.0772395
   6 C    6 C          21     1.4054825     1.4322588     1.3611871
   6 C    7 N           4     1.3318727     1.3346063     1.3292232
   6 C    8 O           7     1.3910770     1.4082833     1.3548680
   8 O   16 S           3     1.4488922     1.4518133     1.4466673


optimized geometry written to: xtbopt.mol


           -------------------------------------------------
          | TOTAL ENERGY             -110.212672039438 Eh   |
          | GRADIENT NORM               0.000282377892 Eh/α |
           -------------------------------------------------

------------------------------------------------------------------------
Note: The following floating-point exceptions are signalling: IEEE_UNDERFLOW_FLAG
normal termination of xtb
 * finished run on 2025/03/04 at 12:41:21.355     
------------------------------------------------------------------------
 total:
 * wall-time:     0 d,  0 h,  0 min, 10.691 sec
 *  cpu-time:     0 d,  0 h,  0 min, 30.283 sec
 * ratio c/w:     2.833 speedup
 SCF:
 * wall-time:     0 d,  0 h,  0 min,  0.663 sec
 *  cpu-time:     0 d,  0 h,  0 min,  1.931 sec
 * ratio c/w:     2.912 speedup
 ANC optimizer:
 * wall-time:     0 d,  0 h,  0 min, 10.015 sec
 *  cpu-time:     0 d,  0 h,  0 min, 28.348 sec
 * ratio c/w:     2.831 speedup

      -----------------------------------------------------------      
     |                   =====================                   |     
     |                           x T B                           |     
     |                   =====================                   |     
     |                         S. Grimme                         |     
     |          Mulliken Center for Theoretical Chemistry        |     
     |                    University of Bonn                     |     
      -----------------------------------------------------------      

   * xtb version 6.7.1 (edcfbbe) compiled by 'runner@Mac-1732539442253.local' on 2024-11-25

   xtb is free software: you can redistribute it and/or modify it under
   the terms of the GNU Lesser General Public License as published by
   the Free Software Foundation, either version 3 of the License, or
   (at your option) any later version.
   
   xtb is distributed in the hope that it will be useful,
   but WITHOUT ANY WARRANTY; without even the implied warranty of
   MERCHANTABILITY or FITNESS FOR A PARTICULAR PURPOSE.  See the
   GNU Lesser General Public License for more details.
   
   Cite this work as:
   * C. Bannwarth, E. Caldeweyher, S. Ehlert, A. Hansen, P. Pracht,
     J. Seibert, S. Spicher, S. Grimme, WIREs Comput. Mol. Sci., 2020, 11,
     e01493. DOI: 10.1002/wcms.1493
   
   for GFN2-xTB:
   * C. Bannwarth, S. Ehlert and S. Grimme., J. Chem. Theory Comput., 2019,
     15, 1652-1671. DOI: 10.1021/acs.jctc.8b01176
   for GFN1-xTB:
   * S. Grimme, C. Bannwarth, P. Shushkov, J. Chem. Theory Comput., 2017,
     13, 1989-2009. DOI: 10.1021/acs.jctc.7b00118
   for GFN0-xTB:
   * P. Pracht, E. Caldeweyher, S. Ehlert, S. Grimme, ChemRxiv, 2019, preprint.
     DOI: 10.26434/chemrxiv.8326202.v1
   for GFN-FF:
   * S. Spicher and S. Grimme, Angew. Chem. Int. Ed., 2020, 59, 15665-15673.
     DOI: 10.1002/anie.202004239
   
   for ALPB and GBSA implicit solvation:
   * S. Ehlert, M. Stahn, S. Spicher, S. Grimme, J. Chem. Theory Comput.,
     2021, 17, 4250-4261. DOI: 10.1021/acs.jctc.1c00471
   
   for ddCOSMO and CPCM-X implicit solvation:
   * M. Stahn, S. Ehlert, S. Grimme, J. Phys. Chem. A,
     2023, XX, XXXX-XXXX. DOI: 10.1021/acs.jpca.3c04382
   
   for DFT-D4:
   * E. Caldeweyher, C. Bannwarth and S. Grimme, J. Chem. Phys., 2017,
     147, 034112. DOI: 10.1063/1.4993215
   * E. Caldeweyher, S. Ehlert, A. Hansen, H. Neugebauer, S. Spicher,
     C. Bannwarth and S. Grimme, J. Chem. Phys., 2019, 150, 154122.
     DOI: 10.1063/1.5090222
   * E. Caldeweyher, J.-M. Mewes, S. Ehlert and S. Grimme, Phys. Chem. Chem. Phys.
     2020, 22, 8499-8512. DOI: 10.1039/D0CP00502A
   
   for sTDA-xTB:
   * S. Grimme and C. Bannwarth, J. Chem. Phys., 2016, 145, 054103.
     DOI: 10.1063/1.4959605
   
   in the mass-spec context:
   * V. Asgeirsson, C. Bauer and S. Grimme, Chem. Sci., 2017, 8, 4879.
     DOI: 10.1039/c7sc00601b
   * J. Koopman and S. Grimme, ACS Omega 2019, 4, 12, 15120-15133.
     DOI: 10.1021/acsomega.9b02011
   
   for metadynamics refer to:
   * S. Grimme, J. Chem. Theory Comput., 2019, 155, 2847-2862
     DOI: 10.1021/acs.jctc.9b00143
   
   for SPH calculations refer to:
   * S. Spicher and S. Grimme, J. Chem. Theory Comput., 2021, 17, 1701-1714
     DOI: 10.1021/acs.jctc.0c01306
   
   for ONIOM refer to:
   * C. Plett, A. Katbashev, S. Ehlert, S. Grimme, M. Bursch,
     Phys. Chem. Chem. Phys., 2023, 25, 17860-17868. DOI: 10.1039/D3CP02178E
   
   for DIPRO refer to:
   * J. Kohn, N. Gildemeister, S. Grimme, D. Fazzi, A. Hansen,
     J. Chem. Phys., 2023, just accepted.
   
   for PTB refer to:
   * S. Grimme, M. Mueller, A. Hansen, J. Chem. Phys., 2023, 158, 124111.
     DOI: 10.1063/5.0137838
   
   with help from (in alphabetical order)
   P. Atkinson, C. Bannwarth, F. Bohle, G. Brandenburg, E. Caldeweyher
   M. Checinski, S. Dohm, S. Ehlert, S. Ehrlich, I. Gerasimov, C. Hölzer
   A. Katbashev, J. Kohn, J. Koopman, C. Lavigne, S. Lehtola, F. März, M. Müller,
   F. Musil, H. Neugebauer, J. Pisarek, C. Plett, P. Pracht, F. Pultar,
   J. Seibert, P. Shushkov, S. Spicher, M. Stahn, M. Steiner, T. Strunk,
   J. Stückrath, T. Rose, and J. Unsleber
   
 * started run on 2025/03/04 at 12:41:21.390     
   ID    Z sym.   atoms
    1    6 C      1-9, 11, 12, 14-21, 34, 38, 41-43
    2    7 N      10, 13
    3    8 O      22, 23, 32, 33, 36, 37, 39, 40
    4   16 S      24, 25, 35
    5    1 H      26-31, 44-58

           -------------------------------------------------
          |                Calculation Setup                |
           -------------------------------------------------

          program call               : xtb Base3SO2Me.mol --opt tight --cycles 500 --chrg -1 --uhf 0 --spinpol --tblite
          coordinate file            : Base3SO2Me.mol
          omp threads                :                     8

Wavefunction read from restart file
repulsion energy          1.1532234384035E+00 Eh
dispersion energy         7.2386336977476E-04 Eh
interaction energy        0.0000000000000E+00 Eh
number of electrons       1.9400000000000E+02 e
integral cutoff           1.8403572253217E+01 bohr

------------------------------------------------------------
  cycle        total energy    energy error   density error
------------------------------------------------------------
      1     -110.3914231905  -1.1154537E+02   3.4093682E-02
      2     -110.4139094649  -2.2486274E-02   2.0353949E-02
      3     -110.4121212856   1.7881793E-03   1.3764222E-02
      4     -110.4211431619  -9.0218763E-03   5.6858390E-03
      5     -110.4224959719  -1.3528099E-03   2.8000733E-03
      6     -110.4229739525  -4.7798063E-04   1.4676027E-03
      7     -110.4230614593  -8.7506851E-05   8.3410492E-04
      8     -110.4230801419  -1.8682551E-05   5.4605123E-04
      9     -110.4230918470  -1.1705079E-05   2.9564488E-04
     10     -110.4230977326  -5.8856585E-06   1.5150505E-04
     11     -110.4230993372  -1.6046086E-06   7.4855499E-05
     12     -110.4230995468  -2.0954691E-07   3.7024561E-05
     13     -110.4230996009  -5.4098194E-08   1.6120701E-05
------------------------------------------------------------

electronic energy        -1.1157704690266E+02 Eh
total energy             -1.1042309960088E+02 Eh

 total:                                   0.530 sec
 - repulsion                              0.000 sec (  0%)
 - dispersion                             0.003 sec (  0%)
 - coulomb                                0.001 sec (  0%)
 - hamiltonian                            0.011 sec (  2%)
 - scc                                    0.514 sec ( 97%)

      ----------------------------------------------------------- 
     |                   =====================                   |
     |                        A N C O P T                        |
     |                   =====================                   |
     |               Approximate Normal Coordinate               |
     |                Rational Function Optimizer                |
      ----------------------------------------------------------- 
      ----------------------------------------------------------- 
     |                   =====================                   |
     |                        A N C O P T                        |
     |                   =====================                   |
     |               Approximate Normal Coordinate               |
     |                Rational Function Optimizer                |
      ----------------------------------------------------------- 

[...]
    21   6 C       30   1 H                                       1.0777045
    19   6 C       31   1 H                                       1.0786055
    24  16 S       32   8 O                                       1.4480497
    33   8 O       34   6 C                                       1.4109499
    35  16 S       36   8 O                                       1.4462116
    37   8 O       38   6 C                                       1.4002636
    25  16 S       39   8 O                                       1.4510498
    40   8 O       41   6 C                                       1.4035370
    22   8 O       42   6 C                                       1.4152874
    23   8 O       43   6 C                                       1.4085463
    41   6 C       44   1 H                                       1.0888964
    41   6 C       45   1 H                                       1.0951324
    41   6 C       46   1 H                                       1.0953844
    38   6 C       47   1 H                                       1.0899503
    38   6 C       48   1 H                                       1.0956176
    38   6 C       49   1 H                                       1.0948200
    43   6 C       50   1 H                                       1.0895240
    43   6 C       51   1 H                                       1.0945037
    43   6 C       52   1 H                                       1.0941747
    42   6 C       53   1 H                                       1.0884496
    42   6 C       54   1 H                                       1.0934103
    42   6 C       55   1 H                                       1.0919437
    34   6 C       56   1 H                                       1.0896098
    34   6 C       57   1 H                                       1.0945775
    34   6 C       58   1 H                                       1.0922284
    59   6 C       60   6 C                                       1.3818023
    60   6 C       61   6 C                                       1.4226122
    61   6 C       62   6 C                                       1.4342680
    62   6 C       63   6 C                                       1.4134999
    59   6 C       64   6 C                                       1.3950050
    63   6 C       64   6 C                                       1.3598993
    61   6 C       65   6 C                                       1.4254685
    65   6 C       66   6 C                                       1.4049482
    66   6 C       67   6 C                                       1.4260386
    62   6 C       68   7 N                                       1.3333832
    67   6 C       68   7 N                                       1.3272464
    65   6 C       69   6 C                                       1.4298743
    69   6 C       70   6 C                                       1.4295364
    70   6 C       71   7 N                                       1.3370173
    66   6 C       72   6 C                                       1.4231669
    71   7 N       72   6 C                                       1.3356551
    72   6 C       73   6 C                                       1.4073900
    73   6 C       74   6 C                                       1.3817522
    67   6 C       75   6 C                                       1.4138606
    74   6 C       75   6 C                                       1.3797133
    69   6 C       76   6 C                                       1.4164055
    76   6 C       77   6 C                                       1.3818104
    77   6 C       78   6 C                                       1.3954866
    70   6 C       79   6 C                                       1.4126261
    78   6 C       79   6 C                                       1.3651294
    76   6 C       80   8 O                                       1.3544467
    60   6 C       81   8 O                                       1.3525473
    63   6 C       84   1 H                                       1.0779391
    59   6 C       85   1 H                                       1.0783872
Note: The following floating-point exceptions are signalling: IEEE_UNDERFLOW_FLAG
normal termination of xtb
    75   6 C       86   1 H                                       1.0774361
    73   6 C       87   1 H                                       1.0783750
    79   6 C       88   1 H                                       1.0763824 (min)
    77   6 C       89   1 H                                       1.0791452
    82  16 S       90   8 O                                       1.4517514
    91   8 O       92   6 C                                       1.4029619
    93  16 S       94   8 O                                       1.4477924
    95   8 O       96   6 C                                       1.4070598
    83  16 S       97   8 O                                       1.4535661 (max)
    98   8 O       99   6 C                                       1.4039300
    80   8 O      100   6 C                                       1.4092190
    81   8 O      101   6 C                                       1.4087420
    99   6 C      102   1 H                                       1.0888913
    99   6 C      103   1 H                                       1.0949289
    99   6 C      104   1 H                                       1.0956753
    96   6 C      105   1 H                                       1.0901825
    96   6 C      106   1 H                                       1.0937464
    96   6 C      107   1 H                                       1.0953629
   101   6 C      108   1 H                                       1.0891449
   101   6 C      109   1 H                                       1.0934979
   101   6 C      110   1 H                                       1.0942552
   100   6 C      111   1 H                                       1.0889859
   100   6 C      112   1 H                                       1.0940863
   100   6 C      113   1 H                                       1.0939727
    92   6 C      114   1 H                                       1.0894187
    92   6 C      115   1 H                                       1.0947360
    92   6 C      116   1 H                                       1.0948831

 * 5 distinct bonds (by element types)

   Z      Z             #   av. dist./Å        max./Å        min./Å
   1 H    6 C          42     1.0884858     1.0956753     1.0763824
   6 C    6 C          42     1.4053216     1.4342680     1.3598993
   6 C    7 N           8     1.3318933     1.3370173     1.3271692
   6 C    8 O          14     1.3929706     1.4152874     1.3525473
   8 O   16 S           6     1.4497369     1.4535661     1.4462116


optimized geometry written to: xtbopt.mol


           -------------------------------------------------
          | TOTAL ENERGY             -220.476629538860 Eh   |
          | GRADIENT NORM               0.000221391136 Eh/α |
           -------------------------------------------------

------------------------------------------------------------------------
 * finished run on 2025/03/04 at 12:43:19.844     
------------------------------------------------------------------------
 total:
 * wall-time:     0 d,  0 h,  1 min, 18.977 sec
 *  cpu-time:     0 d,  0 h,  3 min, 59.798 sec
 * ratio c/w:     3.036 speedup
 SCF:
 * wall-time:     0 d,  0 h,  0 min,  2.319 sec
 *  cpu-time:     0 d,  0 h,  0 min,  8.231 sec
 * ratio c/w:     3.549 speedup
 ANC optimizer:
 * wall-time:     0 d,  0 h,  1 min, 16.652 sec
 *  cpu-time:     0 d,  0 h,  3 min, 51.563 sec
 * ratio c/w:     3.021 speedup

      -----------------------------------------------------------      
     |                   =====================                   |     
     |                           x T B                           |     
     |                   =====================                   |     
     |                         S. Grimme                         |     
     |          Mulliken Center for Theoretical Chemistry        |     
     |                    University of Bonn                     |     
      -----------------------------------------------------------      

   * xtb version 6.7.1 (edcfbbe) compiled by 'runner@Mac-1732539442253.local' on 2024-11-25

   xtb is free software: you can redistribute it and/or modify it under
   the terms of the GNU Lesser General Public License as published by
   the Free Software Foundation, either version 3 of the License, or
   (at your option) any later version.
   
   xtb is distributed in the hope that it will be useful,
   but WITHOUT ANY WARRANTY; without even the implied warranty of
   MERCHANTABILITY or FITNESS FOR A PARTICULAR PURPOSE.  See the
   GNU Lesser General Public License for more details.
   
   Cite this work as:
   * C. Bannwarth, E. Caldeweyher, S. Ehlert, A. Hansen, P. Pracht,
     J. Seibert, S. Spicher, S. Grimme, WIREs Comput. Mol. Sci., 2020, 11,
     e01493. DOI: 10.1002/wcms.1493
   
   for GFN2-xTB:
   * C. Bannwarth, S. Ehlert and S. Grimme., J. Chem. Theory Comput., 2019,
     15, 1652-1671. DOI: 10.1021/acs.jctc.8b01176
   for GFN1-xTB:
   * S. Grimme, C. Bannwarth, P. Shushkov, J. Chem. Theory Comput., 2017,
     13, 1989-2009. DOI: 10.1021/acs.jctc.7b00118
   for GFN0-xTB:
   * P. Pracht, E. Caldeweyher, S. Ehlert, S. Grimme, ChemRxiv, 2019, preprint.
     DOI: 10.26434/chemrxiv.8326202.v1
   for GFN-FF:
   * S. Spicher and S. Grimme, Angew. Chem. Int. Ed., 2020, 59, 15665-15673.
     DOI: 10.1002/anie.202004239
   
   for ALPB and GBSA implicit solvation:
   * S. Ehlert, M. Stahn, S. Spicher, S. Grimme, J. Chem. Theory Comput.,
     2021, 17, 4250-4261. DOI: 10.1021/acs.jctc.1c00471
   
   for ddCOSMO and CPCM-X implicit solvation:
   * M. Stahn, S. Ehlert, S. Grimme, J. Phys. Chem. A,
     2023, XX, XXXX-XXXX. DOI: 10.1021/acs.jpca.3c04382
   
   for DFT-D4:
   * E. Caldeweyher, C. Bannwarth and S. Grimme, J. Chem. Phys., 2017,
     147, 034112. DOI: 10.1063/1.4993215
   * E. Caldeweyher, S. Ehlert, A. Hansen, H. Neugebauer, S. Spicher,
     C. Bannwarth and S. Grimme, J. Chem. Phys., 2019, 150, 154122.
     DOI: 10.1063/1.5090222
   * E. Caldeweyher, J.-M. Mewes, S. Ehlert and S. Grimme, Phys. Chem. Chem. Phys.
     2020, 22, 8499-8512. DOI: 10.1039/D0CP00502A
   
   for sTDA-xTB:
   * S. Grimme and C. Bannwarth, J. Chem. Phys., 2016, 145, 054103.
     DOI: 10.1063/1.4959605
   
   in the mass-spec context:
   * V. Asgeirsson, C. Bauer and S. Grimme, Chem. Sci., 2017, 8, 4879.
     DOI: 10.1039/c7sc00601b
   * J. Koopman and S. Grimme, ACS Omega 2019, 4, 12, 15120-15133.
     DOI: 10.1021/acsomega.9b02011
   
   for metadynamics refer to:
   * S. Grimme, J. Chem. Theory Comput., 2019, 155, 2847-2862
     DOI: 10.1021/acs.jctc.9b00143
   
   for SPH calculations refer to:
   * S. Spicher and S. Grimme, J. Chem. Theory Comput., 2021, 17, 1701-1714
     DOI: 10.1021/acs.jctc.0c01306
   
   for ONIOM refer to:
   * C. Plett, A. Katbashev, S. Ehlert, S. Grimme, M. Bursch,
     Phys. Chem. Chem. Phys., 2023, 25, 17860-17868. DOI: 10.1039/D3CP02178E
   
   for DIPRO refer to:
   * J. Kohn, N. Gildemeister, S. Grimme, D. Fazzi, A. Hansen,
     J. Chem. Phys., 2023, just accepted.
   
   for PTB refer to:
   * S. Grimme, M. Mueller, A. Hansen, J. Chem. Phys., 2023, 158, 124111.
     DOI: 10.1063/5.0137838
   
   with help from (in alphabetical order)
   P. Atkinson, C. Bannwarth, F. Bohle, G. Brandenburg, E. Caldeweyher
   M. Checinski, S. Dohm, S. Ehlert, S. Ehrlich, I. Gerasimov, C. Hölzer
   A. Katbashev, J. Kohn, J. Koopman, C. Lavigne, S. Lehtola, F. März, M. Müller,
   F. Musil, H. Neugebauer, J. Pisarek, C. Plett, P. Pracht, F. Pultar,
   J. Seibert, P. Shushkov, S. Spicher, M. Stahn, M. Steiner, T. Strunk,
   J. Stückrath, T. Rose, and J. Unsleber
   
 * started run on 2025/03/04 at 12:43:19.875     
   ID    Z sym.   atoms
    1    6 C      1-9, 11, 12, 14-21, 34, 38, 41-43, 59-67, 69, 70, 72-79,
                  92, 96, 99-101
    2    7 N      10, 13, 68, 71
    3    8 O      22, 23, 32, 33, 36, 37, 39, 40, 80, 81, 90, 91, 94, 95, 97,
                  98
    4   16 S      24, 25, 35, 82, 83, 93
    5    1 H      26-31, 44-58, 84-89, 102-116

           -------------------------------------------------
          |                Calculation Setup                |
           -------------------------------------------------

          program call               : xtb opt_dimer.mol --dipro 0.3 --chrg 0 --uhf 2 --spinpol --tblite
          coordinate file            : opt_dimer.mol
          omp threads                :                     8


molecular fragmentation (1/2 indicates fragments):
111111111111111111111111111111111111111111111111111111111122222222222222
22222222222222222222222222222222222222222222
# atoms in fragment 1/2:    58    58
 fragment masses (1/2) :      561.63      561.63
CMA distance (Bohr)    :   8.800
constraining FC (au)   :  0.0500
Wavefunction read from restart file
           -------------------------------------------------
          |                    D I P R O                    |
           -------------------------------------------------
Calculation for dimer 
--------------------- 
  
charge of dimer :   0.
unpaired e- of dimer :  2
repulsion energy          2.5236752982398E+00 Eh
dispersion energy         1.4683350883221E-02 Eh
number of electrons       3.8600000000000E+02 e
integral cutoff           1.8403572253217E+01 bohr

------------------------------------------------------------
  cycle        total energy    energy error   density error
------------------------------------------------------------
      1     -219.5683004388  -2.2210666E+02   2.1981835E-01
      2     -220.3231241781  -7.5482374E-01   1.0519081E-01
      3     -220.2584518821   6.4672296E-02   5.3873204E-02
      4     -220.3624545230  -1.0400264E-01   2.9599359E-02
      5     -220.4366874818  -7.4232959E-02   1.4376073E-02
      6     -220.4584465453  -2.1759064E-02   8.9216151E-03
      7     -220.4715812141  -1.3134669E-02   3.6236567E-03
      8     -220.4722253235  -6.4410945E-04   2.0054442E-03
      9     -220.4726003340  -3.7501046E-04   1.1241907E-03
     10     -220.4727042715  -1.0393748E-04   5.6552238E-04
     11     -220.4727442836  -4.0012142E-05   2.1338488E-04
     12     -220.4727471534  -2.8698249E-06   1.1670550E-04
     13     -220.4727477911  -6.3768749E-07   5.6900925E-05
     14     -220.4727479925  -2.0133862E-07   3.0202338E-05
     15     -220.4727480195  -2.7041665E-08   1.6157127E-05
------------------------------------------------------------

electronic energy        -2.2301110666863E+02 Eh
total energy             -2.2047274801951E+02 Eh

 total:                                   1.170 sec
 - repulsion                              0.000 sec (  0%)
 - dispersion                             0.004 sec (  0%)
 - coulomb                                0.001 sec (  0%)
 - hamiltonian                            0.006 sec (  0%)
 - scc                                    1.158 sec ( 98%)

Found 2 fragments!
Fragment 1:  1-58
Fragment 2:  59-116

[Info] Fragment spin read from .UHFfrag
Calculation for fragment 1
 ------------------------------
   
charge of fragment :   0.
unpaired e- of fragment :  1
------------------------------------------------------------
  cycle        total energy    energy error   density error
------------------------------------------------------------
      1     -109.7488814931  -1.1101004E+02   2.1959342E-01
      2     -110.1394063729  -3.9052488E-01   1.0266127E-01
      3     -110.1278619772   1.1544396E-02   5.0725914E-02
      4     -110.1785586205  -5.0696643E-02   2.6060307E-02
      5     -110.2020325182  -2.3473898E-02   1.0266794E-02
      6     -110.2047379360  -2.7054178E-03   5.0970551E-03
      7     -110.2054964833  -7.5854733E-04   2.8210169E-03
      8     -110.2058387633  -3.4227994E-04   1.2970742E-03
      9     -110.2058551188  -1.6355534E-05   8.0985663E-04
     10     -110.2058848725  -2.9753742E-05   2.9113449E-04
     11     -110.2058899423  -5.0697330E-06   1.3262570E-04
     12     -110.2058901930  -2.5073469E-07   7.0865513E-05
     13     -110.2058902227  -2.9737237E-08   2.8726888E-05
     14     -110.2058902339  -1.1166776E-08   1.6506789E-05
------------------------------------------------------------

 total:                                   0.338 sec
Calculation for fragment 2
 ------------------------------
   
charge of fragment :   0.
unpaired e- of fragment :  1
------------------------------------------------------------
  cycle        total energy    energy error   density error
------------------------------------------------------------
      1     -109.7476863876  -1.1101208E+02   2.1999303E-01
      2     -110.1380266633  -3.9034028E-01   1.0473933E-01
      3     -110.1300548751   7.9717882E-03   5.1222201E-02
      4     -110.1760872307  -4.6032356E-02   2.6997667E-02
      5     -110.2022608332  -2.6173603E-02   1.0062754E-02
      6     -110.2047627093  -2.5018760E-03   5.2217414E-03
      7     -110.2055052087  -7.4249945E-04   2.7184882E-03
      8     -110.2058133688  -3.0816005E-04   1.1425535E-03
      9     -110.2058027962   1.0572572E-05   7.1995823E-04
     10     -110.2058283152  -2.5518980E-05   2.7076933E-04
     11     -110.2058326363  -4.3211391E-06   1.3767752E-04
     12     -110.2058330360  -3.9963655E-07   7.0634139E-05
     13     -110.2058330671  -3.1168327E-08   2.9467648E-05
     14     -110.2058330776  -1.0421658E-08   1.5415612E-05
------------------------------------------------------------

 total:                                   0.377 sec
   
   ::::::::::::::::::::::::::::::::::::::::::::::
   ::     D I P R O      C O U P L I N G S     ::
   ::::::::::::::::::::::::::::::::::::::::::::::
   
energy threshhold for near-degenerate orbitals near HOMO and LUMO considered for DIPRO:  0.300 eV
no. of orbitals within energy window of frag 1         2
no. of orbitals within energy window of frag 2         2
   
  Fragment 1 SOMO   Fragment 2 SOMO 
--------------------------------------
E_mon(orb) frag1 frag2             -10.280   -10.384 eV
J(AB):                0.003 eV
S(AB):            -0.00012781 Eh
|J(AB,eff)|:            0.001 eV
   
  Fragment 1 SOMO   Fragment 2 LUMO 
--------------------------------------
E_mon(orb) frag1 frag2             -10.280   -10.013 eV
J(AB):                0.020 eV
S(AB):            -0.00060662 Eh
|J(AB,eff)|:            0.014 eV
   
  Fragment 1 LUMO   Fragment 2 SOMO 
--------------------------------------
E_mon(orb) frag1 frag2              -9.940   -10.384 eV
J(AB):                0.048 eV
S(AB):            -0.00205686 Eh
|J(AB,eff)|:            0.027 eV
   
  Fragment 1 LUMO   Fragment 2 LUMO 
--------------------------------------
E_mon(orb) frag1 frag2              -9.940   -10.013 eV
J(AB):                0.066 eV
S(AB):            -0.00253592 Eh
|J(AB,eff)|:            0.041 eV
   
..............................................................................
:  total |J(AB,eff)| for hole transport (occ. MOs) :               0.001 eV  :
:  total |J(AB,eff)| for charge transport (unocc. MOs) :           0.041 eV  :
:  total |J(AB,eff)| for charge transfer (CT) :                    0.030 eV  :
..............................................................................
  
 Please remember, DIPRO is not available for restart!
   
normal termination of dipro
----------------------------------------------------------
 * finished run on 2025/03/04 at 12:43:21.773     
----------------------------------------------------------
 dipro:
 * wall-time:     0 d,  0 h,  0 min,  1.895 sec
 *  cpu-time:     0 d,  0 h,  0 min,  6.472 sec
 * ratio c/w:     3.416 speedup
Reorganization energy (electron): 0.2215320815450458 eV
Reorganization energy (hole): 0.3136079575063634 eV
Electron Transfer integral J: 0.041 eV
Hole Transfer integral J: 0.001 eV
