116
 energy: -220.386561062787 gnorm: 0.244942380567 xtb: 6.7.1 (edcfbbe)
C           -0.37080000000000        2.13130000000000       -0.21380000000000
C           -0.97040000000000        1.04260000000000        0.40730000000000
C           -0.62570000000000        0.76110000000000        1.77530000000000
C            0.50860000000000        1.40750000000000        2.34560000000000
C            1.07300000000000        2.49430000000000        1.65870000000000
C            0.62880000000000        2.85330000000000        0.41760000000000
C           -1.28140000000000       -0.24090000000000        2.55920000000000
C           -0.55490000000000       -0.76740000000000        3.63210000000000
C            0.64310000000000       -0.12520000000000        4.06190000000000
N            1.11620000000000        0.99260000000000        3.47950000000000
C           -2.60300000000000       -0.76110000000000        2.36950000000000
C           -2.90990000000000       -2.01580000000000        2.97390000000000
N           -2.12370000000000       -2.60850000000000        3.90050000000000
C           -1.02300000000000       -1.94060000000000        4.29250000000000
C           -0.28040000000000       -2.42940000000000        5.37240000000000
C            0.85820000000000       -1.78950000000000        5.80220000000000
C            1.32200000000000       -0.66120000000000        5.16280000000000
C           -3.66070000000000       -0.02490000000000        1.72990000000000
C           -4.85640000000000       -0.68240000000000        1.47590000000000
C           -5.07980000000000       -1.97160000000000        1.92480000000000
C           -4.14240000000000       -2.62250000000000        2.67720000000000
O           -3.48530000000000        1.33170000000000        1.47610000000000
O           -1.81360000000000        0.15860000000000       -0.25910000000000
S            1.39670000000000        4.25760000000000       -0.42380000000000
S           -6.63960000000000       -2.79400000000000        1.52660000000000
H            1.87580000000000        3.04910000000000        2.11230000000000
H           -0.65070000000000        2.41380000000000       -1.21140000000000
H            2.22070000000000       -0.18140000000000        5.50540000000000
H           -0.59380000000000       -3.33360000000000        5.86360000000000
H           -4.34640000000000       -3.60670000000000        3.05960000000000
H           -5.64470000000000       -0.20120000000000        0.92760000000000
O            2.08630000000000        4.88320000000000        0.77090000000000
O            0.01130000000000        5.20260000000000       -0.54170000000000
C           -0.39270000000000        5.70450000000000        0.68690000000000
S            1.74980000000000       -2.46940000000000        7.22020000000000
O            1.36070000000000       -3.92150000000000        7.04900000000000
O            3.26930000000000       -2.43680000000000        6.50420000000000
C            3.40450000000000       -3.41250000000000        5.52490000000000
O           -7.00780000000000       -1.99520000000000        0.29260000000000
O           -5.96080000000000       -4.17060000000000        0.84240000000000
C           -5.31610000000000       -3.89600000000000       -0.35610000000000
C           -4.54960000000000        1.95570000000000        0.79620000000000
C           -2.09560000000000        0.48770000000000       -1.59650000000000
H           -4.97710000000000       -4.83660000000000       -0.79900000000000
H           -4.45810000000000       -3.24270000000000       -0.17450000000000
H           -6.02510000000000       -3.40100000000000       -1.02750000000000
H            4.42990000000000       -3.40160000000000        5.14530000000000
H            2.70520000000000       -3.21490000000000        4.70780000000000
H            3.18290000000000       -4.38680000000000        5.97290000000000
H           -2.78250000000000       -0.26000000000000       -1.99460000000000
H           -1.17600000000000        0.47420000000000       -2.18270000000000
H           -2.57140000000000        1.46780000000000       -1.64400000000000
H           -4.26930000000000        2.98910000000000        0.58930000000000
H           -5.44240000000000        1.94990000000000        1.42290000000000
H           -4.73500000000000        1.44440000000000       -0.14890000000000
H           -1.20950000000000        6.41480000000000        0.53220000000000
H            0.45710000000000        6.20580000000000        1.16200000000000
H           -0.73850000000000        4.88130000000000        1.31690000000000
C           -2.82980000000000        1.58300000000000        4.96900000000000
C           -2.33560000000000        0.88910000000000        6.06570000000000
C           -1.13220000000000        1.36820000000000        6.69150000000000
C           -0.34860000000000        2.35210000000000        6.02370000000000
C           -0.90760000000000        3.00920000000000        4.91710000000000
C           -2.12260000000000        2.63810000000000        4.41690000000000
C           -0.58780000000000        0.78780000000000        7.88040000000000
C            0.79110000000000        0.92300000000000        8.06650000000000
C            1.52620000000000        1.84390000000000        7.26460000000000
N            0.94040000000000        2.62060000000000        6.33280000000000
C           -1.29670000000000        0.04940000000000        8.88000000000000
C           -0.54170000000000       -0.82190000000000        9.71760000000000
N            0.81020000000000       -0.81890000000000        9.76530000000000
C            1.45310000000000        0.10990000000000        9.03150000000000
C            2.84050000000000        0.23840000000000        9.15520000000000
C            3.54550000000000        1.13630000000000        8.38710000000000
C            2.90980000000000        1.93260000000000        7.45990000000000
C           -2.69500000000000        0.24290000000000        9.15220000000000
C           -3.31770000000000       -0.63960000000000       10.02340000000000
C           -2.59760000000000       -1.60370000000000       10.70740000000000
C           -1.23710000000000       -1.68360000000000       10.58340000000000
O           -3.33780000000000        1.34580000000000        8.59870000000000
O           -2.89080000000000       -0.30170000000000        6.52380000000000
S           -2.78370000000000        3.51280000000000        2.98240000000000
S           -3.47440000000000       -2.75340000000000       11.79420000000000
H           -0.35260000000000        3.79160000000000        4.43010000000000
H           -3.74460000000000        1.27990000000000        4.49530000000000
H            3.48010000000000        2.60990000000000        6.84980000000000
H            3.37180000000000       -0.39320000000000        9.84520000000000
H           -0.68450000000000       -2.40830000000000       11.15460000000000
H           -4.37790000000000       -0.59350000000000       10.19050000000000
O           -1.83220000000000        4.68670000000000        2.96350000000000
O           -4.12120000000000        4.18780000000000        3.73860000000000
C           -3.76290000000000        5.08190000000000        4.73910000000000
S            5.33810000000000        1.25250000000000        8.59210000000000
O            5.55250000000000       -0.01820000000000        9.38620000000000
O            5.73740000000000        0.74490000000000        7.03910000000000
C            5.51920000000000       -0.61220000000000        6.85140000000000
O           -4.85580000000000       -2.63390000000000       11.18390000000000
O           -2.91650000000000       -4.16510000000000       11.07490000000000
C           -3.41900000000000       -4.33690000000000        9.79220000000000
C           -4.69000000000000        1.49240000000000        8.95560000000000
C           -4.09450000000000       -0.68060000000000        5.90750000000000
H           -3.09430000000000       -5.31030000000000        9.41380000000000
H           -3.04600000000000       -3.54360000000000        9.13840000000000
H           -4.51230000000000       -4.29930000000000        9.83850000000000
H            5.90050000000000       -0.90270000000000        5.86880000000000
H            4.44790000000000       -0.81750000000000        6.90590000000000
H            6.04290000000000       -1.16650000000000        7.63720000000000
H           -4.44740000000000       -1.59810000000000        6.37960000000000
H           -3.91740000000000       -0.87060000000000        4.85000000000000
H           -4.84170000000000        0.10250000000000        6.04080000000000
H           -5.07780000000000        2.38740000000000        8.46800000000000
H           -4.77650000000000        1.61000000000000       10.03660000000000
H           -5.25880000000000        0.62690000000000        8.61380000000000
H           -4.66290000000000        5.58520000000000        5.10300000000000
H           -3.06930000000000        5.81840000000000        4.32090000000000
H           -3.28500000000000        4.54520000000000        5.56320000000000
116
 energy: -220.426539821917 gnorm: 0.148870001952 xtb: 6.7.1 (edcfbbe)
C           -0.36651739157840        2.12111699895534       -0.21729420963405
C           -0.96972403317025        1.04376247259826        0.40782738952759
C           -0.63101390078367        0.75417884412477        1.76241893807197
C            0.50289606151807        1.40158425735271        2.34324155800285
C            1.07845676593756        2.49358660776494        1.66635025271184
C            0.62922884254821        2.84960938394013        0.42909542274399
C           -1.28702386480574       -0.23618079231794        2.55337871017256
C           -0.56119659823148       -0.76315608764072        3.62958802289366
C            0.64083191959475       -0.12393785073591        4.05538931681801
N            1.09829164680553        0.98663572183851        3.47201582712559
C           -2.61000016810858       -0.74545281030437        2.37042225002649
C           -2.90808077115713       -2.00734509760363        2.97416973471972
N           -2.11662391895439       -2.59743947965610        3.88465900118812
C           -1.03024579614047       -1.93583166339223        4.29156497621419
C           -0.28989192612382       -2.43064882315015        5.37877558280194
C            0.84771176664723       -1.78177356757382        5.80699245513931
C            1.32133391069096       -0.65190533415245        5.16866518574810
C           -3.66180843291796       -0.02808508125238        1.72950224087535
C           -4.85778490696834       -0.67638790502091        1.48428606530353
C           -5.07222911904557       -1.97481870818689        1.93072776605319
C           -4.13989952993285       -2.62998200780574        2.68360187236289
O           -3.48259413676891        1.31071005520956        1.47018703528177
O           -1.81197847116157        0.17731567155445       -0.24652214559770
S            1.40110985181967        4.27022318499163       -0.40057657098692
S           -6.63796033348513       -2.78724993870935        1.50043509358408
H            1.88616364334541        3.04363695883493        2.12010964686832
H           -0.64601578599909        2.41396704836139       -1.21523365859769
H            2.22671434289438       -0.17280489569608        5.50340219667880
H           -0.59929385979086       -3.34032512405913        5.86639562871351
H           -4.34086072732563       -3.61303110178925        3.07511969271313
H           -5.65186205210176       -0.20588188117291        0.93038481744844
O            2.14390709645654        4.88892759415747        0.73198750151475
O            0.01361847690537        5.19738327517437       -0.55443458242263
C           -0.39691243261712        5.71413449182413        0.67840007770944
S            1.74361068684338       -2.49560191598851        7.21792824077684
O            1.33488009065040       -3.92174649630054        7.10465343621015
O            3.25735555865048       -2.44248190833241        6.50001238605300
C            3.40939535261604       -3.42055892110664        5.51630288773276
O           -7.05535246773520       -1.98045040840176        0.31735363166411
O           -5.95552806147235       -4.16989483545266        0.84438530652480
C           -5.31026277697017       -3.90425681912207       -0.36434060635579
C           -4.54487894169803        1.95299123503469        0.79688715000348
C           -2.09570657871601        0.48886322325835       -1.59104832621251
H           -4.98167675779939       -4.84873950732537       -0.79388569032492
H           -4.44692402169737       -3.25249960656429       -0.19412490999550
H           -6.00934969998113       -3.40564079647289       -1.04314002735673
H            4.43622707930788       -3.39312000763418        5.15475049206608
H            2.71739393161060       -3.22921845146858        4.69057451234045
H            3.18925007781534       -4.39942807952704        5.95080462369805
H           -2.78040134061101       -0.27001127831830       -1.96993652410682
H           -1.18180621879861        0.47308770459706       -2.19132753076165
H           -2.57484361160859        1.46872508527358       -1.66141145034907
H           -4.24526423012645        2.98279025835280        0.60368105836417
H           -5.44551717801042        1.95842277685244        1.41633631134879
H           -4.74668393317702        1.45391767862660       -0.15372089820573
H           -1.20718634910473        6.42067306357067        0.51181284884688
H            0.44253607174959        6.21714165477871        1.16650652668321
H           -0.74433350714140        4.90521802249026        1.32234125022594
C           -2.82478895517359        1.56969243402061        4.96389970823166
C           -2.33373004501486        0.88706049813960        6.06223287830676
C           -1.13711406828319        1.34951697830962        6.68402387747834
C           -0.34828019909162        2.33932256923047        6.02227682415704
C           -0.89887729601200        3.01044481201295        4.91421381294756
C           -2.11407554209266        2.63682650967683        4.42185129235999
C           -0.59647292024882        0.78305708218945        7.87655755131834
C            0.78447703301801        0.91894998563567        8.06167148888405
C            1.51969550534399        1.83926896473611        7.25671038787620
N            0.92625906643078        2.61081193917102        6.34194620462637
C           -1.30699011315197        0.06230579145729        8.88248897209034
C           -0.54468717842299       -0.81487463820960        9.71417717287465
N            0.79765693610187       -0.81440612627728        9.74901904489273
C            1.44556664497076        0.10735950792066        9.02921165436180
C            2.83861408496791        0.23496417152036        9.16053723291433
C            3.53791576775748        1.14182625607656        8.39198718516295
C            2.90910098622372        1.94274576750095        7.45839288590759
C           -2.69373818753808        0.24233139894041        9.15359360785069
C           -3.31559810442298       -0.62898404277563       10.02812893937141
C           -2.58739545598742       -1.60020221666679       10.70583316053332
C           -1.22830753457314       -1.68504943341444       10.58789548324973
O           -3.33026373271303        1.32549178871929        8.59969071402954
O           -2.88870953037502       -0.28092703228587        6.52477235455273
S           -2.77709819157275        3.52955610153682        2.99464071218024
S           -3.49240857191209       -2.75722606276024       11.77502638835985
H           -0.34168779806404        3.79514755033778        4.42971576773958
H           -3.74802100841622        1.27922575779307        4.49192707509859
H            3.47852470016767        2.62247411504646        6.84613186872380
H            3.37230137876698       -0.39669341736169        9.85225767776243
H           -0.66923797189917       -2.40488131947080       11.16182548553598
H           -4.37860571156838       -0.59622489796545       10.19820418810949
O           -1.83437236081613        4.67799149921473        2.93481516857154
O           -4.12656869227396        4.17101624690245        3.75348321030631
C           -3.77286908402487        5.08561893330697        4.74863117262094
S            5.34236784711567        1.22944362857191        8.59892009991028
O            5.58886514391994        0.01704591668581        9.42775288714672
O            5.74159759685838        0.75641080387032        7.03993504903059
C            5.52852714864637       -0.60930403837471        6.84256630905075
O           -4.87546763414074       -2.61762852220039       11.23367811237273
O           -2.91143030137457       -4.16205262481769       11.07212675357925
C           -3.41648445650547       -4.34658246321123        9.78403852284395
C           -4.68488770373840        1.48898236972283        8.95380392181343
C           -4.09359504728948       -0.67598870116293        5.91303915360691
H           -3.08771926862807       -5.31897922030812        9.42235779217348
H           -3.04741542923826       -3.55897054017622        9.11894735537435
H           -4.51009138443729       -4.30759202822308        9.81780471456256
H            5.91359621890408       -0.88599890844861        5.86311987097289
H            4.46117903376454       -0.82994239676893        6.89453019350218
H            6.04244772865641       -1.17917013197439        7.62232782753056
H           -4.42608460968962       -1.59396742717067        6.39654655616881
H           -3.93572943703030       -0.87652436879309        4.85173369666903
H           -4.85618851544427        0.09689351439659        6.03878051693358
H           -5.05173780805985        2.38815648290974        8.45840957398082
H           -4.78679667302569        1.61271946032838       10.03530333688723
H           -5.27368409234083        0.63129462792017        8.61865961701587
H           -4.67590848057986        5.58429129127021        5.09712750270695
H           -3.07567027657481        5.82139132597141        4.33485699260058
H           -3.29018279245875        4.56381839049177        5.58083470393525
116
 energy: -220.446853169604 gnorm: 0.026921095684 xtb: 6.7.1 (edcfbbe)
C           -0.35887047246940        2.12061911500279       -0.22006926651066
C           -0.96428336559155        1.04708432230877        0.40419826999114
C           -0.63468180849846        0.74838384927959        1.74956493872779
C            0.49992814655780        1.39588750807964        2.34194852519355
C            1.08193699784353        2.49853714296290        1.67726925633731
C            0.62792488362022        2.85598890607645        0.44423474597757
C           -1.29232315415547       -0.23138931232313        2.54965025524433
C           -0.56889303889747       -0.75875442919684        3.63117201805246
C            0.63538662099464       -0.12079925748048        4.05582667912726
N            1.08030712518152        0.98000705085190        3.46661837828097
C           -2.61917659363957       -0.72958599891275        2.37157859260397
C           -2.91057354681025       -1.99874117375712        2.97542513116198
N           -2.11404192344575       -2.58534093630984        3.87015272783670
C           -1.03909849132749       -1.93230290696122        4.29159209015507
C           -0.29732608889093       -2.43412115756653        5.38255901283562
C            0.83877931439522       -1.77839047880150        5.80854008410016
C            1.32031861974391       -0.64643908736563        5.17686348994816
C           -3.66773572699555       -0.02811286758086        1.73082867041495
C           -4.86049487414076       -0.67625726770429        1.48587547502777
C           -5.06507790742701       -1.98356531182721        1.92926081515321
C           -4.14112187743451       -2.63876885841872        2.68832702705821
O           -3.48406259458966        1.29082267341897        1.46226202643893
O           -1.80709228349286        0.20064739755095       -0.23811908199007
S            1.41917624724597        4.28735688208257       -0.38329112292269
S           -6.64836136390560       -2.78003089560659        1.47400920946047
H            1.89573090546625        3.03864224721096        2.13259322696929
H           -0.63037655060603        2.42245209018084       -1.21858686574195
H            2.23011387454608       -0.16704045991369        5.50267554896438
H           -0.60620304898379       -3.34522211995423        5.86932700353958
H           -4.33439234881766       -3.61943934987809        3.09005517600913
H           -5.66459743357917       -0.21779100852136        0.93431452055395
O            2.18689552161897        4.88198732002528        0.69435887707683
O            0.02625376880148        5.18589395081336       -0.56751666890105
C           -0.39825560783864        5.72508097217877        0.66564677708146
S            1.73347635421960       -2.52685677078736        7.22462964914606
O            1.30865661233213       -3.91281695843411        7.15402650853754
O            3.23620960672834       -2.44958614328323        6.49700567916244
C            3.41142480944802       -3.42919396119910        5.50617012195351
O           -7.08893733435427       -1.97028239564651        0.34656807135084
O           -5.95160294079793       -4.16148194207774        0.84872042826518
C           -5.30272551783063       -3.91193192961882       -0.37199166486769
C           -4.54015986843378        1.95503198583378        0.79615659139094
C           -2.09843934285071        0.48780741275062       -1.58849907447815
H           -4.98840923025375       -4.86403239626117       -0.78755775933494
H           -4.43089896555988       -3.26639959650753       -0.21355650693582
H           -5.99271674147695       -3.41032288174543       -1.05823062884928
H            4.44289495019952       -3.38430447258129        5.16779454221247
H            2.73215954183598       -3.24241592738147        4.66776776327424
H            3.19264286922726       -4.41344760091866        5.92712362477180
H           -2.78050088369990       -0.28604630054953       -1.93970468178383
H           -1.19017259434489        0.46849919806675       -2.20068442060231
H           -2.58097758525996        1.46639194645906       -1.68249662504005
H           -4.21380408487268        2.97876419819167        0.62036038160324
H           -5.44582997903384        1.97092585250859        1.41100684458025
H           -4.75869520961565        1.46884662320844       -0.15958377044467
H           -1.20226730530634        6.42929968250048        0.47911551111301
H            0.43268728250152        6.23304389321749        1.16175318491668
H           -0.75195181715758        4.93114082771962        1.32204393696866
C           -2.82156899873452        1.56147104653974        4.95570570450586
C           -2.33236230540638        0.88230689643383        6.05317051233712
C           -1.14044184464439        1.32929676390956        6.67398601460768
C           -0.34528979827844        2.32612141439816        6.01967108334795
C           -0.89055529728672        3.01313767156269        4.91203932896162
C           -2.10648455098081        2.63874169185285        4.42750505371844
C           -0.60177932213595        0.77642495954685        7.87194374396529
C            0.78220930135828        0.91302376697200        8.05690391555005
C            1.51718185267846        1.83641797411901        7.25263316034200
N            0.91477238732463        2.59943414967940        6.35110341979670
C           -1.31751175610595        0.07372119218133        8.88531769205009
C           -0.54823058738225       -0.80842168599361        9.71413944304771
N            0.78438767126762       -0.80915720210886        9.73582525501161
C            1.44084452460540        0.10224933169937        9.02723834494730
C            2.84010285411002        0.22691083392428        9.16090503557798
C            3.53382572200789        1.13983568248893        8.39119560349755
C            2.91321386803306        1.94943824026086        7.45798879287493
C           -2.69485065044643        0.24352317920647        9.15812555638187
C           -3.31505370611179       -0.62691027531249       10.03084594894944
C           -2.57895944440090       -1.60510536058320       10.70119176025437
C           -1.22140010811554       -1.68913404488275       10.59443124548825
O           -3.32642093561988        1.30485533603434        8.60296418654295
O           -2.89030230014615       -0.25989288582527        6.52109009940438
S           -2.77282697684619        3.54658106399660        3.00300815699391
S           -3.51766025057870       -2.76233908036471       11.76561501666022
H           -0.32917649508320        3.79827387627553        4.43253282202090
H           -3.74913705279918        1.28554698205998        4.48121872415820
H            3.47890503644696        2.63396950949506        6.84636121047326
H            3.37422745826363       -0.40039425964429        9.85754248446072
H           -0.65295251463012       -2.40114314002548       11.16878728767075
H           -4.37775993843863       -0.60549608278232       10.21254338236027
O           -1.84282391023613        4.65941981623116        2.91148381372958
O           -4.12918721390578        4.14765461838655        3.77668481932062
C           -3.78421640519126        5.08882231567538        4.76338233902466
S            5.35548988765112        1.21080989865216        8.61537961290671
O            5.60951772832555        0.05622884064439        9.45892983797851
O            5.74093847548542        0.77066143658532        7.05066991955767
C            5.53702046386430       -0.60438136115624        6.83372346766812
O           -4.88034816302460       -2.59959107292695       11.27518118852610
O           -2.90830861700726       -4.15025486437471       11.07024113181110
C           -3.41211612392473       -4.35435096649869        9.77453434050118
C           -4.68235567941668        1.48992832275336        8.95014189560001
C           -4.09687378696097       -0.67545841143868        5.92130848476461
H           -3.07955870741764       -5.32953091728290        9.43374174640380
H           -3.04334662810705       -3.57627324444978        9.09622337679378
H           -4.50629949850804       -4.31489112040108        9.79672883243505
H            5.93219426114221       -0.86111183902631        5.85572312710539
H            4.47288229089488       -0.84084327275210        6.87707215106863
H            6.04613671757863       -1.18736404527385        7.60689506630627
H           -4.40211600678492       -1.59286174233165        6.42179167080286
H           -3.95758680817167       -0.88607600718614        4.85717878752003
H           -4.87351301633627        0.08719735578185        6.04093517510216
H           -5.02088595017580        2.39357599144819        8.44404176478899
H           -4.79662332572198        1.61934584307847       10.03160692196347
H           -5.29035810677690        0.64053644803302        8.62165215719785
H           -4.69318939584197        5.58374154409087        5.09092079938736
H           -3.08597623459907        5.82273917117682        4.34768959036518
H           -3.29981663887846        4.58510882403928        5.60692474524449
116
 energy: -220.452974457072 gnorm: 0.017501673987 xtb: 6.7.1 (edcfbbe)
C           -0.34807137588947        2.13175087992782       -0.21433638693006
C           -0.96139087877915        1.05825658924363        0.40512663727791
C           -0.63631707184800        0.75418225652941        1.75232914766651
C            0.49951911140742        1.39846653232680        2.34788087345900
C            1.08746193335013        2.50150987583459        1.68779237905403
C            0.63667686573255        2.86342405494498        0.45497280470830
C           -1.29731515054334       -0.22673157484341        2.55138930340530
C           -0.57718295756401       -0.75506842811904        3.63588106232152
C            0.62763530634071       -0.12031037494633        4.06267373724265
N            1.07574397194037        0.97893090731118        3.47231539624448
C           -2.62488621270131       -0.72697766340331        2.37013220019919
C           -2.91559492820512       -1.99685906058337        2.97315317108071
N           -2.11980362156606       -2.58365618763615        3.86682943612750
C           -1.04761812315877       -1.92957815261051        4.29411823421156
C           -0.30861401885251       -2.43216810254577        5.38653306416679
C            0.82864496070494       -1.78002238940242        5.81147156797538
C            1.31325186845667       -0.64990696030894        5.18156530596573
C           -3.67592652257379       -0.02819110630786        1.72673634117581
C           -4.86891927929777       -0.68080481440615        1.48567243766570
C           -5.06795975138062       -1.98910766317180        1.92724719380268
C           -4.14330696135581       -2.64167958785536        2.68598957252515
O           -3.48559254541543        1.28739577370075        1.45257792041496
O           -1.80921966300884        0.21576040879034       -0.23489595230408
S            1.43700423943965        4.28384138686065       -0.39663605698762
S           -6.65545105753996       -2.79036721855583        1.47556034245381
H            1.90439212305478        3.03193080580818        2.14867153906822
H           -0.60710961368144        2.43285322575038       -1.21595055261699
H            2.22282467690162       -0.16958931583796        5.50563530631082
H           -0.62011035030145       -3.34309187476455        5.87184943150849
H           -4.33029671856109       -3.62002276497513        3.09623964989179
H           -5.67835808344208       -0.22679528795350        0.93908359287340
O            2.24386572417747        4.88541497781553        0.64357910655165