Stacking distance: 5.0 Å
      -----------------------------------------------------------      
     |                   =====================                   |     
     |                           x T B                           |     
     |                   =====================                   |     
     |                         S. Grimme                         |     
     |          Mulliken Center for Theoretical Chemistry        |     
     |                    University of Bonn                     |     
      -----------------------------------------------------------      

   * xtb version 6.7.1 (edcfbbe) compiled by 'runner@Mac-1732539442253.local' on 2024-11-25

   xtb is free software: you can redistribute it and/or modify it under
   the terms of the GNU Lesser General Public License as published by
   the Free Software Foundation, either version 3 of the License, or
   (at your option) any later version.
   
   xtb is distributed in the hope that it will be useful,
   but WITHOUT ANY WARRANTY; without even the implied warranty of
   MERCHANTABILITY or FITNESS FOR A PARTICULAR PURPOSE.  See the
   GNU Lesser General Public License for more details.
   
   Cite this work as:
   * C. Bannwarth, E. Caldeweyher, S. Ehlert, A. Hansen, P. Pracht,
     J. Seibert, S. Spicher, S. Grimme, WIREs Comput. Mol. Sci., 2020, 11,
     e01493. DOI: 10.1002/wcms.1493
   
   for GFN2-xTB:
   * C. Bannwarth, S. Ehlert and S. Grimme., J. Chem. Theory Comput., 2019,
     15, 1652-1671. DOI: 10.1021/acs.jctc.8b01176
   for GFN1-xTB:
   * S. Grimme, C. Bannwarth, P. Shushkov, J. Chem. Theory Comput., 2017,
     13, 1989-2009. DOI: 10.1021/acs.jctc.7b00118
   for GFN0-xTB:
   * P. Pracht, E. Caldeweyher, S. Ehlert, S. Grimme, ChemRxiv, 2019, preprint.
     DOI: 10.26434/chemrxiv.8326202.v1
   for GFN-FF:
   * S. Spicher and S. Grimme, Angew. Chem. Int. Ed., 2020, 59, 15665-15673.
     DOI: 10.1002/anie.202004239
   
   for ALPB and GBSA implicit solvation:
   * S. Ehlert, M. Stahn, S. Spicher, S. Grimme, J. Chem. Theory Comput.,
     2021, 17, 4250-4261. DOI: 10.1021/acs.jctc.1c00471
   
   for ddCOSMO and CPCM-X implicit solvation:
   * M. Stahn, S. Ehlert, S. Grimme, J. Phys. Chem. A,
     2023, XX, XXXX-XXXX. DOI: 10.1021/acs.jpca.3c04382
   
   for DFT-D4:
   * E. Caldeweyher, C. Bannwarth and S. Grimme, J. Chem. Phys., 2017,
     147, 034112. DOI: 10.1063/1.4993215
   * E. Caldeweyher, S. Ehlert, A. Hansen, H. Neugebauer, S. Spicher,
     C. Bannwarth and S. Grimme, J. Chem. Phys., 2019, 150, 154122.
     DOI: 10.1063/1.5090222
   * E. Caldeweyher, J.-M. Mewes, S. Ehlert and S. Grimme, Phys. Chem. Chem. Phys.
     2020, 22, 8499-8512. DOI: 10.1039/D0CP00502A
   
   for sTDA-xTB:
   * S. Grimme and C. Bannwarth, J. Chem. Phys., 2016, 145, 054103.
     DOI: 10.1063/1.4959605
   
   in the mass-spec context:
   * V. Asgeirsson, C. Bauer and S. Grimme, Chem. Sci., 2017, 8, 4879.
     DOI: 10.1039/c7sc00601b
   * J. Koopman and S. Grimme, ACS Omega 2019, 4, 12, 15120-15133.
     DOI: 10.1021/acsomega.9b02011
   
   for metadynamics refer to:
   * S. Grimme, J. Chem. Theory Comput., 2019, 155, 2847-2862
     DOI: 10.1021/acs.jctc.9b00143
   
   for SPH calculations refer to:
   * S. Spicher and S. Grimme, J. Chem. Theory Comput., 2021, 17, 1701-1714
     DOI: 10.1021/acs.jctc.0c01306
   
   for ONIOM refer to:
   * C. Plett, A. Katbashev, S. Ehlert, S. Grimme, M. Bursch,
     Phys. Chem. Chem. Phys., 2023, 25, 17860-17868. DOI: 10.1039/D3CP02178E
   
   for DIPRO refer to:
   * J. Kohn, N. Gildemeister, S. Grimme, D. Fazzi, A. Hansen,
     J. Chem. Phys., 2023, just accepted.
   
   for PTB refer to:
   * S. Grimme, M. Mueller, A. Hansen, J. Chem. Phys., 2023, 158, 124111.
     DOI: 10.1063/5.0137838
   
   with help from (in alphabetical order)
   P. Atkinson, C. Bannwarth, F. Bohle, G. Brandenburg, E. Caldeweyher
   M. Checinski, S. Dohm, S. Ehlert, S. Ehrlich, I. Gerasimov, C. Hölzer
   A. Katbashev, J. Kohn, J. Koopman, C. Lavigne, S. Lehtola, F. März, M. Müller,
   F. Musil, H. Neugebauer, J. Pisarek, C. Plett, P. Pracht, F. Pultar,
   J. Seibert, P. Shushkov, S. Spicher, M. Stahn, M. Steiner, T. Strunk,
   J. Stückrath, T. Rose, and J. Unsleber
   
 * started run on 2025/03/20 at 11:39:32.374     

           -------------------------------------------------
          |                Calculation Setup                |
           -------------------------------------------------

          program call               : xtb dimer_5.00.xyz --dipro 0.3 --chrg 0 --uhf 2 --input frag.inp --spinpol --tblite
          coordinate file            : dimer_5.00.xyz
          omp threads                :                     8

########################################################################
[WARNING] Please study the warnings concerning your input carefully
-2- userdata_read: could not find 'frag.inp'
-1- set_rdcontrol: could not find 'frag.inp'
########################################################################
Wavefunction read from restart file
           -------------------------------------------------
          |                    D I P R O                    |
           -------------------------------------------------
Calculation for dimer 
--------------------- 
  
charge of dimer :   0.
unpaired e- of dimer :  2
repulsion energy          8.5639037352764E+00 Eh
dispersion energy         2.8964719634643E-02 Eh
number of electrons       6.9800000000000E+02 e
integral cutoff           1.9311100799991E+01 bohr

------------------------------------------------------------
  cycle        total energy    energy error   density error
------------------------------------------------------------
      1     -390.9069922899  -3.9949986E+02   2.1678751E-01
      2     -372.9709850311   1.7936007E+01   1.7818710E-01
      3     -251.1789442390   1.2179204E+02   2.7257231E-01
      4     -328.6152051656  -7.7436261E+01   2.0857795E-01
      5     -381.1632425095  -5.2548037E+01   1.3897797E-01
      6     -386.8951761371  -5.7319336E+00   1.0552859E-01
      7     -379.8779512055   7.0172249E+00   1.1690715E-01
      8     -391.2078038606  -1.1329853E+01   8.8895009E-02
      9     -393.9427516207  -2.7349478E+00   6.7935999E-02
     10     -394.5974345366  -6.5468292E-01   6.0000473E-02
     11     -393.8818740504   7.1556049E-01   5.9419042E-02
     12     -394.9238222453  -1.0419482E+00   4.8934606E-02
     13     -395.8751734353  -9.5135119E-01   4.0183946E-02
     14     -396.3736686246  -4.9849519E-01   3.1385454E-02
     15     -396.3885177870  -1.4849162E-02   2.6622702E-02
     16     -396.4482027429  -5.9684956E-02   2.5544545E-02
     17     -396.5412581475  -9.3055405E-02   1.8179530E-02
     18     -396.4553916665   8.5866481E-02   1.9919665E-02
     19     -396.5089065738  -5.3514907E-02   1.3650255E-02
     20     -396.5458589651  -3.6952391E-02   1.2459797E-02
     21     -396.5956310863  -4.9772121E-02   8.4958030E-03
     22     -396.5621078161   3.3523270E-02   1.0048714E-02
     23     -396.6201996704  -5.8091854E-02   4.8953752E-03
     24     -396.6202738630  -7.4192601E-05   3.6650588E-03
     25     -396.6259302065  -5.6563435E-03   2.7476624E-03
     26     -396.6280005117  -2.0703052E-03   1.3840362E-03
     27     -396.6279020634   9.8448309E-05   1.3462492E-03
     28     -396.6287344804  -8.3241701E-04   7.6297854E-04
     29     -396.6287582342  -2.3753841E-05   6.4244214E-04
     30     -396.6288732636  -1.1502941E-04   4.0941575E-04
     31     -396.6288989148  -2.5651159E-05   2.9446897E-04
     32     -396.6289019325  -3.0177039E-06   2.4486273E-04
     33     -396.6289054958  -3.5632667E-06   1.9517906E-04
     34     -396.6289177920  -1.2296230E-05   1.1840482E-04
     35     -396.6289217311  -3.9390891E-06   7.0124682E-05
     36     -396.6289226624  -9.3134474E-07   5.8299139E-05
     37     -396.6289233864  -7.2400252E-07   4.2402829E-05
     38     -396.6289239306  -5.4421997E-07   2.6436524E-05
     39     -396.6289240541  -1.2343901E-07   1.6499313E-05
------------------------------------------------------------

electronic energy        -4.0522179250899E+02 Eh
total energy             -3.9662892405408E+02 Eh

 total:                                   6.394 sec
 - repulsion                              0.000 sec (  0%)
 - dispersion                             0.016 sec (  0%)
 - coulomb                                0.004 sec (  0%)
 - hamiltonian                            0.016 sec (  0%)
 - scc                                    6.358 sec ( 99%)

!!!!!!!!!!!!!!!!!!!!!!!!!!!!!!!!!!!!!!!ERROR!!!!!!!!!!!!!!!!!!!!!!!!!!!!!!!!!!!!
Found no fragments in the input structure.
Aborting...
########################################################################
[ERROR] Program stopped due to fatal error
-3- Something in your DIPRO calculation went wrong.
-2- xtb_dipro: Found no fragments in input structure.
-1- xtb_dipro: No method provided, falling back to default GFN2-xTB.
########################################################################
abnormal termination of xtb
Note: The following floating-point exceptions are signalling: IEEE_UNDERFLOW_FLAG
ERROR STOP 

Error termination. Backtrace:
#0  0x103c87cf7
#1  0x103c88b07
#2  0x103c89f17
#3  0x102b17d43
#4  0x102a16893
#5  0x102cc9c57
Calculation failed for distance 5.0 Å: Could not parse J values from dimer_5.00.xyz
Stacking distance: 5.05 Å
      -----------------------------------------------------------      
     |                   =====================                   |     
     |                           x T B                           |     
     |                   =====================                   |     
     |                         S. Grimme                         |     
     |          Mulliken Center for Theoretical Chemistry        |     
     |                    University of Bonn                     |     
      -----------------------------------------------------------      

   * xtb version 6.7.1 (edcfbbe) compiled by 'runner@Mac-1732539442253.local' on 2024-11-25

   xtb is free software: you can redistribute it and/or modify it under
   the terms of the GNU Lesser General Public License as published by
   the Free Software Foundation, either version 3 of the License, or
   (at your option) any later version.
   
   xtb is distributed in the hope that it will be useful,
   but WITHOUT ANY WARRANTY; without even the implied warranty of
   MERCHANTABILITY or FITNESS FOR A PARTICULAR PURPOSE.  See the
   GNU Lesser General Public License for more details.
   
   Cite this work as:
   * C. Bannwarth, E. Caldeweyher, S. Ehlert, A. Hansen, P. Pracht,
     J. Seibert, S. Spicher, S. Grimme, WIREs Comput. Mol. Sci., 2020, 11,
     e01493. DOI: 10.1002/wcms.1493
   
   for GFN2-xTB:
   * C. Bannwarth, S. Ehlert and S. Grimme., J. Chem. Theory Comput., 2019,
     15, 1652-1671. DOI: 10.1021/acs.jctc.8b01176
   for GFN1-xTB:
   * S. Grimme, C. Bannwarth, P. Shushkov, J. Chem. Theory Comput., 2017,
     13, 1989-2009. DOI: 10.1021/acs.jctc.7b00118
   for GFN0-xTB:
   * P. Pracht, E. Caldeweyher, S. Ehlert, S. Grimme, ChemRxiv, 2019, preprint.
     DOI: 10.26434/chemrxiv.8326202.v1
   for GFN-FF:
   * S. Spicher and S. Grimme, Angew. Chem. Int. Ed., 2020, 59, 15665-15673.
     DOI: 10.1002/anie.202004239
   
   for ALPB and GBSA implicit solvation:
   * S. Ehlert, M. Stahn, S. Spicher, S. Grimme, J. Chem. Theory Comput.,
     2021, 17, 4250-4261. DOI: 10.1021/acs.jctc.1c00471
   
   for ddCOSMO and CPCM-X implicit solvation:
   * M. Stahn, S. Ehlert, S. Grimme, J. Phys. Chem. A,
     2023, XX, XXXX-XXXX. DOI: 10.1021/acs.jpca.3c04382
   
   for DFT-D4:
   * E. Caldeweyher, C. Bannwarth and S. Grimme, J. Chem. Phys., 2017,
     147, 034112. DOI: 10.1063/1.4993215
   * E. Caldeweyher, S. Ehlert, A. Hansen, H. Neugebauer, S. Spicher,
     C. Bannwarth and S. Grimme, J. Chem. Phys., 2019, 150, 154122.
     DOI: 10.1063/1.5090222
   * E. Caldeweyher, J.-M. Mewes, S. Ehlert and S. Grimme, Phys. Chem. Chem. Phys.
     2020, 22, 8499-8512. DOI: 10.1039/D0CP00502A
   
   for sTDA-xTB:
   * S. Grimme and C. Bannwarth, J. Chem. Phys., 2016, 145, 054103.
     DOI: 10.1063/1.4959605
   
   in the mass-spec context:
   * V. Asgeirsson, C. Bauer and S. Grimme, Chem. Sci., 2017, 8, 4879.
     DOI: 10.1039/c7sc00601b
   * J. Koopman and S. Grimme, ACS Omega 2019, 4, 12, 15120-15133.
     DOI: 10.1021/acsomega.9b02011
   
   for metadynamics refer to:
   * S. Grimme, J. Chem. Theory Comput., 2019, 155, 2847-2862
     DOI: 10.1021/acs.jctc.9b00143
   
   for SPH calculations refer to:
   * S. Spicher and S. Grimme, J. Chem. Theory Comput., 2021, 17, 1701-1714
     DOI: 10.1021/acs.jctc.0c01306
   
   for ONIOM refer to:
   * C. Plett, A. Katbashev, S. Ehlert, S. Grimme, M. Bursch,
     Phys. Chem. Chem. Phys., 2023, 25, 17860-17868. DOI: 10.1039/D3CP02178E
   
   for DIPRO refer to:
   * J. Kohn, N. Gildemeister, S. Grimme, D. Fazzi, A. Hansen,
     J. Chem. Phys., 2023, just accepted.
   
   for PTB refer to:
   * S. Grimme, M. Mueller, A. Hansen, J. Chem. Phys., 2023, 158, 124111.
     DOI: 10.1063/5.0137838
   
   with help from (in alphabetical order)
   P. Atkinson, C. Bannwarth, F. Bohle, G. Brandenburg, E. Caldeweyher
   M. Checinski, S. Dohm, S. Ehlert, S. Ehrlich, I. Gerasimov, C. Hölzer
   A. Katbashev, J. Kohn, J. Koopman, C. Lavigne, S. Lehtola, F. März, M. Müller,
   F. Musil, H. Neugebauer, J. Pisarek, C. Plett, P. Pracht, F. Pultar,
   J. Seibert, P. Shushkov, S. Spicher, M. Stahn, M. Steiner, T. Strunk,
   J. Stückrath, T. Rose, and J. Unsleber
   
 * started run on 2025/03/20 at 11:39:38.890     

           -------------------------------------------------
          |                Calculation Setup                |
           -------------------------------------------------

          program call               : xtb dimer_5.05.xyz --dipro 0.3 --chrg 0 --uhf 2 --input frag.inp --spinpol --tblite
          coordinate file            : dimer_5.05.xyz
          omp threads                :                     8

########################################################################
[WARNING] Please study the warnings concerning your input carefully
-2- userdata_read: could not find 'frag.inp'
-1- set_rdcontrol: could not find 'frag.inp'
########################################################################
Wavefunction read from restart file
           -------------------------------------------------
          |                    D I P R O                    |
           -------------------------------------------------
Calculation for dimer 
--------------------- 
  
charge of dimer :   0.
unpaired e- of dimer :  2
repulsion energy          8.5546029890022E+00 Eh
dispersion energy         2.8599024942054E-02 Eh
number of electrons       6.9800000000000E+02 e
integral cutoff           1.9311100799991E+01 bohr

------------------------------------------------------------
  cycle        total energy    energy error   density error
------------------------------------------------------------
      1     -390.9581437335  -3.9954135E+02   2.1679668E-01
      2     -373.1778297917   1.7780314E+01   1.7787621E-01
      3     -252.3644051571   1.2081342E+02   2.7214749E-01
      4     -337.1499673103  -8.4785562E+01   2.0481761E-01
      5     -382.0961007513  -4.4946133E+01   1.3470534E-01
      6     -384.5211248482  -2.4250241E+00   1.0816954E-01
      7     -374.8149528444   9.7061720E+00   1.2447254E-01
      8     -391.6537204998  -1.6838768E+01   8.2918406E-02
      9     -395.1899595525  -3.5362391E+00   5.9570093E-02
     10     -394.5978989999   5.9206055E-01   5.6938348E-02
     11     -394.7929679989  -1.9506900E-01   5.1301166E-02
     12     -395.5227648764  -7.2979688E-01   4.5252974E-02
     13     -396.2573167613  -7.3455188E-01   3.7029710E-02
     14     -396.4931036377  -2.3578688E-01   2.9117641E-02
     15     -396.4885057984   4.5978393E-03   2.5753945E-02
     16     -396.4593623992   2.9143399E-02   2.7303480E-02
     17     -396.5723367907  -1.1297439E-01   1.9290959E-02
     18     -396.5748464414  -2.5096507E-03   1.5368363E-02
     19     -396.6054051941  -3.0558753E-02   1.3101690E-02
     20     -396.6724286025  -6.7023408E-02   6.1937978E-03
     21     -396.6652195759   7.2090266E-03   8.2820320E-03
     22     -396.6823877695  -1.7168194E-02   3.5978445E-03
     23     -396.6873481367  -4.9603672E-03   2.0917268E-03
     24     -396.6878680046  -5.1986792E-04   2.0211623E-03
     25     -396.6890576113  -1.1896067E-03   7.9277568E-04
     26     -396.6892206765  -1.6306516E-04   3.6589957E-04
     27     -396.6889681562   2.5252026E-04   7.2247795E-04
     28     -396.6892050979  -2.3694169E-04   3.0579833E-04
     29     -396.6892304392  -2.5341270E-05   2.0242652E-04
     30     -396.6892419317  -1.1492491E-05   1.5399433E-04
     31     -396.6892469870  -5.0553458E-06   8.7020462E-05
     32     -396.6892487363  -1.7492669E-06   6.5901664E-05
     33     -396.6892505637  -1.8274512E-06   3.0842848E-05
     34     -396.6892507770  -2.1331340E-07   2.2494933E-05
     35     -396.6892508619  -8.4858812E-08   1.4312903E-05
------------------------------------------------------------

electronic energy        -4.0527245287584E+02 Eh
total energy             -3.9668925086190E+02 Eh

 total:                                   5.693 sec
 - repulsion                              0.000 sec (  0%)
 - dispersion                             0.011 sec (  0%)
 - coulomb                                0.004 sec (  0%)
 - hamiltonian                            0.014 sec (  0%)
 - scc                                    5.663 sec ( 99%)

!!!!!!!!!!!!!!!!!!!!!!!!!!!!!!!!!!!!!!!ERROR!!!!!!!!!!!!!!!!!!!!!!!!!!!!!!!!!!!!
Found no fragments in the input structure.
Aborting...
########################################################################
[ERROR] Program stopped due to fatal error
-3- Something in your DIPRO calculation went wrong.
-2- xtb_dipro: Found no fragments in input structure.
-1- xtb_dipro: No method provided, falling back to default GFN2-xTB.
########################################################################
abnormal termination of xtb
Note: The following floating-point exceptions are signalling: IEEE_UNDERFLOW_FLAG
ERROR STOP 

Error termination. Backtrace:
#0  0x10356fcf7
#1  0x103570b07
#2  0x103571f17
#3  0x1023cbd43
#4  0x1022ca893
#5  0x10257dc57
Calculation failed for distance 5.05 Å: Could not parse J values from dimer_5.05.xyz
Stacking distance: 5.1 Å
      -----------------------------------------------------------      
     |                   =====================                   |     
     |                           x T B                           |     
     |                   =====================                   |     
     |                         S. Grimme                         |     
     |          Mulliken Center for Theoretical Chemistry        |     
     |                    University of Bonn                     |     
      -----------------------------------------------------------      

   * xtb version 6.7.1 (edcfbbe) compiled by 'runner@Mac-1732539442253.local' on 2024-11-25

   xtb is free software: you can redistribute it and/or modify it under
   the terms of the GNU Lesser General Public License as published by
   the Free Software Foundation, either version 3 of the License, or
   (at your option) any later version.
   
   xtb is distributed in the hope that it will be useful,
   but WITHOUT ANY WARRANTY; without even the implied warranty of
   MERCHANTABILITY or FITNESS FOR A PARTICULAR PURPOSE.  See the
   GNU Lesser General Public License for more details.
   
   Cite this work as:
   * C. Bannwarth, E. Caldeweyher, S. Ehlert, A. Hansen, P. Pracht,
     J. Seibert, S. Spicher, S. Grimme, WIREs Comput. Mol. Sci., 2020, 11,
     e01493. DOI: 10.1002/wcms.1493
   
   for GFN2-xTB:
   * C. Bannwarth, S. Ehlert and S. Grimme., J. Chem. Theory Comput., 2019,
     15, 1652-1671. DOI: 10.1021/acs.jctc.8b01176
   for GFN1-xTB:
   * S. Grimme, C. Bannwarth, P. Shushkov, J. Chem. Theory Comput., 2017,
     13, 1989-2009. DOI: 10.1021/acs.jctc.7b00118
   for GFN0-xTB:
   * P. Pracht, E. Caldeweyher, S. Ehlert, S. Grimme, ChemRxiv, 2019, preprint.
     DOI: 10.26434/chemrxiv.8326202.v1
   for GFN-FF:
   * S. Spicher and S. Grimme, Angew. Chem. Int. Ed., 2020, 59, 15665-15673.
     DOI: 10.1002/anie.202004239
   
   for ALPB and GBSA implicit solvation:
   * S. Ehlert, M. Stahn, S. Spicher, S. Grimme, J. Chem. Theory Comput.,
     2021, 17, 4250-4261. DOI: 10.1021/acs.jctc.1c00471
   
   for ddCOSMO and CPCM-X implicit solvation:
   * M. Stahn, S. Ehlert, S. Grimme, J. Phys. Chem. A,
     2023, XX, XXXX-XXXX. DOI: 10.1021/acs.jpca.3c04382
   
   for DFT-D4:
   * E. Caldeweyher, C. Bannwarth and S. Grimme, J. Chem. Phys., 2017,
     147, 034112. DOI: 10.1063/1.4993215
   * E. Caldeweyher, S. Ehlert, A. Hansen, H. Neugebauer, S. Spicher,
     C. Bannwarth and S. Grimme, J. Chem. Phys., 2019, 150, 154122.
     DOI: 10.1063/1.5090222
   * E. Caldeweyher, J.-M. Mewes, S. Ehlert and S. Grimme, Phys. Chem. Chem. Phys.
     2020, 22, 8499-8512. DOI: 10.1039/D0CP00502A
   
   for sTDA-xTB:
   * S. Grimme and C. Bannwarth, J. Chem. Phys., 2016, 145, 054103.
     DOI: 10.1063/1.4959605
   
   in the mass-spec context:
   * V. Asgeirsson, C. Bauer and S. Grimme, Chem. Sci., 2017, 8, 4879.
     DOI: 10.1039/c7sc00601b
   * J. Koopman and S. Grimme, ACS Omega 2019, 4, 12, 15120-15133.
     DOI: 10.1021/acsomega.9b02011
   
   for metadynamics refer to:
   * S. Grimme, J. Chem. Theory Comput., 2019, 155, 2847-2862
     DOI: 10.1021/acs.jctc.9b00143
   
   for SPH calculations refer to:
   * S. Spicher and S. Grimme, J. Chem. Theory Comput., 2021, 17, 1701-1714
     DOI: 10.1021/acs.jctc.0c01306
   
   for ONIOM refer to:
   * C. Plett, A. Katbashev, S. Ehlert, S. Grimme, M. Bursch,
     Phys. Chem. Chem. Phys., 2023, 25, 17860-17868. DOI: 10.1039/D3CP02178E
   
   for DIPRO refer to:
   * J. Kohn, N. Gildemeister, S. Grimme, D. Fazzi, A. Hansen,
     J. Chem. Phys., 2023, just accepted.
   
   for PTB refer to:
   * S. Grimme, M. Mueller, A. Hansen, J. Chem. Phys., 2023, 158, 124111.
     DOI: 10.1063/5.0137838
   
   with help from (in alphabetical order)
   P. Atkinson, C. Bannwarth, F. Bohle, G. Brandenburg, E. Caldeweyher
   M. Checinski, S. Dohm, S. Ehlert, S. Ehrlich, I. Gerasimov, C. Hölzer
   A. Katbashev, J. Kohn, J. Koopman, C. Lavigne, S. Lehtola, F. März, M. Müller,
   F. Musil, H. Neugebauer, J. Pisarek, C. Plett, P. Pracht, F. Pultar,
   J. Seibert, P. Shushkov, S. Spicher, M. Stahn, M. Steiner, T. Strunk,
   J. Stückrath, T. Rose, and J. Unsleber
   
 * started run on 2025/03/20 at 11:39:44.626     

           -------------------------------------------------
          |                Calculation Setup                |
           -------------------------------------------------

          program call               : xtb dimer_5.10.xyz --dipro 0.3 --chrg 0 --uhf 2 --input frag.inp --spinpol --tblite
          coordinate file            : dimer_5.10.xyz
          omp threads                :                     8

########################################################################
[WARNING] Please study the warnings concerning your input carefully
-2- userdata_read: could not find 'frag.inp'
-1- set_rdcontrol: could not find 'frag.inp'
########################################################################
Wavefunction read from restart file
           -------------------------------------------------
          |                    D I P R O                    |
           -------------------------------------------------
Calculation for dimer 
--------------------- 
  
charge of dimer :   0.
unpaired e- of dimer :  2
repulsion energy          8.4070883717328E+00 Eh
dispersion energy         2.8231105231159E-02 Eh
number of electrons       6.9800000000000E+02 e
integral cutoff           1.9311100799991E+01 bohr

------------------------------------------------------------
  cycle        total energy    energy error   density error
------------------------------------------------------------
      1     -391.1706077814  -3.9960593E+02   2.1679320E-01
      2     -373.5716254039   1.7598982E+01   1.7739753E-01
      3     -253.3223544278   1.2024927E+02   2.7197288E-01
      4     -337.8969513308  -8.4574597E+01   2.0424885E-01
      5     -382.3419099254  -4.4444959E+01   1.3427021E-01
      6     -385.4105451534  -3.0686352E+00   1.0663631E-01
      7     -374.1871664300   1.1223379E+01   1.2535171E-01
      8     -392.1520476670  -1.7964881E+01   8.1832327E-02
      9     -395.4679309168  -3.3158832E+00   5.9150875E-02
     10     -394.8716372738   5.9629364E-01   5.6856505E-02
     11     -395.0123158697  -1.4067860E-01   5.3530266E-02
     12     -395.3451975694  -3.3288170E-01   5.2293194E-02
     13     -396.2848712764  -9.3967371E-01   3.8253501E-02
     14     -396.5587472046  -2.7387593E-01   3.2655745E-02
     15     -396.6732621130  -1.1451491E-01   2.7794524E-02
     16     -396.7368390695  -6.3576957E-02   2.4115700E-02
     17     -396.4856057197   2.5123335E-01   2.9086222E-02
     18     -396.8308127428  -3.4520702E-01   1.3892423E-02
     19     -396.7381604108   9.2652332E-02   1.7318247E-02
     20     -396.7927004901  -5.4540079E-02   1.4565338E-02
     21     -396.8690149242  -7.6314434E-02   7.3716634E-03
     22     -396.8802262759  -1.1211352E-02   5.3838811E-03
     23     -396.8853359920  -5.1097161E-03   3.3892908E-03
     24     -396.8870817565  -1.7457645E-03   2.5080792E-03
     25     -396.8881648876  -1.0831311E-03   1.8764418E-03
     26     -396.8880278881   1.3699949E-04   1.4968420E-03
     27     -396.8880805591  -5.2670953E-05   1.3097360E-03
     28     -396.8887958377  -7.1527858E-04   6.9775945E-04
     29     -396.8886966258   9.9211881E-05   7.1294795E-04
     30     -396.8887862664  -8.9640596E-05   5.2862963E-04
     31     -396.8888848979  -9.8631529E-05   2.9776795E-04
     32     -396.8888869965  -2.0986124E-06   2.5906497E-04
     33     -396.8889262509  -3.9254399E-05   8.8925128E-05
     34     -396.8889273443  -1.0933706E-06   6.1461833E-05
     35     -396.8889284471  -1.1027802E-06   3.1248636E-05
     36     -396.8889285787  -1.3163992E-07   2.3068787E-05
     37     -396.8889286543  -7.5559228E-08   1.4642047E-05
------------------------------------------------------------

electronic energy        -4.0532424813123E+02 Eh
total energy             -3.9688892865427E+02 Eh

 total:                                   6.827 sec
 - repulsion                              0.000 sec (  0%)
 - dispersion                             0.012 sec (  0%)
 - coulomb                                0.004 sec (  0%)
 - hamiltonian                            0.016 sec (  0%)
 - scc                                    6.795 sec ( 99%)

!!!!!!!!!!!!!!!!!!!!!!!!!!!!!!!!!!!!!!!ERROR!!!!!!!!!!!!!!!!!!!!!!!!!!!!!!!!!!!!
Found no fragments in the input structure.
Aborting...
########################################################################
[ERROR] Program stopped due to fatal error
-3- Something in your DIPRO calculation went wrong.
-2- xtb_dipro: Found no fragments in input structure.
-1- xtb_dipro: No method provided, falling back to default GFN2-xTB.
########################################################################
abnormal termination of xtb
Note: The following floating-point exceptions are signalling: IEEE_UNDERFLOW_FLAG
ERROR STOP 

Error termination. Backtrace:
#0  0x105d47cf7
#1  0x105d48b07
#2  0x105d49f17
#3  0x104c07d43
#4  0x104b06893
#5  0x104db9c57
Calculation failed for distance 5.1 Å: Could not parse J values from dimer_5.10.xyz
Stacking distance: 5.15 Å
      -----------------------------------------------------------      
     |                   =====================                   |     
     |                           x T B                           |     
     |                   =====================                   |     
     |                         S. Grimme                         |     
     |          Mulliken Center for Theoretical Chemistry        |     
     |                    University of Bonn                     |     
      -----------------------------------------------------------      

   * xtb version 6.7.1 (edcfbbe) compiled by 'runner@Mac-1732539442253.local' on 2024-11-25

   xtb is free software: you can redistribute it and/or modify it under
   the terms of the GNU Lesser General Public License as published by
   the Free Software Foundation, either version 3 of the License, or
   (at your option) any later version.
   
   xtb is distributed in the hope that it will be useful,
   but WITHOUT ANY WARRANTY; without even the implied warranty of
   MERCHANTABILITY or FITNESS FOR A PARTICULAR PURPOSE.  See the
   GNU Lesser General Public License for more details.
   
   Cite this work as:
   * C. Bannwarth, E. Caldeweyher, S. Ehlert, A. Hansen, P. Pracht,
     J. Seibert, S. Spicher, S. Grimme, WIREs Comput. Mol. Sci., 2020, 11,
     e01493. DOI: 10.1002/wcms.1493
   
   for GFN2-xTB:
   * C. Bannwarth, S. Ehlert and S. Grimme., J. Chem. Theory Comput., 2019,
     15, 1652-1671. DOI: 10.1021/acs.jctc.8b01176
   for GFN1-xTB:
   * S. Grimme, C. Bannwarth, P. Shushkov, J. Chem. Theory Comput., 2017,
     13, 1989-2009. DOI: 10.1021/acs.jctc.7b00118
   for GFN0-xTB:
   * P. Pracht, E. Caldeweyher, S. Ehlert, S. Grimme, ChemRxiv, 2019, preprint.
     DOI: 10.26434/chemrxiv.8326202.v1
   for GFN-FF:
   * S. Spicher and S. Grimme, Angew. Chem. Int. Ed., 2020, 59, 15665-15673.
     DOI: 10.1002/anie.202004239
   
   for ALPB and GBSA implicit solvation:
   * S. Ehlert, M. Stahn, S. Spicher, S. Grimme, J. Chem. Theory Comput.,
     2021, 17, 4250-4261. DOI: 10.1021/acs.jctc.1c00471
   
   for ddCOSMO and CPCM-X implicit solvation:
   * M. Stahn, S. Ehlert, S. Grimme, J. Phys. Chem. A,
     2023, XX, XXXX-XXXX. DOI: 10.1021/acs.jpca.3c04382
   
   for DFT-D4:
   * E. Caldeweyher, C. Bannwarth and S. Grimme, J. Chem. Phys., 2017,
     147, 034112. DOI: 10.1063/1.4993215
   * E. Caldeweyher, S. Ehlert, A. Hansen, H. Neugebauer, S. Spicher,
     C. Bannwarth and S. Grimme, J. Chem. Phys., 2019, 150, 154122.
     DOI: 10.1063/1.5090222
   * E. Caldeweyher, J.-M. Mewes, S. Ehlert and S. Grimme, Phys. Chem. Chem. Phys.
     2020, 22, 8499-8512. DOI: 10.1039/D0CP00502A
   
   for sTDA-xTB:
   * S. Grimme and C. Bannwarth, J. Chem. Phys., 2016, 145, 054103.
     DOI: 10.1063/1.4959605
   
   in the mass-spec context:
   * V. Asgeirsson, C. Bauer and S. Grimme, Chem. Sci., 2017, 8, 4879.
     DOI: 10.1039/c7sc00601b
   * J. Koopman and S. Grimme, ACS Omega 2019, 4, 12, 15120-15133.
     DOI: 10.1021/acsomega.9b02011
   
   for metadynamics refer to:
   * S. Grimme, J. Chem. Theory Comput., 2019, 155, 2847-2862
     DOI: 10.1021/acs.jctc.9b00143
   
   for SPH calculations refer to:
   * S. Spicher and S. Grimme, J. Chem. Theory Comput., 2021, 17, 1701-1714
     DOI: 10.1021/acs.jctc.0c01306
   
   for ONIOM refer to:
   * C. Plett, A. Katbashev, S. Ehlert, S. Grimme, M. Bursch,
     Phys. Chem. Chem. Phys., 2023, 25, 17860-17868. DOI: 10.1039/D3CP02178E
   
   for DIPRO refer to:
   * J. Kohn, N. Gildemeister, S. Grimme, D. Fazzi, A. Hansen,
     J. Chem. Phys., 2023, just accepted.
   
   for PTB refer to:
   * S. Grimme, M. Mueller, A. Hansen, J. Chem. Phys., 2023, 158, 124111.
     DOI: 10.1063/5.0137838
   
   with help from (in alphabetical order)
   P. Atkinson, C. Bannwarth, F. Bohle, G. Brandenburg, E. Caldeweyher
   M. Checinski, S. Dohm, S. Ehlert, S. Ehrlich, I. Gerasimov, C. Hölzer
   A. Katbashev, J. Kohn, J. Koopman, C. Lavigne, S. Lehtola, F. März, M. Müller,
   F. Musil, H. Neugebauer, J. Pisarek, C. Plett, P. Pracht, F. Pultar,
   J. Seibert, P. Shushkov, S. Spicher, M. Stahn, M. Steiner, T. Strunk,
   J. Stückrath, T. Rose, and J. Unsleber
   
 * started run on 2025/03/20 at 11:39:51.493     

           -------------------------------------------------
          |                Calculation Setup                |
           -------------------------------------------------

          program call               : xtb dimer_5.15.xyz --dipro 0.3 --chrg 0 --uhf 2 --input frag.inp --spinpol --tblite
          coordinate file            : dimer_5.15.xyz
          omp threads                :                     8

########################################################################
[WARNING] Please study the warnings concerning your input carefully
-2- userdata_read: could not find 'frag.inp'
-1- set_rdcontrol: could not find 'frag.inp'
########################################################################
Wavefunction read from restart file
           -------------------------------------------------
          |                    D I P R O                    |
           -------------------------------------------------
Calculation for dimer 
--------------------- 
  
charge of dimer :   0.
unpaired e- of dimer :  2
repulsion energy          8.1376529516343E+00 Eh
dispersion energy         2.7862809851566E-02 Eh
number of electrons       6.9800000000000E+02 e
integral cutoff           1.9311100799991E+01 bohr

------------------------------------------------------------
  cycle        total energy    energy error   density error
------------------------------------------------------------
      1     -392.4771027120  -4.0064262E+02   2.1728375E-01
      2     -382.8977385835   9.5793641E+00   1.5952975E-01
      3     -285.8619575427   9.7035781E+01   2.4685647E-01
      4     -337.0339008698  -5.1171943E+01   2.0193620E-01
      5     -383.7769724270  -4.6743072E+01   1.2574439E-01
      6     -386.2866216223  -2.5096492E+00   1.0452438E-01
      7     -387.6556489119  -1.3690273E+00   9.5933609E-02
      8     -394.8369448109  -7.1812959E+00   7.0101994E-02
      9     -396.4783583039  -1.6414135E+00   5.3261022E-02
     10     -396.0152957729   4.6306253E-01   5.0736054E-02
     11     -396.4158213713  -4.0052560E-01   4.3486462E-02
     12     -395.5967591781   8.1906219E-01   5.7754142E-02
     13     -396.9562521149  -1.3594929E+00   3.0185431E-02
     14     -396.7936390471   1.6261307E-01   3.3396687E-02
     15     -397.1362190869  -3.4258004E-01   1.9891089E-02
     16     -397.0266525424   1.0956654E-01   2.2937740E-02
     17     -396.7553103962   2.7134215E-01   3.1205377E-02
     18     -397.1403573541  -3.8504696E-01   1.3514826E-02
     19     -397.1340084803   6.3488738E-03   1.3214001E-02
     20     -397.1849888522  -5.0980372E-02   8.2007621E-03
     21     -397.1986763881  -1.3687536E-02   5.5120585E-03
     22     -397.1959839898   2.6923983E-03   5.8341792E-03
     23     -397.2048702656  -8.8862758E-03   4.4469017E-03
     24     -397.2048703982  -1.3262360E-07   4.1308429E-03
     25     -397.2071678919  -2.2974936E-03   3.4169414E-03
     26     -397.2072276213  -5.9729393E-05   3.2949507E-03
     27     -397.2075720312  -3.4440993E-04   3.0119828E-03
     28     -397.2084104557  -8.3842452E-04   2.5474614E-03
     29     -397.2092425117  -8.3205604E-04   1.8665082E-03
     30     -397.2094322210  -1.8970923E-04   1.3830560E-03
     31     -397.2098257951  -3.9357410E-04   8.4723394E-04
     32     -397.2099383294  -1.1253436E-04   4.9869985E-04
     33     -397.2099853317  -4.7002261E-05   2.2477639E-04
     34     -397.2100023731  -1.7041420E-05   1.0056832E-04
     35     -397.2100037560  -1.3828431E-06   6.9168123E-05
     36     -397.2100050168  -1.2608600E-06   4.6819112E-05
     37     -397.2100054502  -4.3340651E-07   3.2038470E-05
     38     -397.2100058034  -3.5313133E-07   1.2444881E-05
------------------------------------------------------------

electronic energy        -4.0537552156485E+02 Eh
total energy             -3.9721000580337E+02 Eh

 total:                                   6.221 sec
 - repulsion                              0.000 sec (  0%)
 - dispersion                             0.012 sec (  0%)
 - coulomb                                0.004 sec (  0%)
 - hamiltonian                            0.014 sec (  0%)
 - scc                                    6.190 sec ( 99%)

!!!!!!!!!!!!!!!!!!!!!!!!!!!!!!!!!!!!!!!ERROR!!!!!!!!!!!!!!!!!!!!!!!!!!!!!!!!!!!!
Found no fragments in the input structure.
Aborting...
########################################################################
[ERROR] Program stopped due to fatal error
-3- Something in your DIPRO calculation went wrong.
-2- xtb_dipro: Found no fragments in input structure.
-1- xtb_dipro: No method provided, falling back to default GFN2-xTB.
########################################################################
abnormal termination of xtb
Note: The following floating-point exceptions are signalling: IEEE_UNDERFLOW_FLAG
ERROR STOP 

Error termination. Backtrace:
#0  0x1034d3cf7
#1  0x1034d4b07
#2  0x1034d5f17
#3  0x10230bd43
#4  0x10220a893
#5  0x1024bdc57
Calculation failed for distance 5.15 Å: Could not parse J values from dimer_5.15.xyz
Stacking distance: 5.2 Å
      -----------------------------------------------------------      
     |                   =====================                   |     
     |                           x T B                           |     
     |                   =====================                   |     
     |                         S. Grimme                         |     
     |          Mulliken Center for Theoretical Chemistry        |     
     |                    University of Bonn                     |     
      -----------------------------------------------------------      

   * xtb version 6.7.1 (edcfbbe) compiled by 'runner@Mac-1732539442253.local' on 2024-11-25

   xtb is free software: you can redistribute it and/or modify it under
   the terms of the GNU Lesser General Public License as published by
   the Free Software Foundation, either version 3 of the License, or
   (at your option) any later version.
   
   xtb is distributed in the hope that it will be useful,
   but WITHOUT ANY WARRANTY; without even the implied warranty of
   MERCHANTABILITY or FITNESS FOR A PARTICULAR PURPOSE.  See the
   GNU Lesser General Public License for more details.
   
   Cite this work as:
   * C. Bannwarth, E. Caldeweyher, S. Ehlert, A. Hansen, P. Pracht,
     J. Seibert, S. Spicher, S. Grimme, WIREs Comput. Mol. Sci., 2020, 11,
     e01493. DOI: 10.1002/wcms.1493
   
   for GFN2-xTB:
   * C. Bannwarth, S. Ehlert and S. Grimme., J. Chem. Theory Comput., 2019,
     15, 1652-1671. DOI: 10.1021/acs.jctc.8b01176
   for GFN1-xTB:
   * S. Grimme, C. Bannwarth, P. Shushkov, J. Chem. Theory Comput., 2017,
     13, 1989-2009. DOI: 10.1021/acs.jctc.7b00118
   for GFN0-xTB:
   * P. Pracht, E. Caldeweyher, S. Ehlert, S. Grimme, ChemRxiv, 2019, preprint.
     DOI: 10.26434/chemrxiv.8326202.v1
   for GFN-FF:
   * S. Spicher and S. Grimme, Angew. Chem. Int. Ed., 2020, 59, 15665-15673.
     DOI: 10.1002/anie.202004239
   
   for ALPB and GBSA implicit solvation:
   * S. Ehlert, M. Stahn, S. Spicher, S. Grimme, J. Chem. Theory Comput.,
     2021, 17, 4250-4261. DOI: 10.1021/acs.jctc.1c00471
   
   for ddCOSMO and CPCM-X implicit solvation:
   * M. Stahn, S. Ehlert, S. Grimme, J. Phys. Chem. A,
     2023, XX, XXXX-XXXX. DOI: 10.1021/acs.jpca.3c04382
   
   for DFT-D4:
   * E. Caldeweyher, C. Bannwarth and S. Grimme, J. Chem. Phys., 2017,
     147, 034112. DOI: 10.1063/1.4993215
   * E. Caldeweyher, S. Ehlert, A. Hansen, H. Neugebauer, S. Spicher,
     C. Bannwarth and S. Grimme, J. Chem. Phys., 2019, 150, 154122.
     DOI: 10.1063/1.5090222
   * E. Caldeweyher, J.-M. Mewes, S. Ehlert and S. Grimme, Phys. Chem. Chem. Phys.
     2020, 22, 8499-8512. DOI: 10.1039/D0CP00502A
   
   for sTDA-xTB:
   * S. Grimme and C. Bannwarth, J. Chem. Phys., 2016, 145, 054103.
     DOI: 10.1063/1.4959605
   
   in the mass-spec context:
   * V. Asgeirsson, C. Bauer and S. Grimme, Chem. Sci., 2017, 8, 4879.
     DOI: 10.1039/c7sc00601b
   * J. Koopman and S. Grimme, ACS Omega 2019, 4, 12, 15120-15133.
     DOI: 10.1021/acsomega.9b02011
   
   for metadynamics refer to:
   * S. Grimme, J. Chem. Theory Comput., 2019, 155, 2847-2862
     DOI: 10.1021/acs.jctc.9b00143
   
   for SPH calculations refer to:
   * S. Spicher and S. Grimme, J. Chem. Theory Comput., 2021, 17, 1701-1714
     DOI: 10.1021/acs.jctc.0c01306
   
   for ONIOM refer to:
   * C. Plett, A. Katbashev, S. Ehlert, S. Grimme, M. Bursch,
     Phys. Chem. Chem. Phys., 2023, 25, 17860-17868. DOI: 10.1039/D3CP02178E
   
   for DIPRO refer to:
   * J. Kohn, N. Gildemeister, S. Grimme, D. Fazzi, A. Hansen,
     J. Chem. Phys., 2023, just accepted.
   
   for PTB refer to:
   * S. Grimme, M. Mueller, A. Hansen, J. Chem. Phys., 2023, 158, 124111.
     DOI: 10.1063/5.0137838
   
   with help from (in alphabetical order)
   P. Atkinson, C. Bannwarth, F. Bohle, G. Brandenburg, E. Caldeweyher
   M. Checinski, S. Dohm, S. Ehlert, S. Ehrlich, I. Gerasimov, C. Hölzer
   A. Katbashev, J. Kohn, J. Koopman, C. Lavigne, S. Lehtola, F. März, M. Müller,
   F. Musil, H. Neugebauer, J. Pisarek, C. Plett, P. Pracht, F. Pultar,
   J. Seibert, P. Shushkov, S. Spicher, M. Stahn, M. Steiner, T. Strunk,
   J. Stückrath, T. Rose, and J. Unsleber
   
 * started run on 2025/03/20 at 11:39:57.766     

           -------------------------------------------------
          |                Calculation Setup                |
           -------------------------------------------------

          program call               : xtb dimer_5.20.xyz --dipro 0.3 --chrg 0 --uhf 2 --input frag.inp --spinpol --tblite
          coordinate file            : dimer_5.20.xyz
          omp threads                :                     8

########################################################################
[WARNING] Please study the warnings concerning your input carefully
-2- userdata_read: could not find 'frag.inp'
-1- set_rdcontrol: could not find 'frag.inp'
########################################################################
Wavefunction read from restart file
           -------------------------------------------------
          |                    D I P R O                    |
           -------------------------------------------------
Calculation for dimer 
--------------------- 
  
charge of dimer :   0.
unpaired e- of dimer :  2
repulsion energy          7.7856010595456E+00 Eh
dispersion energy         2.7495881668777E-02 Eh
number of electrons       6.9800000000000E+02 e
integral cutoff           1.9311100799991E+01 bohr

------------------------------------------------------------
  cycle        total energy    energy error   density error
------------------------------------------------------------
      1     -392.8655540779  -4.0067865E+02   2.1729095E-01
      2     -381.7450849190   1.1120469E+01   1.6221576E-01
      3     -265.3350989682   1.1640999E+02   2.6312073E-01
      4     -340.5886794464  -7.5253580E+01   2.0088295E-01
      5     -384.2346124669  -4.3645933E+01   1.2838942E-01
      6     -387.4490578918  -3.2144454E+00   1.0439457E-01
      7     -380.9094460464   6.5396118E+00   1.1191225E-01
      8     -395.2683214662  -1.4358875E+01   7.0686665E-02
      9     -396.6581870690  -1.3898656E+00   5.5266182E-02
     10     -396.4137252142   2.4446185E-01   5.0938845E-02
     11     -396.8851653558  -4.7144014E-01   4.5689275E-02
     12     -396.6729347208   2.1223063E-01   4.2803748E-02
     13     -397.1510135972  -4.7807888E-01   3.4691138E-02
     14     -397.4329566327  -2.8194304E-01   2.7722876E-02
     15     -397.5169201418  -8.3963509E-02   2.0081119E-02
     16     -397.4610942443   5.5825897E-02   1.8720405E-02
     17     -397.5472838872  -8.6189643E-02   1.2769669E-02
     18     -397.4966831652   5.0600722E-02   1.7052687E-02
     19     -397.5584231587  -6.1739994E-02   9.9087910E-03
     20     -397.5794194190  -2.0996260E-02   8.4095234E-03
     21     -397.6045103320  -2.5090913E-02   4.2348013E-03
     22     -397.6033811897   1.1291423E-03   3.4750386E-03
     23     -397.6092070464  -5.8258567E-03   2.3417477E-03
     24     -397.6108480465  -1.6410001E-03   1.1212160E-03
     25     -397.6108268289   2.1217569E-05   1.1154057E-03
     26     -397.6112262436  -3.9941469E-04   6.0853172E-04
     27     -397.6112708855  -4.4641878E-05   4.2402780E-04
     28     -397.6113203948  -4.9509239E-05   3.1678588E-04
     29     -397.6113223957  -2.0009065E-06   2.9891610E-04
     30     -397.6113501277  -2.7732040E-05   1.5613940E-04
     31     -397.6113552753  -5.1476097E-06   1.1537778E-04
     32     -397.6113586666  -3.3913108E-06   7.0375380E-05
     33     -397.6113593806  -7.1392719E-07   5.1817714E-05
     34     -397.6113602723  -8.9179048E-07   1.9322983E-05
------------------------------------------------------------

electronic energy        -4.0542445721356E+02 Eh
total energy             -3.9761136027234E+02 Eh

 total:                                   5.547 sec
 - repulsion                              0.000 sec (  0%)
 - dispersion                             0.012 sec (  0%)
 - coulomb                                0.004 sec (  0%)
 - hamiltonian                            0.015 sec (  0%)
 - scc                                    5.515 sec ( 99%)

!!!!!!!!!!!!!!!!!!!!!!!!!!!!!!!!!!!!!!!ERROR!!!!!!!!!!!!!!!!!!!!!!!!!!!!!!!!!!!!
Found no fragments in the input structure.
Aborting...
########################################################################
[ERROR] Program stopped due to fatal error
-3- Something in your DIPRO calculation went wrong.
-2- xtb_dipro: Found no fragments in input structure.
-1- xtb_dipro: No method provided, falling back to default GFN2-xTB.
########################################################################
abnormal termination of xtb
Note: The following floating-point exceptions are signalling: IEEE_UNDERFLOW_FLAG
ERROR STOP 

Error termination. Backtrace:
#0  0x10336bcf7
#1  0x10336cb07
#2  0x10336df17
#3  0x102133d43
#4  0x102032893
#5  0x1022e5c57
Calculation failed for distance 5.2 Å: Could not parse J values from dimer_5.20.xyz
Stacking distance: 5.25 Å
      -----------------------------------------------------------      
     |                   =====================                   |     
     |                           x T B                           |     
     |                   =====================                   |     
     |                         S. Grimme                         |     
     |          Mulliken Center for Theoretical Chemistry        |     
     |                    University of Bonn                     |     
      -----------------------------------------------------------      

   * xtb version 6.7.1 (edcfbbe) compiled by 'runner@Mac-1732539442253.local' on 2024-11-25

   xtb is free software: you can redistribute it and/or modify it under
   the terms of the GNU Lesser General Public License as published by
   the Free Software Foundation, either version 3 of the License, or
   (at your option) any later version.
   
   xtb is distributed in the hope that it will be useful,
   but WITHOUT ANY WARRANTY; without even the implied warranty of
   MERCHANTABILITY or FITNESS FOR A PARTICULAR PURPOSE.  See the
   GNU Lesser General Public License for more details.
   
   Cite this work as:
   * C. Bannwarth, E. Caldeweyher, S. Ehlert, A. Hansen, P. Pracht,
     J. Seibert, S. Spicher, S. Grimme, WIREs Comput. Mol. Sci., 2020, 11,
     e01493. DOI: 10.1002/wcms.1493
   
   for GFN2-xTB:
   * C. Bannwarth, S. Ehlert and S. Grimme., J. Chem. Theory Comput., 2019,
     15, 1652-1671. DOI: 10.1021/acs.jctc.8b01176
   for GFN1-xTB:
   * S. Grimme, C. Bannwarth, P. Shushkov, J. Chem. Theory Comput., 2017,
     13, 1989-2009. DOI: 10.1021/acs.jctc.7b00118
   for GFN0-xTB:
   * P. Pracht, E. Caldeweyher, S. Ehlert, S. Grimme, ChemRxiv, 2019, preprint.
     DOI: 10.26434/chemrxiv.8326202.v1
   for GFN-FF:
   * S. Spicher and S. Grimme, Angew. Chem. Int. Ed., 2020, 59, 15665-15673.
     DOI: 10.1002/anie.202004239
   
   for ALPB and GBSA implicit solvation:
   * S. Ehlert, M. Stahn, S. Spicher, S. Grimme, J. Chem. Theory Comput.,
     2021, 17, 4250-4261. DOI: 10.1021/acs.jctc.1c00471
   
   for ddCOSMO and CPCM-X implicit solvation:
   * M. Stahn, S. Ehlert, S. Grimme, J. Phys. Chem. A,
     2023, XX, XXXX-XXXX. DOI: 10.1021/acs.jpca.3c04382
   
   for DFT-D4:
   * E. Caldeweyher, C. Bannwarth and S. Grimme, J. Chem. Phys., 2017,
     147, 034112. DOI: 10.1063/1.4993215
   * E. Caldeweyher, S. Ehlert, A. Hansen, H. Neugebauer, S. Spicher,
     C. Bannwarth and S. Grimme, J. Chem. Phys., 2019, 150, 154122.
     DOI: 10.1063/1.5090222
   * E. Caldeweyher, J.-M. Mewes, S. Ehlert and S. Grimme, Phys. Chem. Chem. Phys.
     2020, 22, 8499-8512. DOI: 10.1039/D0CP00502A
   
   for sTDA-xTB:
   * S. Grimme and C. Bannwarth, J. Chem. Phys., 2016, 145, 054103.
     DOI: 10.1063/1.4959605
   
   in the mass-spec context:
   * V. Asgeirsson, C. Bauer and S. Grimme, Chem. Sci., 2017, 8, 4879.
     DOI: 10.1039/c7sc00601b
   * J. Koopman and S. Grimme, ACS Omega 2019, 4, 12, 15120-15133.
     DOI: 10.1021/acsomega.9b02011
   
   for metadynamics refer to:
   * S. Grimme, J. Chem. Theory Comput., 2019, 155, 2847-2862
     DOI: 10.1021/acs.jctc.9b00143
   
   for SPH calculations refer to:
   * S. Spicher and S. Grimme, J. Chem. Theory Comput., 2021, 17, 1701-1714
     DOI: 10.1021/acs.jctc.0c01306
   
   for ONIOM refer to:
   * C. Plett, A. Katbashev, S. Ehlert, S. Grimme, M. Bursch,
     Phys. Chem. Chem. Phys., 2023, 25, 17860-17868. DOI: 10.1039/D3CP02178E
   
   for DIPRO refer to:
   * J. Kohn, N. Gildemeister, S. Grimme, D. Fazzi, A. Hansen,
     J. Chem. Phys., 2023, just accepted.
   
   for PTB refer to:
   * S. Grimme, M. Mueller, A. Hansen, J. Chem. Phys., 2023, 158, 124111.
     DOI: 10.1063/5.0137838
   
   with help from (in alphabetical order)
   P. Atkinson, C. Bannwarth, F. Bohle, G. Brandenburg, E. Caldeweyher
   M. Checinski, S. Dohm, S. Ehlert, S. Ehrlich, I. Gerasimov, C. Hölzer
   A. Katbashev, J. Kohn, J. Koopman, C. Lavigne, S. Lehtola, F. März, M. Müller,
   F. Musil, H. Neugebauer, J. Pisarek, C. Plett, P. Pracht, F. Pultar,
   J. Seibert, P. Shushkov, S. Spicher, M. Stahn, M. Steiner, T. Strunk,
   J. Stückrath, T. Rose, and J. Unsleber
   
 * started run on 2025/03/20 at 11:40:03.365     

           -------------------------------------------------
          |                Calculation Setup                |
           -------------------------------------------------

          program call               : xtb dimer_5.25.xyz --dipro 0.3 --chrg 0 --uhf 2 --input frag.inp --spinpol --tblite
          coordinate file            : dimer_5.25.xyz
          omp threads                :                     8

########################################################################
[WARNING] Please study the warnings concerning your input carefully
-2- userdata_read: could not find 'frag.inp'
-1- set_rdcontrol: could not find 'frag.inp'
########################################################################
Wavefunction read from restart file
           -------------------------------------------------
          |                    D I P R O                    |
           -------------------------------------------------
Calculation for dimer 
--------------------- 
  
charge of dimer :   0.
unpaired e- of dimer :  2
repulsion energy          7.3973963304095E+00 Eh
dispersion energy         2.7129514913375E-02 Eh
number of electrons       6.9800000000000E+02 e
integral cutoff           1.9311100799991E+01 bohr

------------------------------------------------------------
  cycle        total energy    energy error   density error
------------------------------------------------------------
      1     -393.2823140703  -4.0070684E+02   2.1728543E-01
      2     -382.2715083038   1.1010806E+01   1.6234635E-01
      3     -267.2282100909   1.1504330E+02   2.6215426E-01
      4     -341.0448427678  -7.3816633E+01   2.0099800E-01
      5     -384.2157972180  -4.3170954E+01   1.2914507E-01
      6     -386.2957345684  -2.0799374E+00   1.0802423E-01
      7     -384.8926587235   1.4030758E+00   1.0579337E-01
      8     -394.4576132415  -9.5649545E+00   7.3187175E-02
      9     -396.8726614979  -2.4150483E+00   5.7902663E-02
     10     -396.8814501245  -8.7886266E-03   4.9840135E-02
     11     -397.1587404245  -2.7729030E-01   4.7242504E-02
     12     -396.9935266407   1.6521378E-01   4.7662863E-02
     13     -397.2773952748  -2.8386863E-01   3.6411161E-02
     14     -397.7242570645  -4.4686179E-01   2.8660386E-02
     15     -397.8625419928  -1.3828493E-01   2.2473270E-02
     16     -397.9027652634  -4.0223271E-02   1.9981193E-02
     17     -397.9561895491  -5.3424286E-02   1.8165733E-02
     18     -397.9785852097  -2.2395661E-02   1.4941521E-02
     19     -397.9116753456   6.6909864E-02   1.8678260E-02
     20     -397.9697591975  -5.8083852E-02   1.2681038E-02
     21     -398.0214109434  -5.1651746E-02   7.3034012E-03
     22     -398.0310520003  -9.6410569E-03   5.1391847E-03
     23     -398.0384636216  -7.4116213E-03   4.1150938E-03
     24     -398.0432480089  -4.7843873E-03   1.9969645E-03
     25     -398.0433427929  -9.4783983E-05   2.0048687E-03
     26     -398.0448962320  -1.5534391E-03   7.9715825E-04
     27     -398.0450464803  -1.5024827E-04   6.4511283E-04
     28     -398.0451304458  -8.3965521E-05   3.7284553E-04
     29     -398.0451095018   2.0943993E-05   3.8414218E-04
     30     -398.0451406749  -3.1173101E-05   2.8275178E-04
     31     -398.0451507416  -1.0066667E-05   2.3540471E-04
     32     -398.0451588548  -8.1131859E-06   1.8126227E-04
     33     -398.0451679270  -9.0722724E-06   1.1609790E-04
     34     -398.0451695375  -1.6105124E-06   9.0229598E-05
     35     -398.0451710829  -1.5453167E-06   5.2005808E-05
     36     -398.0451714759  -3.9304189E-07   3.0090064E-05
     37     -398.0451717023  -2.2644429E-07   1.4156675E-05
------------------------------------------------------------

electronic energy        -4.0546969754767E+02 Eh
total energy             -3.9804517170234E+02 Eh

 total:                                   5.759 sec
 - repulsion                              0.000 sec (  0%)
 - dispersion                             0.013 sec (  0%)
 - coulomb                                0.004 sec (  0%)
 - hamiltonian                            0.013 sec (  0%)
 - scc                                    5.729 sec ( 99%)

!!!!!!!!!!!!!!!!!!!!!!!!!!!!!!!!!!!!!!!ERROR!!!!!!!!!!!!!!!!!!!!!!!!!!!!!!!!!!!!
Found no fragments in the input structure.
Aborting...
########################################################################
[ERROR] Program stopped due to fatal error
-3- Something in your DIPRO calculation went wrong.
-2- xtb_dipro: Found no fragments in input structure.
-1- xtb_dipro: No method provided, falling back to default GFN2-xTB.
########################################################################
abnormal termination of xtb
Note: The following floating-point exceptions are signalling: IEEE_UNDERFLOW_FLAG
ERROR STOP 

Error termination. Backtrace:
#0  0x103e87cf7
#1  0x103e88b07
#2  0x103e89f17
#3  0x102cb7d43
#4  0x102bb6893
#5  0x102e69c57
Calculation failed for distance 5.25 Å: Could not parse J values from dimer_5.25.xyz
Stacking distance: 5.3 Å
      -----------------------------------------------------------      
     |                   =====================                   |     
     |                           x T B                           |     
     |                   =====================                   |     
     |                         S. Grimme                         |     
     |          Mulliken Center for Theoretical Chemistry        |     
     |                    University of Bonn                     |     
      -----------------------------------------------------------      

   * xtb version 6.7.1 (edcfbbe) compiled by 'runner@Mac-1732539442253.local' on 2024-11-25

   xtb is free software: you can redistribute it and/or modify it under
   the terms of the GNU Lesser General Public License as published by
   the Free Software Foundation, either version 3 of the License, or
   (at your option) any later version.
   
   xtb is distributed in the hope that it will be useful,
   but WITHOUT ANY WARRANTY; without even the implied warranty of
   MERCHANTABILITY or FITNESS FOR A PARTICULAR PURPOSE.  See the
   GNU Lesser General Public License for more details.
   
   Cite this work as:
   * C. Bannwarth, E. Caldeweyher, S. Ehlert, A. Hansen, P. Pracht,
     J. Seibert, S. Spicher, S. Grimme, WIREs Comput. Mol. Sci., 2020, 11,
     e01493. DOI: 10.1002/wcms.1493
   
   for GFN2-xTB:
   * C. Bannwarth, S. Ehlert and S. Grimme., J. Chem. Theory Comput., 2019,
     15, 1652-1671. DOI: 10.1021/acs.jctc.8b01176
   for GFN1-xTB:
   * S. Grimme, C. Bannwarth, P. Shushkov, J. Chem. Theory Comput., 2017,
     13, 1989-2009. DOI: 10.1021/acs.jctc.7b00118
   for GFN0-xTB:
   * P. Pracht, E. Caldeweyher, S. Ehlert, S. Grimme, ChemRxiv, 2019, preprint.
     DOI: 10.26434/chemrxiv.8326202.v1
   for GFN-FF:
   * S. Spicher and S. Grimme, Angew. Chem. Int. Ed., 2020, 59, 15665-15673.
     DOI: 10.1002/anie.202004239
   
   for ALPB and GBSA implicit solvation:
   * S. Ehlert, M. Stahn, S. Spicher, S. Grimme, J. Chem. Theory Comput.,
     2021, 17, 4250-4261. DOI: 10.1021/acs.jctc.1c00471
   
   for ddCOSMO and CPCM-X implicit solvation:
   * M. Stahn, S. Ehlert, S. Grimme, J. Phys. Chem. A,
     2023, XX, XXXX-XXXX. DOI: 10.1021/acs.jpca.3c04382
   
   for DFT-D4:
   * E. Caldeweyher, C. Bannwarth and S. Grimme, J. Chem. Phys., 2017,
     147, 034112. DOI: 10.1063/1.4993215
   * E. Caldeweyher, S. Ehlert, A. Hansen, H. Neugebauer, S. Spicher,
     C. Bannwarth and S. Grimme, J. Chem. Phys., 2019, 150, 154122.
     DOI: 10.1063/1.5090222
   * E. Caldeweyher, J.-M. Mewes, S. Ehlert and S. Grimme, Phys. Chem. Chem. Phys.
     2020, 22, 8499-8512. DOI: 10.1039/D0CP00502A
   
   for sTDA-xTB:
   * S. Grimme and C. Bannwarth, J. Chem. Phys., 2016, 145, 054103.
     DOI: 10.1063/1.4959605
   
   in the mass-spec context:
   * V. Asgeirsson, C. Bauer and S. Grimme, Chem. Sci., 2017, 8, 4879.
     DOI: 10.1039/c7sc00601b
   * J. Koopman and S. Grimme, ACS Omega 2019, 4, 12, 15120-15133.
     DOI: 10.1021/acsomega.9b02011
   
   for metadynamics refer to:
   * S. Grimme, J. Chem. Theory Comput., 2019, 155, 2847-2862
     DOI: 10.1021/acs.jctc.9b00143
   
   for SPH calculations refer to:
   * S. Spicher and S. Grimme, J. Chem. Theory Comput., 2021, 17, 1701-1714
     DOI: 10.1021/acs.jctc.0c01306
   
   for ONIOM refer to:
   * C. Plett, A. Katbashev, S. Ehlert, S. Grimme, M. Bursch,
     Phys. Chem. Chem. Phys., 2023, 25, 17860-17868. DOI: 10.1039/D3CP02178E
   
   for DIPRO refer to:
   * J. Kohn, N. Gildemeister, S. Grimme, D. Fazzi, A. Hansen,
     J. Chem. Phys., 2023, just accepted.
   
   for PTB refer to:
   * S. Grimme, M. Mueller, A. Hansen, J. Chem. Phys., 2023, 158, 124111.
     DOI: 10.1063/5.0137838
   
   with help from (in alphabetical order)
   P. Atkinson, C. Bannwarth, F. Bohle, G. Brandenburg, E. Caldeweyher
   M. Checinski, S. Dohm, S. Ehlert, S. Ehrlich, I. Gerasimov, C. Hölzer
   A. Katbashev, J. Kohn, J. Koopman, C. Lavigne, S. Lehtola, F. März, M. Müller,
   F. Musil, H. Neugebauer, J. Pisarek, C. Plett, P. Pracht, F. Pultar,
   J. Seibert, P. Shushkov, S. Spicher, M. Stahn, M. Steiner, T. Strunk,
   J. Stückrath, T. Rose, and J. Unsleber
   
 * started run on 2025/03/20 at 11:40:09.181     

           -------------------------------------------------
          |                Calculation Setup                |
           -------------------------------------------------

          program call               : xtb dimer_5.30.xyz --dipro 0.3 --chrg 0 --uhf 2 --input frag.inp --spinpol --tblite
          coordinate file            : dimer_5.30.xyz
          omp threads                :                     8

########################################################################
[WARNING] Please study the warnings concerning your input carefully
-2- userdata_read: could not find 'frag.inp'
-1- set_rdcontrol: could not find 'frag.inp'
########################################################################
Wavefunction read from restart file
           -------------------------------------------------
          |                    D I P R O                    |
           -------------------------------------------------
Calculation for dimer 
--------------------- 
  
charge of dimer :   0.
unpaired e- of dimer :  2
repulsion energy          7.0130790708893E+00 Eh
dispersion energy         2.6761316861686E-02 Eh
number of electrons       6.9800000000000E+02 e
integral cutoff           1.9311100799991E+01 bohr

------------------------------------------------------------
  cycle        total energy    energy error   density error
------------------------------------------------------------
      1     -393.8713472698  -4.0091119E+02   2.1740571E-01
      2     -384.9082426615   8.9631046E+00   1.5745181E-01
      3     -281.5930196309   1.0331522E+02   2.5129493E-01
      4     -342.6947664818  -6.1101747E+01   1.9894697E-01
      5     -384.3345044726  -4.1639738E+01   1.2850756E-01
      6     -386.9001759114  -2.5656714E+00   1.0673408E-01
      7     -384.8277737604   2.0724022E+00   1.0705916E-01
      8     -394.6835456069  -9.8557718E+00   7.5571926E-02
      9     -397.7226185394  -3.0390729E+00   5.7015045E-02
     10     -397.2841249069   4.3849363E-01   5.0294995E-02
     11     -397.6218104845  -3.3768558E-01   4.6907087E-02
     12     -397.7139448779  -9.2134393E-02   4.5403864E-02
     13     -397.9535649353  -2.3962006E-01   3.5398670E-02
     14     -398.2429678011  -2.8940287E-01   3.0451984E-02
     15     -398.0679804114   1.7498739E-01   3.0834985E-02
     16     -398.2554097171  -1.8742931E-01   2.2513758E-02
     17     -398.1957399269   5.9669790E-02   2.4640241E-02
     18     -398.3909803186  -1.9524039E-01   1.5634813E-02
     19     -398.3863509983   4.6293204E-03   1.3988328E-02
     20     -398.4175399179  -3.1188920E-02   1.1925179E-02
     21     -398.4384246401  -2.0884722E-02   8.3103778E-03
     22     -398.4560166012  -1.7591961E-02   6.5262450E-03
     23     -398.4627131102  -6.6965090E-03   4.9683534E-03
     24     -398.4660903104  -3.3772002E-03   4.1694050E-03
     25     -398.4684936068  -2.4032964E-03   3.2461750E-03
     26     -398.4671644397   1.3291672E-03   3.2185359E-03
     27     -398.4696498500  -2.4854103E-03   1.9270330E-03
     28     -398.4698239259  -1.7407593E-04   1.4920911E-03
     29     -398.4705373828  -7.1345692E-04   8.4100465E-04
     30     -398.4706502555  -1.1287261E-04   6.0462635E-04
     31     -398.4706879797  -3.7724225E-05   4.8956383E-04
     32     -398.4707708766  -8.2896872E-05   3.0036471E-04
     33     -398.4707776126  -6.7360710E-06   2.6186762E-04
     34     -398.4707832296  -5.6169720E-06   2.0934704E-04
     35     -398.4707886957  -5.4660532E-06   1.5434616E-04
     36     -398.4707917784  -3.0827480E-06   1.0617171E-04
     37     -398.4707939171  -2.1386667E-06   6.6849331E-05
     38     -398.4707946348  -7.1774809E-07   3.7856407E-05
     39     -398.4707949592  -3.2440101E-07   2.3439407E-05
     40     -398.4707949774  -1.8162439E-08   1.7006632E-05
------------------------------------------------------------

electronic energy        -4.0551063536513E+02 Eh
total energy             -3.9847079497738E+02 Eh

 total:                                   6.132 sec
 - repulsion                              0.000 sec (  0%)
 - dispersion                             0.011 sec (  0%)
 - coulomb                                0.004 sec (  0%)
 - hamiltonian                            0.015 sec (  0%)
 - scc                                    6.101 sec ( 99%)

!!!!!!!!!!!!!!!!!!!!!!!!!!!!!!!!!!!!!!!ERROR!!!!!!!!!!!!!!!!!!!!!!!!!!!!!!!!!!!!
Found no fragments in the input structure.
Aborting...
########################################################################
[ERROR] Program stopped due to fatal error
-3- Something in your DIPRO calculation went wrong.
-2- xtb_dipro: Found no fragments in input structure.
-1- xtb_dipro: No method provided, falling back to default GFN2-xTB.
########################################################################
abnormal termination of xtb
Note: The following floating-point exceptions are signalling: IEEE_UNDERFLOW_FLAG
ERROR STOP 

Error termination. Backtrace:
#0  0x10217bcf7
#1  0x10217cb07
#2  0x10217df17
#3  0x101053d43
#4  0x100f52893
#5  0x101205c57
Calculation failed for distance 5.3 Å: Could not parse J values from dimer_5.30.xyz
Stacking distance: 5.35 Å
      -----------------------------------------------------------      
     |                   =====================                   |     
     |                           x T B                           |     
     |                   =====================                   |     
     |                         S. Grimme                         |     
     |          Mulliken Center for Theoretical Chemistry        |     
     |                    University of Bonn                     |     
      -----------------------------------------------------------      

   * xtb version 6.7.1 (edcfbbe) compiled by 'runner@Mac-1732539442253.local' on 2024-11-25

   xtb is free software: you can redistribute it and/or modify it under
   the terms of the GNU Lesser General Public License as published by
   the Free Software Foundation, either version 3 of the License, or
   (at your option) any later version.
   
   xtb is distributed in the hope that it will be useful,
   but WITHOUT ANY WARRANTY; without even the implied warranty of
   MERCHANTABILITY or FITNESS FOR A PARTICULAR PURPOSE.  See the
   GNU Lesser General Public License for more details.
   
   Cite this work as:
   * C. Bannwarth, E. Caldeweyher, S. Ehlert, A. Hansen, P. Pracht,
     J. Seibert, S. Spicher, S. Grimme, WIREs Comput. Mol. Sci., 2020, 11,
     e01493. DOI: 10.1002/wcms.1493
   
   for GFN2-xTB:
   * C. Bannwarth, S. Ehlert and S. Grimme., J. Chem. Theory Comput., 2019,
     15, 1652-1671. DOI: 10.1021/acs.jctc.8b01176
   for GFN1-xTB:
   * S. Grimme, C. Bannwarth, P. Shushkov, J. Chem. Theory Comput., 2017,
     13, 1989-2009. DOI: 10.1021/acs.jctc.7b00118
   for GFN0-xTB:
   * P. Pracht, E. Caldeweyher, S. Ehlert, S. Grimme, ChemRxiv, 2019, preprint.
     DOI: 10.26434/chemrxiv.8326202.v1
   for GFN-FF:
   * S. Spicher and S. Grimme, Angew. Chem. Int. Ed., 2020, 59, 15665-15673.
     DOI: 10.1002/anie.202004239
   
   for ALPB and GBSA implicit solvation:
   * S. Ehlert, M. Stahn, S. Spicher, S. Grimme, J. Chem. Theory Comput.,
     2021, 17, 4250-4261. DOI: 10.1021/acs.jctc.1c00471
   
   for ddCOSMO and CPCM-X implicit solvation:
   * M. Stahn, S. Ehlert, S. Grimme, J. Phys. Chem. A,
     2023, XX, XXXX-XXXX. DOI: 10.1021/acs.jpca.3c04382
   
   for DFT-D4:
   * E. Caldeweyher, C. Bannwarth and S. Grimme, J. Chem. Phys., 2017,
     147, 034112. DOI: 10.1063/1.4993215
   * E. Caldeweyher, S. Ehlert, A. Hansen, H. Neugebauer, S. Spicher,
     C. Bannwarth and S. Grimme, J. Chem. Phys., 2019, 150, 154122.
     DOI: 10.1063/1.5090222
   * E. Caldeweyher, J.-M. Mewes, S. Ehlert and S. Grimme, Phys. Chem. Chem. Phys.
     2020, 22, 8499-8512. DOI: 10.1039/D0CP00502A
   
   for sTDA-xTB:
   * S. Grimme and C. Bannwarth, J. Chem. Phys., 2016, 145, 054103.
     DOI: 10.1063/1.4959605
   
   in the mass-spec context:
   * V. Asgeirsson, C. Bauer and S. Grimme, Chem. Sci., 2017, 8, 4879.
     DOI: 10.1039/c7sc00601b
   * J. Koopman and S. Grimme, ACS Omega 2019, 4, 12, 15120-15133.
     DOI: 10.1021/acsomega.9b02011
   
   for metadynamics refer to:
   * S. Grimme, J. Chem. Theory Comput., 2019, 155, 2847-2862
     DOI: 10.1021/acs.jctc.9b00143
   
   for SPH calculations refer to:
   * S. Spicher and S. Grimme, J. Chem. Theory Comput., 2021, 17, 1701-1714
     DOI: 10.1021/acs.jctc.0c01306
   
   for ONIOM refer to:
   * C. Plett, A. Katbashev, S. Ehlert, S. Grimme, M. Bursch,
     Phys. Chem. Chem. Phys., 2023, 25, 17860-17868. DOI: 10.1039/D3CP02178E
   
   for DIPRO refer to:
   * J. Kohn, N. Gildemeister, S. Grimme, D. Fazzi, A. Hansen,
     J. Chem. Phys., 2023, just accepted.
   
   for PTB refer to:
   * S. Grimme, M. Mueller, A. Hansen, J. Chem. Phys., 2023, 158, 124111.
     DOI: 10.1063/5.0137838
   
   with help from (in alphabetical order)
   P. Atkinson, C. Bannwarth, F. Bohle, G. Brandenburg, E. Caldeweyher
   M. Checinski, S. Dohm, S. Ehlert, S. Ehrlich, I. Gerasimov, C. Hölzer
   A. Katbashev, J. Kohn, J. Koopman, C. Lavigne, S. Lehtola, F. März, M. Müller,
   F. Musil, H. Neugebauer, J. Pisarek, C. Plett, P. Pracht, F. Pultar,
   J. Seibert, P. Shushkov, S. Spicher, M. Stahn, M. Steiner, T. Strunk,
   J. Stückrath, T. Rose, and J. Unsleber
   
 * started run on 2025/03/20 at 11:40:15.357     

           -------------------------------------------------
          |                Calculation Setup                |
           -------------------------------------------------

          program call               : xtb dimer_5.35.xyz --dipro 0.3 --chrg 0 --uhf 2 --input frag.inp --spinpol --tblite
          coordinate file            : dimer_5.35.xyz
          omp threads                :                     8

########################################################################
[WARNING] Please study the warnings concerning your input carefully
-2- userdata_read: could not find 'frag.inp'
-1- set_rdcontrol: could not find 'frag.inp'
########################################################################
Wavefunction read from restart file
           -------------------------------------------------
          |                    D I P R O                    |
           -------------------------------------------------
Calculation for dimer 
--------------------- 
  
charge of dimer :   0.
unpaired e- of dimer :  2
repulsion energy          6.6600785987664E+00 Eh
dispersion energy         2.6396229276104E-02 Eh
number of electrons       6.9800000000000E+02 e
integral cutoff           1.9311100799991E+01 bohr

------------------------------------------------------------
  cycle        total energy    energy error   density error
------------------------------------------------------------
      1     -395.0000784682  -4.0168655E+02   2.1929727E-01
      2     -397.1549602950  -2.1548818E+00   1.1230135E-01
      3     -378.6925840988   1.8462376E+01   1.3131143E-01
      4     -335.7461042325   4.2946480E+01   1.8270083E-01
      5     -390.1726978491  -5.4426594E+01   9.8430447E-02
      6     -396.8660209257  -6.6933231E+00   5.7549456E-02
      7     -397.8524712660  -9.8645034E-01   3.9768692E-02
      8     -398.0626419058  -2.1017064E-01   3.4449123E-02
      9     -398.5027644332  -4.4012253E-01   2.9391739E-02
     10     -398.6681706935  -1.6540626E-01   1.9544478E-02
     11     -398.7347641403  -6.6593447E-02   2.1020817E-02
     12     -398.7398874183  -5.1232780E-03   1.8414741E-02
     13     -398.7916154807  -5.1728062E-02   1.3185560E-02
     14     -398.8164344001  -2.4818919E-02   1.1937161E-02
     15     -398.8393733587  -2.2938959E-02   7.8895142E-03
     16     -398.8327270105   6.6463483E-03   8.5167630E-03
     17     -398.8545938408  -2.1866830E-02   3.8837375E-03
     18     -398.8550711394  -4.7729860E-04   3.3291869E-03
     19     -398.8584337536  -3.3626141E-03   2.1550566E-03
     20     -398.8591661049  -7.3235137E-04   2.0621425E-03
     21     -398.8583675357   7.9856924E-04   2.0833374E-03
     22     -398.8608064874  -2.4389517E-03   7.2050961E-04
     23     -398.8610389013  -2.3241390E-04   2.8735353E-04
     24     -398.8610149855   2.3915829E-05   3.0609658E-04
     25     -398.8610517127  -3.6727179E-05   1.4627694E-04
     26     -398.8610395162   1.2196516E-05   1.9439305E-04
     27     -398.8610523834  -1.2867194E-05   1.0797057E-04
     28     -398.8610568084  -4.4250157E-06   5.5601407E-05
     29     -398.8610578994  -1.0910410E-06   2.3552604E-05
     30     -398.8610580560  -1.5657997E-07   1.3821912E-05
------------------------------------------------------------

electronic energy        -4.0554753288405E+02 Eh
total energy             -3.9886105805601E+02 Eh

 total:                                   4.746 sec
 - repulsion                              0.000 sec (  0%)
 - dispersion                             0.011 sec (  0%)
 - coulomb                                0.004 sec (  0%)
 - hamiltonian                            0.015 sec (  0%)
 - scc                                    4.716 sec ( 99%)

!!!!!!!!!!!!!!!!!!!!!!!!!!!!!!!!!!!!!!!ERROR!!!!!!!!!!!!!!!!!!!!!!!!!!!!!!!!!!!!
Found no fragments in the input structure.
Aborting...
########################################################################
[ERROR] Program stopped due to fatal error
-3- Something in your DIPRO calculation went wrong.
-2- xtb_dipro: Found no fragments in input structure.
-1- xtb_dipro: No method provided, falling back to default GFN2-xTB.
########################################################################
abnormal termination of xtb
Note: The following floating-point exceptions are signalling: IEEE_UNDERFLOW_FLAG
ERROR STOP 

Error termination. Backtrace:
#0  0x101c67cf7
#1  0x101c68b07
#2  0x101c69f17
#3  0x100a4bd43
#4  0x10094a893
#5  0x100bfdc57
Calculation failed for distance 5.35 Å: Could not parse J values from dimer_5.35.xyz
Stacking distance: 5.4 Å
      -----------------------------------------------------------      
     |                   =====================                   |     
     |                           x T B                           |     
     |                   =====================                   |     
     |                         S. Grimme                         |     
     |          Mulliken Center for Theoretical Chemistry        |     
     |                    University of Bonn                     |     
      -----------------------------------------------------------      

   * xtb version 6.7.1 (edcfbbe) compiled by 'runner@Mac-1732539442253.local' on 2024-11-25

   xtb is free software: you can redistribute it and/or modify it under
   the terms of the GNU Lesser General Public License as published by
   the Free Software Foundation, either version 3 of the License, or
   (at your option) any later version.
   
   xtb is distributed in the hope that it will be useful,
   but WITHOUT ANY WARRANTY; without even the implied warranty of
   MERCHANTABILITY or FITNESS FOR A PARTICULAR PURPOSE.  See the
   GNU Lesser General Public License for more details.
   
   Cite this work as:
   * C. Bannwarth, E. Caldeweyher, S. Ehlert, A. Hansen, P. Pracht,
     J. Seibert, S. Spicher, S. Grimme, WIREs Comput. Mol. Sci., 2020, 11,
     e01493. DOI: 10.1002/wcms.1493
   
   for GFN2-xTB:
   * C. Bannwarth, S. Ehlert and S. Grimme., J. Chem. Theory Comput., 2019,
     15, 1652-1671. DOI: 10.1021/acs.jctc.8b01176
   for GFN1-xTB:
   * S. Grimme, C. Bannwarth, P. Shushkov, J. Chem. Theory Comput., 2017,
     13, 1989-2009. DOI: 10.1021/acs.jctc.7b00118
   for GFN0-xTB:
   * P. Pracht, E. Caldeweyher, S. Ehlert, S. Grimme, ChemRxiv, 2019, preprint.
     DOI: 10.26434/chemrxiv.8326202.v1
   for GFN-FF:
   * S. Spicher and S. Grimme, Angew. Chem. Int. Ed., 2020, 59, 15665-15673.
     DOI: 10.1002/anie.202004239
   
   for ALPB and GBSA implicit solvation:
   * S. Ehlert, M. Stahn, S. Spicher, S. Grimme, J. Chem. Theory Comput.,
     2021, 17, 4250-4261. DOI: 10.1021/acs.jctc.1c00471
   
   for ddCOSMO and CPCM-X implicit solvation:
   * M. Stahn, S. Ehlert, S. Grimme, J. Phys. Chem. A,
     2023, XX, XXXX-XXXX. DOI: 10.1021/acs.jpca.3c04382
   
   for DFT-D4:
   * E. Caldeweyher, C. Bannwarth and S. Grimme, J. Chem. Phys., 2017,
     147, 034112. DOI: 10.1063/1.4993215
   * E. Caldeweyher, S. Ehlert, A. Hansen, H. Neugebauer, S. Spicher,
     C. Bannwarth and S. Grimme, J. Chem. Phys., 2019, 150, 154122.
     DOI: 10.1063/1.5090222
   * E. Caldeweyher, J.-M. Mewes, S. Ehlert and S. Grimme, Phys. Chem. Chem. Phys.
     2020, 22, 8499-8512. DOI: 10.1039/D0CP00502A
   
   for sTDA-xTB:
   * S. Grimme and C. Bannwarth, J. Chem. Phys., 2016, 145, 054103.
     DOI: 10.1063/1.4959605
   
   in the mass-spec context:
   * V. Asgeirsson, C. Bauer and S. Grimme, Chem. Sci., 2017, 8, 4879.
     DOI: 10.1039/c7sc00601b
   * J. Koopman and S. Grimme, ACS Omega 2019, 4, 12, 15120-15133.
     DOI: 10.1021/acsomega.9b02011
   
   for metadynamics refer to:
   * S. Grimme, J. Chem. Theory Comput., 2019, 155, 2847-2862
     DOI: 10.1021/acs.jctc.9b00143
   
   for SPH calculations refer to:
   * S. Spicher and S. Grimme, J. Chem. Theory Comput., 2021, 17, 1701-1714
     DOI: 10.1021/acs.jctc.0c01306
   
   for ONIOM refer to:
   * C. Plett, A. Katbashev, S. Ehlert, S. Grimme, M. Bursch,
     Phys. Chem. Chem. Phys., 2023, 25, 17860-17868. DOI: 10.1039/D3CP02178E
   
   for DIPRO refer to:
   * J. Kohn, N. Gildemeister, S. Grimme, D. Fazzi, A. Hansen,
     J. Chem. Phys., 2023, just accepted.
   
   for PTB refer to:
   * S. Grimme, M. Mueller, A. Hansen, J. Chem. Phys., 2023, 158, 124111.
     DOI: 10.1063/5.0137838
   
   with help from (in alphabetical order)
   P. Atkinson, C. Bannwarth, F. Bohle, G. Brandenburg, E. Caldeweyher
   M. Checinski, S. Dohm, S. Ehlert, S. Ehrlich, I. Gerasimov, C. Hölzer
   A. Katbashev, J. Kohn, J. Koopman, C. Lavigne, S. Lehtola, F. März, M. Müller,
   F. Musil, H. Neugebauer, J. Pisarek, C. Plett, P. Pracht, F. Pultar,
   J. Seibert, P. Shushkov, S. Spicher, M. Stahn, M. Steiner, T. Strunk,
   J. Stückrath, T. Rose, and J. Unsleber
   
 * started run on 2025/03/20 at 11:40:20.154     

           -------------------------------------------------
          |                Calculation Setup                |
           -------------------------------------------------

          program call               : xtb dimer_5.40.xyz --dipro 0.3 --chrg 0 --uhf 2 --input frag.inp --spinpol --tblite
          coordinate file            : dimer_5.40.xyz
          omp threads                :                     8

########################################################################
[WARNING] Please study the warnings concerning your input carefully
-2- userdata_read: could not find 'frag.inp'
-1- set_rdcontrol: could not find 'frag.inp'
########################################################################
Wavefunction read from restart file
           -------------------------------------------------
          |                    D I P R O                    |
           -------------------------------------------------
Calculation for dimer 
--------------------- 
  
charge of dimer :   0.
unpaired e- of dimer :  2
repulsion energy          6.3532483027431E+00 Eh
dispersion energy         2.6030893960832E-02 Eh
number of electrons       6.9800000000000E+02 e
integral cutoff           1.9311100799991E+01 bohr

------------------------------------------------------------
  cycle        total energy    energy error   density error
------------------------------------------------------------
      1     -395.3336153449  -4.0171289E+02   2.1943389E-01
      2     -397.5122249623  -2.1786096E+00   1.1210413E-01
      3     -379.2275392404   1.8284686E+01   1.3085293E-01
      4     -338.3585043248   4.0869035E+01   1.8088088E-01
      5     -390.5280670563  -5.2169563E+01   9.8534559E-02
      6     -397.6191477185  -7.0910807E+00   5.6987377E-02
      7     -398.2857298476  -6.6658213E-01   3.8598188E-02
[...]
   
   for GFN2-xTB:
   * C. Bannwarth, S. Ehlert and S. Grimme., J. Chem. Theory Comput., 2019,
     15, 1652-1671. DOI: 10.1021/acs.jctc.8b01176
   for GFN1-xTB:
   * S. Grimme, C. Bannwarth, P. Shushkov, J. Chem. Theory Comput., 2017,
     13, 1989-2009. DOI: 10.1021/acs.jctc.7b00118
   for GFN0-xTB:
   * P. Pracht, E. Caldeweyher, S. Ehlert, S. Grimme, ChemRxiv, 2019, preprint.
     DOI: 10.26434/chemrxiv.8326202.v1
   for GFN-FF:
   * S. Spicher and S. Grimme, Angew. Chem. Int. Ed., 2020, 59, 15665-15673.
     DOI: 10.1002/anie.202004239
   
   for ALPB and GBSA implicit solvation:
   * S. Ehlert, M. Stahn, S. Spicher, S. Grimme, J. Chem. Theory Comput.,
     2021, 17, 4250-4261. DOI: 10.1021/acs.jctc.1c00471
   
   for ddCOSMO and CPCM-X implicit solvation:
   * M. Stahn, S. Ehlert, S. Grimme, J. Phys. Chem. A,
     2023, XX, XXXX-XXXX. DOI: 10.1021/acs.jpca.3c04382
   
   for DFT-D4:
   * E. Caldeweyher, C. Bannwarth and S. Grimme, J. Chem. Phys., 2017,
     147, 034112. DOI: 10.1063/1.4993215
   * E. Caldeweyher, S. Ehlert, A. Hansen, H. Neugebauer, S. Spicher,
     C. Bannwarth and S. Grimme, J. Chem. Phys., 2019, 150, 154122.
     DOI: 10.1063/1.5090222
   * E. Caldeweyher, J.-M. Mewes, S. Ehlert and S. Grimme, Phys. Chem. Chem. Phys.
     2020, 22, 8499-8512. DOI: 10.1039/D0CP00502A
   
   for sTDA-xTB:
   * S. Grimme and C. Bannwarth, J. Chem. Phys., 2016, 145, 054103.
     DOI: 10.1063/1.4959605
   
   in the mass-spec context:
   * V. Asgeirsson, C. Bauer and S. Grimme, Chem. Sci., 2017, 8, 4879.
     DOI: 10.1039/c7sc00601b
   * J. Koopman and S. Grimme, ACS Omega 2019, 4, 12, 15120-15133.
     DOI: 10.1021/acsomega.9b02011
   
   for metadynamics refer to:
   * S. Grimme, J. Chem. Theory Comput., 2019, 155, 2847-2862
     DOI: 10.1021/acs.jctc.9b00143
   
   for SPH calculations refer to:
   * S. Spicher and S. Grimme, J. Chem. Theory Comput., 2021, 17, 1701-1714
     DOI: 10.1021/acs.jctc.0c01306
   
   for ONIOM refer to:
   * C. Plett, A. Katbashev, S. Ehlert, S. Grimme, M. Bursch,
     Phys. Chem. Chem. Phys., 2023, 25, 17860-17868. DOI: 10.1039/D3CP02178E
   
   for DIPRO refer to:
   * J. Kohn, N. Gildemeister, S. Grimme, D. Fazzi, A. Hansen,
     J. Chem. Phys., 2023, just accepted.
   
   for PTB refer to:
   * S. Grimme, M. Mueller, A. Hansen, J. Chem. Phys., 2023, 158, 124111.
     DOI: 10.1063/5.0137838
   
   with help from (in alphabetical order)
   P. Atkinson, C. Bannwarth, F. Bohle, G. Brandenburg, E. Caldeweyher
   M. Checinski, S. Dohm, S. Ehlert, S. Ehrlich, I. Gerasimov, C. Hölzer
   A. Katbashev, J. Kohn, J. Koopman, C. Lavigne, S. Lehtola, F. März, M. Müller,
   F. Musil, H. Neugebauer, J. Pisarek, C. Plett, P. Pracht, F. Pultar,
   J. Seibert, P. Shushkov, S. Spicher, M. Stahn, M. Steiner, T. Strunk,
   J. Stückrath, T. Rose, and J. Unsleber
   
 * started run on 2025/03/20 at 11:48:55.748     

           -------------------------------------------------
          |                Calculation Setup                |
           -------------------------------------------------

          program call               : xtb dimer_9.95.xyz --dipro 0.3 --chrg 0 --uhf 2 --input frag.inp --spinpol --tblite
          coordinate file            : dimer_9.95.xyz
          omp threads                :                     8


molecular fragmentation (1/2 indicates fragments):
111111111111111111111111111111111111111111111111111111111111111111111111
111111111111111111111111111112222222222222222222222222222222222222222222
2222222222222222222222222222222222222222222222222222222222
# atoms in fragment 1/2:   101   101
 fragment masses (1/2) :      953.60      953.60
CMA distance (Bohr)    :  18.803
constraining FC (au)   :  0.0500
########################################################################
[WARNING] Please study the warnings concerning your input carefully
-2- userdata_read: could not find 'frag.inp'
-1- set_rdcontrol: could not find 'frag.inp'
########################################################################
Wavefunction read from restart file
           -------------------------------------------------
          |                    D I P R O                    |
           -------------------------------------------------
Calculation for dimer 
--------------------- 
  
charge of dimer :   0.
unpaired e- of dimer :  2
repulsion energy          5.0398145108268E+00 Eh
dispersion energy         5.3496443551346E-03 Eh
number of electrons       6.9800000000000E+02 e
integral cutoff           1.9311100799991E+01 bohr

------------------------------------------------------------
  cycle        total energy    energy error   density error
------------------------------------------------------------
      1     -397.6260710702  -4.0267124E+02   2.2002495E-01
      2     -400.7027926851  -3.0767216E+00   9.9575724E-02
      3     -399.9099689802   7.9282370E-01   6.6858761E-02
      4     -393.1876598897   6.7223091E+00   9.1004999E-02
      5     -398.5288984713  -5.3412386E+00   5.3674985E-02
      6     -399.7502595187  -1.2213610E+00   4.3606294E-02
      7     -400.6484901201  -8.9823060E-01   2.9909154E-02
      8     -400.8439582084  -1.9546809E-01   2.4191482E-02
      9     -400.8430105978   9.4761052E-04   2.1040401E-02
     10     -401.0755933964  -2.3258280E-01   1.3279740E-02
     11     -401.1106614755  -3.5068079E-02   1.1712682E-02
     12     -401.1242232994  -1.3561824E-02   7.6242662E-03
     13     -401.1249826964  -7.5939698E-04   7.8180168E-03
     14     -401.1365633123  -1.1580616E-02   4.5213210E-03
     15     -401.1362742299   2.8908239E-04   4.4067341E-03
     16     -401.1390270221  -2.7527922E-03   3.2228743E-03
     17     -401.1400764302  -1.0494081E-03   2.4202588E-03
     18     -401.1409443616  -8.6793142E-04   1.6154387E-03
     19     -401.1412965133  -3.5215165E-04   1.0132092E-03
     20     -401.1414204663  -1.2395302E-04   6.3525865E-04
     21     -401.1414326439  -1.2177650E-05   5.9426941E-04
     22     -401.1414791703  -4.6526420E-05   4.1125162E-04
     23     -401.1415638049  -8.4634528E-05   1.4824978E-04
     24     -401.1415676032  -3.7983332E-06   9.8036796E-05
     25     -401.1415679719  -3.6868829E-07   9.1024389E-05
     26     -401.1415702970  -2.3251292E-06   4.4330768E-05
     27     -401.1415710993  -8.0227289E-07   1.3214044E-05
------------------------------------------------------------

electronic energy        -4.0618673525448E+02 Eh
total energy             -4.0114157109930E+02 Eh

 total:                                   3.958 sec
 - repulsion                              0.000 sec (  0%)
 - dispersion                             0.010 sec (  0%)
 - coulomb                                0.004 sec (  0%)
 - hamiltonian                            0.012 sec (  0%)
 - scc                                    3.931 sec ( 99%)

Found 2 fragments!
Fragment 1:  1-101
Fragment 2:  102-202

[Info] Fragment spin read from .UHFfrag
Calculation for fragment 1
 ------------------------------
   
charge of fragment :   0.
unpaired e- of fragment :  1
------------------------------------------------------------
  cycle        total energy    energy error   density error
------------------------------------------------------------
      1     -198.8148825824  -2.0133488E+02   2.2002737E-01
      2     -200.3592466928  -1.5443641E+00   9.9535104E-02
      3     -200.0596058384   2.9964085E-01   6.6011357E-02
      4     -198.1238085949   1.9357972E+00   8.0526046E-02
      5     -199.9709648916  -1.8471563E+00   4.3490592E-02
      6     -200.3716628271  -4.0069794E-01   3.1268854E-02
      7     -200.5176545332  -1.4599171E-01   1.8516265E-02
      8     -200.5464787701  -2.8824237E-02   1.3915384E-02
      9     -200.5581885471  -1.1709777E-02   9.2451143E-03
     10     -200.5628678066  -4.6792595E-03   9.4318051E-03
     11     -200.5679282549  -5.0604483E-03   5.2676127E-03
     12     -200.5661919441   1.7363108E-03   5.9611288E-03
     13     -200.5710411872  -4.8492431E-03   2.8521275E-03
     14     -200.5707852315   2.5595571E-04   2.5995427E-03
     15     -200.5720972210  -1.3119895E-03   4.2839360E-04
     16     -200.5721056991  -8.4780412E-06   2.0478370E-04
     17     -200.5721109379  -5.2388689E-06   1.0596702E-04
     18     -200.5721082479   2.6900485E-06   1.4513337E-04
     19     -200.5721117612  -3.5132809E-06   5.8002744E-05
     20     -200.5721123997  -6.3852607E-07   8.7220357E-06
------------------------------------------------------------

 total:                                   0.864 sec
Calculation for fragment 2
 ------------------------------
   
charge of fragment :   0.
unpaired e- of fragment :  1
------------------------------------------------------------
  cycle        total energy    energy error   density error
------------------------------------------------------------
      1     -198.8148825824  -2.0133488E+02   2.2002737E-01
      2     -200.3592466928  -1.5443641E+00   9.9535104E-02
      3     -200.0596058384   2.9964085E-01   6.6011357E-02
      4     -198.1238085949   1.9357972E+00   8.0526046E-02
      5     -199.9709648916  -1.8471563E+00   4.3490592E-02
      6     -200.3716628271  -4.0069794E-01   3.1268854E-02
      7     -200.5176545332  -1.4599171E-01   1.8516265E-02
      8     -200.5464787701  -2.8824237E-02   1.3915384E-02
      9     -200.5581885471  -1.1709777E-02   9.2451143E-03
     10     -200.5628678066  -4.6792595E-03   9.4318051E-03
     11     -200.5679282549  -5.0604483E-03   5.2676127E-03
     12     -200.5661919441   1.7363108E-03   5.9611288E-03
     13     -200.5710411872  -4.8492431E-03   2.8521275E-03
     14     -200.5707852315   2.5595571E-04   2.5995427E-03
     15     -200.5720972210  -1.3119895E-03   4.2839360E-04
     16     -200.5721056991  -8.4780413E-06   2.0478370E-04
     17     -200.5721109379  -5.2388686E-06   1.0596702E-04
     18     -200.5721082479   2.6900482E-06   1.4513337E-04
     19     -200.5721117612  -3.5132809E-06   5.8002744E-05
     20     -200.5721123997  -6.3852599E-07   8.7220357E-06
------------------------------------------------------------

 total:                                   0.950 sec
   
   ::::::::::::::::::::::::::::::::::::::::::::::
   ::     D I P R O      C O U P L I N G S     ::
   ::::::::::::::::::::::::::::::::::::::::::::::
   
energy threshhold for near-degenerate orbitals near HOMO and LUMO considered for DIPRO:  0.300 eV
no. of orbitals within energy window of frag 1         6
no. of orbitals within energy window of frag 2         6
   
  Fragment 1 SOMO-3  Fragment 2 SOMO-3
--------------------------------------
E_mon(orb) frag1 frag2             -10.810   -10.800 eV
J(AB):               -0.000 eV
S(AB):             0.00000002 Eh
|J(AB,eff)|:            0.000 eV
   
  Fragment 1 SOMO-3  Fragment 2 SOMO-2
--------------------------------------
E_mon(orb) frag1 frag2             -10.810   -10.591 eV
J(AB):               -0.000 eV
S(AB):             0.00000000 Eh
|J(AB,eff)|:            0.000 eV
   
  Fragment 1 SOMO-3  Fragment 2 SOMO-1
--------------------------------------
E_mon(orb) frag1 frag2             -10.810   -10.558 eV
J(AB):               -0.000 eV
S(AB):             0.00000005 Eh
|J(AB,eff)|:            0.000 eV
   
  Fragment 1 SOMO-3  Fragment 2 SOMO 
--------------------------------------
E_mon(orb) frag1 frag2             -10.810   -10.543 eV
J(AB):                0.000 eV
S(AB):            -0.00000002 Eh
|J(AB,eff)|:            0.000 eV
   
  Fragment 1 SOMO-3  Fragment 2 LUMO 
--------------------------------------
E_mon(orb) frag1 frag2             -10.810   -10.246 eV
J(AB):                0.000 eV
S(AB):            -0.00000001 Eh
|J(AB,eff)|:            0.000 eV
   
  Fragment 1 SOMO-3  Fragment 2 LUMO+1
--------------------------------------
E_mon(orb) frag1 frag2             -10.810   -10.159 eV
J(AB):               -0.000 eV
S(AB):             0.00000001 Eh
|J(AB,eff)|:            0.000 eV
   
  Fragment 1 SOMO-2  Fragment 2 SOMO-3
--------------------------------------
E_mon(orb) frag1 frag2             -10.598   -10.800 eV
J(AB):               -0.000 eV
S(AB):             0.00000001 Eh
|J(AB,eff)|:            0.000 eV
   
  Fragment 1 SOMO-2  Fragment 2 SOMO-2
--------------------------------------
E_mon(orb) frag1 frag2             -10.598   -10.591 eV
J(AB):               -0.000 eV
S(AB):             0.00000000 Eh
|J(AB,eff)|:            0.000 eV
   
  Fragment 1 SOMO-2  Fragment 2 SOMO-1
--------------------------------------
E_mon(orb) frag1 frag2             -10.598   -10.558 eV
J(AB):               -0.000 eV
S(AB):             0.00000002 Eh
|J(AB,eff)|:            0.000 eV
   
  Fragment 1 SOMO-2  Fragment 2 SOMO 
--------------------------------------
E_mon(orb) frag1 frag2             -10.598   -10.543 eV
J(AB):                0.000 eV
S(AB):            -0.00000001 Eh
|J(AB,eff)|:            0.000 eV
   
  Fragment 1 SOMO-2  Fragment 2 LUMO 
--------------------------------------
E_mon(orb) frag1 frag2             -10.598   -10.246 eV
J(AB):                0.000 eV
S(AB):            -0.00000000 Eh
|J(AB,eff)|:            0.000 eV
   
  Fragment 1 SOMO-2  Fragment 2 LUMO+1
--------------------------------------
E_mon(orb) frag1 frag2             -10.598   -10.159 eV
J(AB):               -0.000 eV
S(AB):             0.00000001 Eh
|J(AB,eff)|:            0.000 eV
   
  Fragment 1 SOMO-1  Fragment 2 SOMO-3
--------------------------------------
E_mon(orb) frag1 frag2             -10.562   -10.800 eV
J(AB):                0.000 eV
S(AB):            -0.00000001 Eh
|J(AB,eff)|:            0.000 eV
   
  Fragment 1 SOMO-1  Fragment 2 SOMO-2
--------------------------------------
E_mon(orb) frag1 frag2             -10.562   -10.591 eV
J(AB):                0.000 eV
S(AB):            -0.00000000 Eh
|J(AB,eff)|:            0.000 eV
   
  Fragment 1 SOMO-1  Fragment 2 SOMO-1
--------------------------------------
E_mon(orb) frag1 frag2             -10.562   -10.558 eV
J(AB):                0.000 eV
S(AB):            -0.00000001 Eh
|J(AB,eff)|:            0.000 eV
   
  Fragment 1 SOMO-1  Fragment 2 SOMO 
--------------------------------------
E_mon(orb) frag1 frag2             -10.562   -10.543 eV
J(AB):               -0.000 eV
S(AB):             0.00000001 Eh
|J(AB,eff)|:            0.000 eV
   
  Fragment 1 SOMO-1  Fragment 2 LUMO 
--------------------------------------
E_mon(orb) frag1 frag2             -10.562   -10.246 eV
J(AB):               -0.000 eV
S(AB):             0.00000000 Eh
|J(AB,eff)|:            0.000 eV
   
  Fragment 1 SOMO-1  Fragment 2 LUMO+1
--------------------------------------
E_mon(orb) frag1 frag2             -10.562   -10.159 eV
J(AB):                0.000 eV
S(AB):            -0.00000000 Eh
|J(AB,eff)|:            0.000 eV
   
  Fragment 1 SOMO   Fragment 2 SOMO-3
--------------------------------------
E_mon(orb) frag1 frag2             -10.552   -10.800 eV
J(AB):                0.000 eV
S(AB):            -0.00000001 Eh
|J(AB,eff)|:            0.000 eV
   
  Fragment 1 SOMO   Fragment 2 SOMO-2
--------------------------------------
E_mon(orb) frag1 frag2             -10.552   -10.591 eV
J(AB):                0.000 eV
S(AB):            -0.00000000 Eh
|J(AB,eff)|:            0.000 eV
   
  Fragment 1 SOMO   Fragment 2 SOMO-1
--------------------------------------
E_mon(orb) frag1 frag2             -10.552   -10.558 eV
J(AB):                0.000 eV
S(AB):            -0.00000002 Eh
|J(AB,eff)|:            0.000 eV
   
  Fragment 1 SOMO   Fragment 2 SOMO 
--------------------------------------
E_mon(orb) frag1 frag2             -10.552   -10.543 eV
J(AB):               -0.000 eV
S(AB):             0.00000001 Eh
|J(AB,eff)|:            0.000 eV
   
  Fragment 1 SOMO   Fragment 2 LUMO 
--------------------------------------
E_mon(orb) frag1 frag2             -10.552   -10.246 eV
J(AB):               -0.000 eV
S(AB):             0.00000000 Eh
|J(AB,eff)|:            0.000 eV
   
  Fragment 1 SOMO   Fragment 2 LUMO+1
--------------------------------------
E_mon(orb) frag1 frag2             -10.552   -10.159 eV
J(AB):                0.000 eV
S(AB):            -0.00000000 Eh
|J(AB,eff)|:            0.000 eV
   
  Fragment 1 LUMO   Fragment 2 SOMO-3
--------------------------------------
E_mon(orb) frag1 frag2             -10.249   -10.800 eV
J(AB):                0.000 eV
S(AB):            -0.00000000 Eh
|J(AB,eff)|:            0.000 eV
   
  Fragment 1 LUMO   Fragment 2 SOMO-2
--------------------------------------
E_mon(orb) frag1 frag2             -10.249   -10.591 eV
J(AB):               -0.000 eV
S(AB):             0.00000000 Eh
|J(AB,eff)|:            0.000 eV
   
  Fragment 1 LUMO   Fragment 2 SOMO-1
--------------------------------------
E_mon(orb) frag1 frag2             -10.249   -10.558 eV
J(AB):                0.000 eV
S(AB):            -0.00000000 Eh
|J(AB,eff)|:            0.000 eV
   
  Fragment 1 LUMO   Fragment 2 SOMO 
--------------------------------------
E_mon(orb) frag1 frag2             -10.249   -10.543 eV
J(AB):               -0.000 eV
S(AB):             0.00000000 Eh
|J(AB,eff)|:            0.000 eV
   
  Fragment 1 LUMO   Fragment 2 LUMO 
--------------------------------------
E_mon(orb) frag1 frag2             -10.249   -10.246 eV
J(AB):               -0.000 eV
S(AB):             0.00000000 Eh
|J(AB,eff)|:            0.000 eV
   
  Fragment 1 LUMO   Fragment 2 LUMO+1
--------------------------------------
E_mon(orb) frag1 frag2             -10.249   -10.159 eV
J(AB):               -0.000 eV
S(AB):             0.00000000 Eh
|J(AB,eff)|:            0.000 eV
   
  Fragment 1 LUMO+1  Fragment 2 SOMO-3
--------------------------------------
E_mon(orb) frag1 frag2             -10.163   -10.800 eV
J(AB):                0.000 eV
S(AB):            -0.00000000 Eh
|J(AB,eff)|:            0.000 eV
   
  Fragment 1 LUMO+1  Fragment 2 SOMO-2
--------------------------------------
E_mon(orb) frag1 frag2             -10.163   -10.591 eV
J(AB):               -0.000 eV
S(AB):             0.00000000 Eh
|J(AB,eff)|:            0.000 eV
   
  Fragment 1 LUMO+1  Fragment 2 SOMO-1
--------------------------------------
E_mon(orb) frag1 frag2             -10.163   -10.558 eV
J(AB):                0.000 eV
S(AB):            -0.00000000 Eh
|J(AB,eff)|:            0.000 eV
   
  Fragment 1 LUMO+1  Fragment 2 SOMO 
--------------------------------------
E_mon(orb) frag1 frag2             -10.163   -10.543 eV
J(AB):               -0.000 eV
S(AB):             0.00000000 Eh
|J(AB,eff)|:            0.000 eV
   
  Fragment 1 LUMO+1  Fragment 2 LUMO 
--------------------------------------
E_mon(orb) frag1 frag2             -10.163   -10.246 eV
J(AB):               -0.000 eV
S(AB):             0.00000000 Eh
|J(AB,eff)|:            0.000 eV
   
  Fragment 1 LUMO+1  Fragment 2 LUMO+1
--------------------------------------
E_mon(orb) frag1 frag2             -10.163   -10.159 eV
J(AB):               -0.000 eV
S(AB):             0.00000000 Eh
|J(AB,eff)|:            0.000 eV
   
..............................................................................
:  total |J(AB,eff)| for hole transport (occ. MOs) :               0.000 eV  :
:  total |J(AB,eff)| for charge transport (unocc. MOs) :           0.000 eV  :
:  total |J(AB,eff)| for charge transfer (CT) :                    0.000 eV  :
..............................................................................
  
 Please remember, DIPRO is not available for restart!
   
normal termination of dipro
----------------------------------------------------------
 * finished run on 2025/03/20 at 11:49:01.556     
----------------------------------------------------------
 dipro:
 * wall-time:     0 d,  0 h,  0 min,  5.796 sec
 *  cpu-time:     0 d,  0 h,  0 min, 18.694 sec
 * ratio c/w:     3.225 speedup
normal termination of xtb
Note: The following floating-point exceptions are signalling: IEEE_UNDERFLOW_FLAG
Calculated J at 9.95 Å: Hole=NaN eV, Electron=NaN eV
Results saved in transfer_integrals_vs_distance.csv
