202
 energy: -401.112999485464 gnorm: 0.234784145200 xtb: 6.7.1 (edcfbbe)
C            0.25060000000000        4.21380000000000        1.71660000000000
C            0.35540000000000        3.16020000000000        2.62010000000000
C            1.62010000000000        2.87900000000000        3.25350000000000
C            2.59550000000000        3.92520000000000        3.18950000000000
C            2.42850000000000        4.97660000000000        2.27350000000000
C            1.28630000000000        5.11270000000000        1.52650000000000
C            1.94270000000000        1.71150000000000        4.04780000000000
C            2.96140000000000        1.91540000000000        5.00050000000000
C            3.70500000000000        3.13230000000000        5.02790000000000
N            3.61900000000000        4.05340000000000        4.05700000000000
C            1.50690000000000        0.34340000000000        3.89570000000000
C            2.08140000000000       -0.63640000000000        4.76840000000000
N            2.85570000000000       -0.35590000000000        5.83510000000000
C            3.28470000000000        0.90460000000000        5.95120000000000
C            4.14100000000000        1.21380000000000        7.01310000000000
C            4.76740000000000        2.43990000000000        7.09680000000000
C            4.59280000000000        3.36330000000000        6.08520000000000
C            0.69990000000000       -0.16340000000000        2.81790000000000
C            0.65040000000000       -1.53320000000000        2.56960000000000
C            1.23600000000000       -2.45970000000000        3.41420000000000
C            1.89590000000000       -2.00660000000000        4.52220000000000
O           -0.82760000000000        2.55400000000000        2.99180000000000
O           -0.07450000000000        0.59180000000000        1.96560000000000
C            1.09470000000000        6.31050000000000        0.68110000000000
C            1.08270000000000       -3.91350000000000        3.18650000000000
C            5.60070000000000        2.77060000000000        8.27090000000000
C           -1.88550000000000       -1.48880000000000        4.03540000000000
C           -2.52300000000000       -0.67680000000000        3.11340000000000
C           -3.44610000000000       -1.23500000000000        2.17160000000000
C           -3.58430000000000       -2.65750000000000        2.17570000000000
C           -2.83820000000000       -3.43500000000000        3.08230000000000
C           -2.02450000000000       -2.85870000000000        4.02360000000000
C           -4.37870000000000       -0.46080000000000        1.39650000000000
C           -5.43730000000000       -1.18400000000000        0.81900000000000
C           -5.39960000000000       -2.60750000000000        0.76970000000000
N           -4.46430000000000       -3.33090000000000        1.40440000000000
C           -4.49270000000000        0.97530000000000        1.29650000000000
C           -5.79140000000000        1.51710000000000        1.04180000000000
N           -6.81160000000000        0.80190000000000        0.53040000000000
C           -6.58730000000000       -0.50430000000000        0.31610000000000
C           -7.57800000000000       -1.24500000000000       -0.33670000000000
C           -7.48860000000000       -2.61600000000000       -0.46850000000000
C           -6.42090000000000       -3.28710000000000        0.09560000000000
C           -3.40850000000000        1.92290000000000        1.38190000000000
C           -3.69490000000000        3.26360000000000        1.61910000000000
C           -4.99710000000000        3.73700000000000        1.59890000000000
C           -6.01800000000000        2.88400000000000        1.26460000000000
O           -2.20810000000000        0.65180000000000        3.24110000000000
O           -2.09150000000000        1.57640000000000        1.14290000000000
C           -1.29120000000000       -3.62890000000000        5.04490000000000
C           -5.29430000000000        5.15510000000000        1.87810000000000
C           -8.56850000000000       -3.35520000000000       -1.15920000000000
B           -1.28410000000000        1.34150000000000        2.33480000000000
O            6.23190000000000        3.80890000000000        8.28750000000000
O            5.58300000000000        1.87160000000000        9.29780000000000
C            6.36190000000000        2.35280000000000       10.34350000000000
O            0.24200000000000       -4.27040000000000        2.17300000000000
C            0.11780000000000       -5.65340000000000        2.13790000000000
O            1.67130000000000       -4.70720000000000        3.89540000000000
O           -0.62530000000000       -3.01580000000000        5.85840000000000
O           -1.39100000000000       -4.98760000000000        5.02130000000000
C           -0.60630000000000       -5.48700000000000        6.04940000000000
O           -9.36030000000000       -2.75240000000000       -1.85720000000000
O           -8.61550000000000       -4.70370000000000       -0.95230000000000
C           -9.65950000000000       -5.24680000000000       -1.69320000000000
O           -6.45260000000000        5.51410000000000        1.96410000000000
O           -4.22570000000000        5.98680000000000        2.03610000000000
C           -4.68520000000000        7.23970000000000        2.42170000000000
O            1.81760000000000        7.27460000000000        0.84190000000000
O            0.07480000000000        6.26130000000000       -0.22280000000000
C            0.02870000000000        7.45120000000000       -0.93940000000000
H           -9.47200000000000       -5.05690000000000       -2.75310000000000
H          -10.59380000000000       -4.76290000000000       -1.39680000000000
H           -9.71230000000000       -6.32130000000000       -1.50540000000000
H           -3.84050000000000        7.92930000000000        2.47850000000000
H           -5.16160000000000        7.13370000000000        3.40260000000000
H           -5.41710000000000        7.58950000000000        1.68840000000000
H           -0.78190000000000        7.39430000000000       -1.66940000000000
H            0.98660000000000        7.59240000000000       -1.44700000000000
H           -0.14410000000000        8.27670000000000       -0.24430000000000
H           -0.45580000000000       -6.55980000000000        5.91100000000000
H           -1.11500000000000       -5.28380000000000        6.99490000000000
H            0.34740000000000       -4.94820000000000        6.02440000000000
H           -0.31090000000000       -5.98610000000000        3.08700000000000
H            1.10900000000000       -6.09340000000000        2.00350000000000
H           -0.53710000000000       -5.93110000000000        1.30920000000000
H            6.28860000000000        1.66580000000000       11.18950000000000
H            5.99400000000000        3.34330000000000       10.62530000000000
H            7.39750000000000        2.43020000000000       10.00280000000000
H           -8.45170000000000       -0.74230000000000       -0.71280000000000
H           -6.39240000000000       -4.36050000000000        0.04950000000000
H           -7.01530000000000        3.27620000000000        1.17030000000000
H           -2.96160000000000       -4.50240000000000        3.08080000000000
H           -2.88770000000000        3.95150000000000        1.78910000000000
H           -1.26430000000000       -1.02350000000000        4.78150000000000
H           -0.68660000000000        4.38570000000000        1.22060000000000
H            0.07290000000000       -1.88140000000000        1.73270000000000
H            2.27550000000000       -2.72590000000000        5.22790000000000
H            3.18470000000000        5.73860000000000        2.21240000000000
H            5.11910000000000        4.30030000000000        6.13590000000000
H            4.32000000000000        0.47880000000000        7.77680000000000
C            0.88680000000000        4.18040000000000        6.70880000000000
C            0.66060000000000        3.18040000000000        7.65840000000000
C            1.62160000000000        2.96480000000000        8.71840000000000
C            2.50690000000000        4.06680000000000        8.96300000000000
C            2.65680000000000        5.07860000000000        8.00000000000000
C            1.89380000000000        5.11790000000000        6.86320000000000
C            1.71170000000000        1.82090000000000        9.61080000000000
C            2.37750000000000        2.08040000000000       10.82840000000000
C            3.00010000000000        3.34150000000000       11.07220000000000
N            3.15750000000000        4.27090000000000       10.12220000000000
C            1.41910000000000        0.42290000000000        9.36480000000000
C            1.80060000000000       -0.53120000000000       10.36470000000000
N            2.17910000000000       -0.20660000000000       11.61690000000000
C            2.48330000000000        1.07740000000000       11.83760000000000
C            3.03690000000000        1.40540000000000       13.08100000000000
C            3.56420000000000        2.65490000000000       13.33020000000000
C            3.56530000000000        3.59940000000000       12.32620000000000
C            0.96190000000000       -0.14020000000000        8.12460000000000
C            1.12160000000000       -1.49760000000000        7.85990000000000
C            1.64050000000000       -2.37680000000000        8.79120000000000
C            1.89720000000000       -1.90100000000000       10.05060000000000
O           -0.59880000000000        2.60800000000000        7.64740000000000
O            0.35840000000000        0.55030000000000        7.10700000000000
C            2.07510000000000        6.22480000000000        5.89930000000000
C            2.00040000000000       -3.76350000000000        8.40480000000000
C            4.17570000000000        2.96730000000000       14.63850000000000
C           -1.86300000000000       -1.54980000000000        8.61320000000000
C           -2.41670000000000       -0.60000000000000        7.76330000000000
C           -3.38720000000000       -1.00000000000000        6.77430000000000
C           -3.72390000000000       -2.39030000000000        6.74560000000000
C           -3.07540000000000       -3.30240000000000        7.59640000000000
C           -2.15290000000000       -2.89510000000000        8.52170000000000
C           -4.12920000000000       -0.12320000000000        5.89750000000000
C           -5.22820000000000       -0.68580000000000        5.22570000000000
C           -5.42400000000000       -2.09430000000000        5.23160000000000
N           -4.66100000000000       -2.93290000000000        5.94290000000000
C           -3.93440000000000        1.27730000000000        5.63370000000000
C           -5.01280000000000        2.04220000000000        5.08920000000000
N           -6.09990000000000        1.48210000000000        4.52500000000000
C           -6.14690000000000        0.13940000000000        4.50660000000000
C           -7.17310000000000       -0.47180000000000        3.77650000000000
C           -7.31790000000000       -1.84410000000000        3.74160000000000
C           -6.45760000000000       -2.64010000000000        4.46700000000000
C           -2.67760000000000        1.94910000000000        5.76920000000000
C           -2.64060000000000        3.33560000000000        5.73630000000000
C           -3.75330000000000        4.09070000000000        5.41380000000000
C           -4.91090000000000        3.44680000000000        5.04770000000000
O           -1.95580000000000        0.67840000000000        8.01090000000000
O           -1.49100000000000        1.25760000000000        5.84040000000000
C           -1.43010000000000       -3.84570000000000        9.39530000000000
C           -3.63320000000000        5.56400000000000        5.41750000000000
C           -8.37260000000000       -2.46970000000000        2.91930000000000
B           -0.90550000000000        1.27280000000000        7.16680000000000
O            4.71340000000000        4.04430000000000       14.80750000000000
O            4.09730000000000        1.99620000000000       15.59390000000000
C            4.69740000000000        2.44850000000000       16.76330000000000
O            2.17100000000000       -3.97920000000000        7.06580000000000
C            2.71660000000000       -5.23930000000000        6.83750000000000
O            2.17580000000000       -4.61420000000000        9.25380000000000
O           -0.87670000000000       -3.42300000000000       10.39200000000000
O           -1.39430000000000       -5.15360000000000        9.00970000000000
C           -0.59280000000000       -5.86020000000000        9.90010000000000
O           -9.07450000000000       -1.77930000000000        2.20740000000000
O           -8.47380000000000       -3.82920000000000        3.00760000000000
C           -9.41320000000000       -4.29380000000000        2.09480000000000
O           -4.59420000000000        6.26770000000000        5.18350000000000
O           -2.38660000000000        6.03950000000000        5.71080000000000
C           -2.38760000000000        7.42850000000000        5.71500000000000
O            2.98920000000000        7.00870000000000        6.06420000000000
O            1.18460000000000        6.31050000000000        4.86970000000000
C            1.48870000000000        7.42050000000000        4.08580000000000
H           -8.95310000000000       -4.28240000000000        1.10490000000000
H          -10.28620000000000       -3.63520000000000        2.11040000000000
H           -9.69880000000000       -5.31270000000000        2.36350000000000
H           -1.41680000000000        7.77750000000000        6.07400000000000
H           -3.18490000000000        7.77910000000000        6.37520000000000
H           -2.56160000000000        7.78480000000000        4.69800000000000
H            0.93060000000000        7.36040000000000        3.14860000000000
H            2.56290000000000        7.42590000000000        3.88060000000000
H            1.21940000000000        8.32630000000000        4.63340000000000
H           -0.50530000000000       -6.89610000000000        9.56620000000000
H           -1.04860000000000       -5.81620000000000       10.89250000000000
H            0.39250000000000       -5.38320000000000        9.92910000000000
H            2.10840000000000       -5.99450000000000        7.33980000000000
H            3.73120000000000       -5.25930000000000        7.24120000000000
H            2.73600000000000       -5.41570000000000        5.75800000000000
H            4.62760000000000        1.66870000000000       17.52470000000000
H            4.17940000000000        3.35150000000000       17.09660000000000
H            5.74430000000000        2.68280000000000       16.55420000000000
H           -7.85350000000000        0.13840000000000        3.20960000000000
H           -6.58800000000000       -3.70680000000000        4.44530000000000
H           -5.74670000000000        4.02850000000000        4.70120000000000
H           -3.31680000000000       -4.34680000000000        7.51640000000000
H           -1.71550000000000        3.83590000000000        5.94250000000000
H           -1.15860000000000       -1.22440000000000        9.35710000000000
H            0.22070000000000        4.28590000000000        5.87380000000000
H            0.78720000000000       -1.87900000000000        6.91120000000000
H            2.25020000000000       -2.58520000000000       10.80180000000000
H            3.37600000000000        5.86080000000000        8.17040000000000
H            4.02190000000000        4.55530000000000       12.51200000000000
H            3.09070000000000        0.65250000000000       13.84660000000000
202
 energy: -401.168447795749 gnorm: 0.112998516286 xtb: 6.7.1 (edcfbbe)
C            0.23777103589756        4.20683185539993        1.72853205517544
C            0.33697861051256        3.15352866178486        2.63217614609856
C            1.59209630017244        2.87591508854266        3.26038673270569
C            2.58195141402413        3.92035146490929        3.19353263833116
C            2.43265018320412        4.97653186190505        2.27339032032150
C            1.28493153236353        5.10501527499367        1.52937337622131
C            1.93220365846605        1.71158397624937        4.04229202972742
C            2.95165552604536        1.91676611910164        4.99777122362915
C            3.69685578453884        3.13291097341197        5.02765380870406
N            3.60142421666157        4.03956040437688        4.05346819118821
C            1.49456148576394        0.35019811236484        3.87713894346368
C            2.07306323071940       -0.63109163240309        4.75892865062532
N            2.84476342584380       -0.34776199443621        5.81572293063907
C            3.27960529512151        0.90172579408700        5.94366220094547
C            4.13408646342135        1.20526954425312        7.01689805434817
C            4.75682374284140        2.43804392981254        7.09990808782291
C            4.58852612534334        3.37126757737939        6.08696401596637
C            0.67247956998643       -0.15535475809165        2.81685664577440
C            0.63147780251842       -1.52506142305517        2.56714939526657
C            1.23169824165611       -2.45447897631921        3.41245165646196
C            1.89287614232342       -2.00835869976901        4.52703171026347
O           -0.82263107711900        2.55239685200650        2.99905448137755
O           -0.07361793757236        0.58183854190068        1.96241636913790
C            1.11197983072626        6.30770650069997        0.68478674543655
C            1.09185695974197       -3.90853026092695        3.19514614197695
C            5.60307414805071        2.78595751525949        8.26116927209251
C           -1.87877065212445       -1.48375787000244        4.03269567299135
C           -2.50822478794444       -0.66295518174422        3.11131663822907
C           -3.44041296069962       -1.21596286694516        2.18258959689535
C           -3.58638445745626       -2.64806182161555        2.18067013583334
C           -2.84105358601480       -3.44536423266900        3.07424718796873
C           -2.03143024313075       -2.86478616253890        4.01642205891418
C           -4.37220147318853       -0.45229543999739        1.40144335063652
C           -5.43303133463216       -1.17938460714575        0.82326017482162
C           -5.39676330256644       -2.60400963710240        0.77831011172316
N           -4.46292801139742       -3.31276495552292        1.41351058797002
C           -4.46738348362765        0.97883751895344        1.29187402126331
C           -5.77917374832539        1.51526156679715        1.04212263569658
N           -6.78910015842802        0.79786339065669        0.53720420123860
C           -6.58389600900365       -0.50290486738592        0.31946788542363
C           -7.58332308219633       -1.24043932134294       -0.33381534984003
C           -7.48519068275442       -2.61802600749125       -0.46235998235621
C           -6.41669764114986       -3.29593248465489        0.10110220850672
C           -3.39100297827307        1.91735666522677        1.37388695563567
C           -3.68148318412931        3.25610489201624        1.60856963303488
C           -4.99275596214125        3.73105163581186        1.59639623067013
C           -6.02151753925055        2.88368134429799        1.26483493870020
O           -2.21152527023349        0.64527120305986        3.25055859382645
O           -2.09539818178362        1.56862870761709        1.14413866164685
C           -1.29518095360729       -3.61555204890669        5.04477246800566
C           -5.30967624191857        5.14631902664667        1.87952457477678
C           -8.56854376386815       -3.33620167202708       -1.17056786233942
B           -1.28108862571777        1.33624265760840        2.34166479408235
O            6.23876876233584        3.81059885222736        8.29343840153767
O            5.57909036829334        1.89566482005876        9.27832494133206
C            6.36487398856798        2.35416370950947       10.35080592587457
O            0.25802436864058       -4.26256219935002        2.19599697329569
C            0.11593460766240       -5.65981227028287        2.13459617562985
O            1.66906825417079       -4.71414217573338        3.88957877218783
O           -0.62676847254310       -3.02242089766307        5.86368033271839
O           -1.38674200266278       -4.95658306509890        5.01398709910502
C           -0.60343808716057       -5.49903441232310        6.04862208951077
O           -9.36282947960446       -2.75286069332370       -1.86570694386570
O           -8.60892123665052       -4.67450423718314       -0.97118449380344
C           -9.66352041591379       -5.25256502911179       -1.69987597384871
O           -6.45479130103917        5.52190544226733        1.96636970035266
O           -4.25015616187195        5.96697099827017        2.03576175400209
C           -4.68532691795588        7.24899557930922        2.41922490525957
O            1.81930839842300        7.27869512001438        0.82871296564681
O            0.09889298183688        6.25995956058742       -0.20423549354875
C            0.02601542229453        7.45383715696471       -0.94352973493916
H           -9.49301132623815       -5.07168716979418       -2.76379037050888
H          -10.60450039031965       -4.77820513563251       -1.40832405137797
H           -9.69797278082504       -6.32131917028883       -1.49610625413750
H           -3.82937286217326        7.91988705296220        2.46955239898053
H           -5.16507556560810        7.16669019282472        3.39888788453865
H           -5.41643352032155        7.61344728506398        1.69346313062796
H           -0.78646260650024        7.37920160342794       -1.66426867499046
H            0.97739119928906        7.61175573054928       -1.45885919607444
H           -0.14641728308850        8.29074352913704       -0.26118533006571
H           -0.46869468294961       -6.56701172498571        5.89324887246911
H           -1.09974500702506       -5.30533103300359        7.00057045523137
H            0.35780694791350       -4.97973825744941        6.04091206770593
H           -0.31377615228565       -6.00991141703978        3.07685845359228
H            1.10066470766432       -6.11533418518480        1.99949657237508
H           -0.53902252397850       -5.91586187592988        1.30394511855962
H            6.27926617168639        1.65570822962475       11.18170352043775
H            6.01060741818030        3.34537726523815       10.64689654244839
H            7.40484244219209        2.43433284729842       10.02379911504974
H           -8.45520816998306       -0.73378243403897       -0.71402254257531
H           -6.37999803818250       -4.37123174880286        0.05150200422938
H           -7.02198269536143        3.27175611795720        1.16377756981496
H           -2.97114302341268       -4.51326059197489        3.06593596957396
H           -2.87438856305755        3.94465299317315        1.78809970412879
H           -1.25943626113723       -1.01739565637485        4.78272260277300
H           -0.69654165542023        4.37331612432999        1.22064691274677
H            0.06673547270835       -1.87360183553812        1.71932273652275
H            2.29000842102356       -2.72070295672299        5.23176576407171
H            3.19558159948245        5.73561820878426        2.21411362306049
H            5.12298566452840        4.30690244191606        6.13065252490656
H            4.31403932505044        0.46435568602263        7.77750651787889
C            0.87063881329492        4.17097830587459        6.71735173897042
C            0.64048183911492        3.17420143463719        7.66753353913769
C            1.59803485376131        2.95864360023639        8.71414399112853
C            2.49869481799307        4.05834877956972        8.95840093235488
C            2.66374549846299        5.07651336814605        7.99880162371646
C            1.89099235761928        5.10902857147916        6.86496544325487
C            1.70790549263726        1.82050332181321        9.60130000348132
C            2.37300445667455        2.07951609386223       10.82203771205424
C            2.99766458483723        3.33817025196083       11.06794541068088
N            3.14805878032106        4.25185797472985       10.11044661729971
C            1.41646002331163        0.42877960308096        9.34228339009508
C            1.79951866427710       -0.52755296485324       10.35267180219401
N            2.18089882195413       -0.20085929744749       11.59286492655281
C            2.48313440542956        1.07355808620516       11.82869204439144
C            3.03198045443159        1.39366929269116       13.08253555686467
C            3.55981225604213        2.64906149977837       13.32913369217730
C            3.56654310898365        3.60311859800399       12.32485387223480
C            0.94153672752584       -0.13519038491477        8.11664179988696
C            1.11905651182614       -1.49005452807269        7.84979018212961
C            1.65130036997331       -2.36908288456201        8.78672396069523
C            1.89695053375074       -1.90449097590529       10.05444901358474
O           -0.59232410841863        2.60765460838963        7.66448949467412
O            0.36236498631036        0.54238156825584        7.10551766694675
C            2.09291719383974        6.22089540947458        5.90852806741658
C            2.00117837892525       -3.76099082404465        8.42308176663852
C            4.17811994840460        2.98182006318074       14.63053684360279
C           -1.85966308364342       -1.54490361555130        8.61188938477445
C           -2.40354905046214       -0.58814500203394        7.76357532924565
C           -3.37501648545146       -0.98147209680925        6.78273942643494
C           -3.71907375964590       -2.38119746492878        6.74738008664809
C           -3.07377425431281       -3.31204209314904        7.58620913228348
C           -2.15322267176731       -2.89980701108945        8.51234798850832
C           -4.11471121901543       -0.11822592172544        5.89605926315174
C           -5.21993469030437       -0.68335328673148        5.22703903181843
C           -5.41866702685593       -2.09265000123634        5.23683797619674
N           -4.65276989701514       -2.91579677106636        5.94958265122713
C           -3.90626514315720        1.27468275660927        5.62728637316415
C           -4.99974903563103        2.03825173663091        5.08611000318455
N           -6.07939314586259        1.47594500590289        4.53227517654049
C           -6.13894110394890        0.14001106389728        4.50636486202425
C           -7.17201467103202       -0.46687088171404        3.77311706510503
C           -7.31309615956381       -1.84709274757984        3.74517889940048
C           -6.45271064636381       -2.65089414617814        4.47042293180269
C           -2.65788078156176        1.94147234766414        5.75640541858032
C           -2.62626548910224        3.32628743960889        5.72672997622026
C           -3.75154985226202        4.08304925979709        5.41281009815837
C           -4.91513338681276        3.44800602424345        5.04483672967034
O           -1.95813120387322        0.67146474681286        8.01896807872810
O           -1.49345697706482        1.26175625842775        5.84272658636396
C           -1.43122462834407       -3.82717307125467        9.40895361809427
C           -3.64897039653692        5.55717146101623        5.41620163716675
C           -8.37455143410812       -2.45161147544827        2.91518820627947
B           -0.90075514761060        1.27168292551238        7.17456676427760
O            4.71629003195189        4.04735744686272       14.81565411808611
O            4.09840909934759        2.01966111252072       15.57366215284199
C            4.69939981811710        2.44812517131814       16.77037476467799
O            2.17514304028428       -3.97337874259376        7.10187331680383
C            2.72174791647520       -5.24446395184963        6.83838900340643
O            2.18252716073195       -4.61811775596744        9.25619321895501
O           -0.87247634005158       -3.42168681451127       10.40023773018635
O           -1.40002948015993       -5.12230424227485        9.02958689633035
C           -0.59221658783143       -5.86881608935177        9.90927034291793
O           -9.07476132693262       -1.77944358246280        2.19549423094260
O           -8.47459092091082       -3.79500757783486        3.00742239770542
C           -9.42043256372008       -4.30045950146413        2.09775509203096
O           -4.59729268720523        6.27286639179132        5.19641583329091
O           -2.41599692648868        6.02925036843745        5.70434695969829
C           -2.38625243158316        7.43339223584266        5.71525887979398
O            2.99143706410247        7.01353363472740        6.06305873335936
O            1.20707627538520        6.30637027265644        4.89287436271372
C            1.48643192722600        7.42501890705193        4.08417240591591
H           -8.97281678067114       -4.29803607682862        1.10470584827475
H          -10.30177283654998       -3.65363675310586        2.09849049250887
H           -9.68995768695116       -5.31586855121254        2.38124581799078
H           -1.41232361607587        7.76273109226707        6.07469849073701
H           -3.17817908268539        7.80320477633815        6.37205234564537
H           -2.55930029667111        7.80527347275822        4.70264731021648
H            0.92005225384886        7.35307234021158        3.15913088377014
H            2.55673654728269        7.44673956048153        3.86457783125201