190
 energy: -557.568344918840 gnorm: 0.029599790406 xtb: 6.7.1 (edcfbbe)
C            1.44440000000000        3.56960000000000        0.13720000000000
C            1.63940000000000        2.18430000000000        0.25010000000000
C            2.70330000000000        1.58380000000000       -0.49780000000000
C            3.36690000000000        2.41110000000000       -1.48090000000000
C            3.00420000000000        3.77020000000000       -1.67440000000000
C            2.10590000000000        4.31750000000000       -0.82090000000000
C            3.31280000000000        0.30550000000000       -0.25450000000000
C            4.54960000000000        0.04750000000000       -0.89000000000000
C            4.99560000000000        0.87610000000000       -1.95710000000000
N            4.38140000000000        2.01400000000000       -2.23800000000000
C            2.91300000000000       -0.68590000000000        0.70360000000000
C            3.97500000000000       -1.47460000000000        1.28230000000000
N            5.14760000000000       -1.64640000000000        0.69800000000000
C            5.39400000000000       -1.01190000000000       -0.44380000000000
C            6.57120000000000       -1.31670000000000       -1.16360000000000
C            6.88310000000000       -0.57090000000000       -2.27550000000000
C            6.15360000000000        0.51260000000000       -2.69060000000000
C            1.59090000000000       -1.00490000000000        1.09520000000000
C            1.41480000000000       -1.73050000000000        2.27750000000000
C            2.50150000000000       -2.17990000000000        3.01640000000000
C            3.76450000000000       -2.14260000000000        2.51990000000000
O            0.82470000000000        1.54740000000000        1.08450000000000
O            0.54640000000000       -0.68480000000000        0.33110000000000
C           -1.91760000000000       -1.54800000000000        2.55890000000000
C           -2.01430000000000       -0.69940000000000        1.44510000000000
C           -2.90420000000000       -1.06730000000000        0.38450000000000
C           -3.47900000000000       -2.39330000000000        0.43650000000000
C           -3.20410000000000       -3.28040000000000        1.51060000000000
C           -2.48970000000000       -2.80800000000000        2.56010000000000
C           -3.43890000000000       -0.20300000000000       -0.63130000000000
C           -4.54140000000000       -0.68380000000000       -1.37510000000000
C           -4.88730000000000       -2.06330000000000       -1.33640000000000
N           -4.33300000000000       -2.87950000000000       -0.45480000000000
C           -3.10930000000000        1.17350000000000       -0.87080000000000
C           -4.17940000000000        2.00600000000000       -1.36740000000000
N           -5.23320000000000        1.52450000000000       -2.00270000000000
C           -5.35500000000000        0.20740000000000       -2.13560000000000
C           -6.38090000000000       -0.31260000000000       -2.95660000000000
C           -6.58000000000000       -1.67230000000000       -2.99150000000000
C           -5.88730000000000       -2.56030000000000       -2.21050000000000
C           -1.83960000000000        1.78130000000000       -0.72440000000000
C           -1.78550000000000        3.17690000000000       -0.65490000000000
C           -2.93100000000000        3.95070000000000       -0.78820000000000
C           -4.10410000000000        3.41790000000000       -1.21620000000000
O           -1.28270000000000        0.40880000000000        1.49230000000000
O           -0.72130000000000        1.05580000000000       -0.72020000000000
B           -0.15820000000000        0.57960000000000        0.54280000000000
S            1.60840000000000        6.08640000000000       -1.05980000000000
F            1.18640000000000        6.26610000000000        0.51780000000000
F            3.12240000000000        6.65320000000000       -0.70510000000000
F            1.12020000000000        7.59420000000000       -1.28810000000000
F            2.03150000000000        6.06680000000000       -2.66200000000000
F            0.10220000000000        5.55230000000000       -1.49830000000000
S            2.24970000000000       -2.71690000000000        4.78530000000000
F            3.80510000000000       -3.27290000000000        4.93620000000000
F            2.78780000000000       -1.22120000000000        5.27340000000000
F            2.05290000000000       -3.09680000000000        6.33400000000000
F            0.71030000000000       -2.12480000000000        4.82370000000000
F            1.79420000000000       -4.24040000000000        4.39520000000000
S            8.39860000000000       -1.03090000000000       -3.23970000000000
F            7.59490000000000       -0.86560000000000       -4.67380000000000
F            7.99710000000000       -2.63320000000000       -3.19730000000000
F            9.70400000000000       -1.43520000000000       -4.07930000000000
F            9.28950000000000       -1.22380000000000       -1.86350000000000
F            8.88690000000000        0.54290000000000       -3.33950000000000
S           -2.11020000000000       -3.94970000000000        3.96920000000000
F           -2.28930000000000       -5.29830000000000        3.02250000000000
F           -3.70180000000000       -4.08750000000000        4.40210000000000
F           -1.72080000000000       -4.93850000000000        5.16710000000000
F           -1.94140000000000       -2.71060000000000        5.03480000000000
F           -0.51710000000000       -3.90020000000000        3.51650000000000
S           -2.90470000000000        5.73190000000000       -0.23360000000000
F           -4.41660000000000        6.04070000000000       -0.84170000000000
F           -3.62480000000000        5.25640000000000        1.18790000000000
F           -2.91360000000000        7.23870000000000        0.32450000000000
F           -1.43930000000000        5.55860000000000        0.50340000000000
F           -2.27740000000000        6.29740000000000       -1.63590000000000
S           -7.88700000000000       -2.33560000000000       -4.12740000000000
F           -7.36780000000000       -1.37150000000000       -5.36480000000000
F           -8.96020000000000       -1.16610000000000       -3.67430000000000
F           -9.01030000000000       -2.91010000000000       -5.11750000000000
F           -8.48050000000000       -3.33850000000000       -2.95810000000000
F           -6.88800000000000       -3.54450000000000       -4.64800000000000
H           -3.62760000000000       -4.26850000000000        1.47620000000000
H           -6.09570000000000       -3.61760000000000       -2.22430000000000
H           -6.98960000000000        0.36560000000000       -3.53190000000000
H           -1.36240000000000       -1.19720000000000        3.41510000000000
H           -0.83380000000000        3.64690000000000       -0.49320000000000
H            6.44650000000000        1.10760000000000       -3.54000000000000
H            0.41500000000000       -1.93570000000000        2.61100000000000
H            7.20330000000000       -2.12040000000000       -0.82310000000000
H            3.50400000000000        4.32550000000000       -2.44820000000000
H            4.61180000000000       -2.60050000000000        2.99870000000000
H           -4.97410000000000        4.00060000000000       -1.46210000000000
H            0.74260000000000        4.03790000000000        0.81000000000000
C            1.44440000000000        3.56960000000000        9.13720000000000
C            1.63940000000000        2.18430000000000        9.25010000000000
C            2.70330000000000        1.58380000000000        8.50220000000000
C            3.36690000000000        2.41110000000000        7.51910000000000
C            3.00420000000000        3.77020000000000        7.32560000000000
C            2.10590000000000        4.31750000000000        8.17910000000000
C            3.31280000000000        0.30550000000000        8.74550000000000
C            4.54960000000000        0.04750000000000        8.11000000000000
C            4.99560000000000        0.87610000000000        7.04290000000000
N            4.38140000000000        2.01400000000000        6.76200000000000
C            2.91300000000000       -0.68590000000000        9.70360000000000
C            3.97500000000000       -1.47460000000000       10.28230000000000
N            5.14760000000000       -1.64640000000000        9.69800000000000
C            5.39400000000000       -1.01190000000000        8.55620000000000
C            6.57120000000000       -1.31670000000000        7.83640000000000
C            6.88310000000000       -0.57090000000000        6.72450000000000
C            6.15360000000000        0.51260000000000        6.30940000000000
C            1.59090000000000       -1.00490000000000       10.09520000000000
C            1.41480000000000       -1.73050000000000       11.27750000000000
C            2.50150000000000       -2.17990000000000       12.01640000000000
C            3.76450000000000       -2.14260000000000       11.51990000000000
O            0.82470000000000        1.54740000000000       10.08450000000000
O            0.54640000000000       -0.68480000000000        9.33110000000000
C           -1.91760000000000       -1.54800000000000       11.55890000000000
C           -2.01430000000000       -0.69940000000000       10.44510000000000
C           -2.90420000000000       -1.06730000000000        9.38450000000000
C           -3.47900000000000       -2.39330000000000        9.43650000000000
C           -3.20410000000000       -3.28040000000000       10.51060000000000
C           -2.48970000000000       -2.80800000000000       11.56010000000000
C           -3.43890000000000       -0.20300000000000        8.36870000000000
C           -4.54140000000000       -0.68380000000000        7.62490000000000
C           -4.88730000000000       -2.06330000000000        7.66360000000000
N           -4.33300000000000       -2.87950000000000        8.54520000000000
C           -3.10930000000000        1.17350000000000        8.12920000000000
C           -4.17940000000000        2.00600000000000        7.63260000000000
N           -5.23320000000000        1.52450000000000        6.99730000000000
C           -5.35500000000000        0.20740000000000        6.86440000000000
C           -6.38090000000000       -0.31260000000000        6.04340000000000
C           -6.58000000000000       -1.67230000000000        6.00850000000000
C           -5.88730000000000       -2.56030000000000        6.78950000000000
C           -1.83960000000000        1.78130000000000        8.27560000000000
C           -1.78550000000000        3.17690000000000        8.34510000000000
C           -2.93100000000000        3.95070000000000        8.21180000000000
C           -4.10410000000000        3.41790000000000        7.78380000000000
O           -1.28270000000000        0.40880000000000       10.49230000000000
O           -0.72130000000000        1.05580000000000        8.27980000000000
B           -0.15820000000000        0.57960000000000        9.54280000000000
S            1.60840000000000        6.08640000000000        7.94020000000000
F            1.18640000000000        6.26610000000000        9.51780000000000
F            3.12240000000000        6.65320000000000        8.29490000000000
F            1.12020000000000        7.59420000000000        7.71190000000000
F            2.03150000000000        6.06680000000000        6.33800000000000
F            0.10220000000000        5.55230000000000        7.50170000000000
S            2.24970000000000       -2.71690000000000       13.78530000000000
F            3.80510000000000       -3.27290000000000       13.93620000000000
F            2.78780000000000       -1.22120000000000       14.27340000000000
F            2.05290000000000       -3.09680000000000       15.33400000000000
F            0.71030000000000       -2.12480000000000       13.82370000000000
F            1.79420000000000       -4.24040000000000       13.39520000000000
S            8.39860000000000       -1.03090000000000        5.76030000000000
F            7.59490000000000       -0.86560000000000        4.32620000000000
F            7.99710000000000       -2.63320000000000        5.80270000000000
F            9.70400000000000       -1.43520000000000        4.92070000000000
F            9.28950000000000       -1.22380000000000        7.13650000000000
F            8.88690000000000        0.54290000000000        5.66050000000000
S           -2.11020000000000       -3.94970000000000       12.96920000000000
F           -2.28930000000000       -5.29830000000000       12.02250000000000
F           -3.70180000000000       -4.08750000000000       13.40210000000000
F           -1.72080000000000       -4.93850000000000       14.16710000000000
F           -1.94140000000000       -2.71060000000000       14.03480000000000
F           -0.51710000000000       -3.90020000000000       12.51650000000000
S           -2.90470000000000        5.73190000000000        8.76640000000000
F           -4.41660000000000        6.04070000000000        8.15830000000000
F           -3.62480000000000        5.25640000000000       10.18790000000000
F           -2.91360000000000        7.23870000000000        9.32450000000000
F           -1.43930000000000        5.55860000000000        9.50340000000000
F           -2.27740000000000        6.29740000000000        7.36410000000000
S           -7.88700000000000       -2.33560000000000        4.87260000000000
F           -7.36780000000000       -1.37150000000000        3.63520000000000
F           -8.96020000000000       -1.16610000000000        5.32570000000000
F           -9.01030000000000       -2.91010000000000        3.88250000000000
F           -8.48050000000000       -3.33850000000000        6.04190000000000
F           -6.88800000000000       -3.54450000000000        4.35200000000000
H           -3.62760000000000       -4.26850000000000       10.47620000000000
H           -6.09570000000000       -3.61760000000000        6.77570000000000
H           -6.98960000000000        0.36560000000000        5.46810000000000
H           -1.36240000000000       -1.19720000000000       12.41510000000000
H           -0.83380000000000        3.64690000000000        8.50680000000000
H            6.44650000000000        1.10760000000000        5.46000000000000
H            0.41500000000000       -1.93570000000000       11.61100000000000
H            7.20330000000000       -2.12040000000000        8.17690000000000
H            3.50400000000000        4.32550000000000        6.55180000000000
H            4.61180000000000       -2.60050000000000       11.99870000000000
H           -4.97410000000000        4.00060000000000        7.53790000000000
H            0.74260000000000        4.03790000000000        9.81000000000000
190
 energy: -557.569734117448 gnorm: 0.020626540018 xtb: 6.7.1 (edcfbbe)
C            1.44429958234184        3.56927188424530        0.13802902418331
C            1.63949733851796        2.18407582520936        0.25120215297082
C            2.70282773562333        1.58316700522155       -0.49718235662315
C            3.36593970912335        2.40999513316349       -1.48074579200066
C            3.00330145628101        3.76908001133648       -1.67426404376929
C            2.10548793415882        4.31689349892602       -0.82030049789927
C            3.31285183946227        0.30460647491854       -0.25405045339782
C            4.54966361989204        0.04687017287282       -0.88931726395160
C            4.99501861790602        0.87524922878424       -1.95720856931430
N            4.37977129169318        2.01229496401417       -2.23872901856214
C            2.91407248385875       -0.68571443385104        0.70587342945029
C            3.97595398925163       -1.47441230215297        1.28312118085234
N            5.14796740689308       -1.64739214079495        0.69757137450834
C            5.39448991419171       -1.01245925747014       -0.44296839706542
C            6.57184402465115       -1.31730644128170       -1.16327383797667
C            6.88304853223698       -0.57147272859800       -2.27498891694846
C            6.15318411696524        0.51188045688975       -2.69066680041513
C            1.59174950689388       -1.00284340351221        1.10041360113648
C            1.41709242268439       -1.72449662712002        2.28491665858379
C            2.50655219487705       -2.16889352340740        3.02261718982904
C            3.76873129434505       -2.13645592255386        2.52390812263970
O            0.82506253147510        1.54714819767647        1.08757134222081
O            0.54670786892295       -0.68534501473376        0.33647763469561
C           -1.92176479890400       -1.54447123134168        2.56086372913638
C           -2.01631838097832       -0.69808948480166        1.44658793928802
C           -2.90625235528644       -1.06711301169523        0.38609372937558
C           -3.48152142141561       -2.39237663080692        0.43881858360016
C           -3.20994048328341       -3.27769536032788        1.51492131718440
C           -2.49771513472244       -2.80223613428882        2.56378805863513
C           -3.43935194274771       -0.20336584595003       -0.63111650111566
C           -4.54176334777068       -0.68441600170480       -1.37442734422938
C           -4.88767492003231       -2.06399572227913       -1.33534338994898
N           -4.33244283315196       -2.88001376876834       -0.45486147763425
C           -3.10902565372528        1.17314450191351       -0.87061804370862
C           -4.17865965065196        2.00551122697963       -1.36804874609188
N           -5.23258614371476        1.52371640258564       -2.00320426055018
C           -5.35520690561960        0.20682937420323       -2.13527253925074
C           -6.38118140183382       -0.31316408085183       -2.95621928052935
C           -6.58025285218856       -1.67300124840946       -2.99075374853013
C           -5.88766778373836       -2.56107324681909       -2.20999430630585
C           -1.83931328512636        1.78066538449737       -0.72331162682863
C           -1.78471592583064        3.17637827904874       -0.65483119064449
C           -2.93005245951259        3.95025217001468       -0.78835259062402
C           -4.10302623254148        3.41740528350238       -1.21714172382890
O           -1.28445020683976        0.41065746958444        1.49494780300332
O           -0.72089260462248        1.05457464059220       -0.71752401577350
B           -0.15832055999854        0.57948195319169        0.54547043264893
S            1.60772450915745        6.08566114600589       -1.05709142671029
F            1.18662004234869        6.26334355800772        0.52049697770590
F            3.12258207203767        6.65051710096630       -0.70335532878020
F            1.11991557940765        7.59341909299964       -1.28542439418335
F            2.03060405170590        6.06640696370373       -2.65951878290118
F            0.10188033983925        5.55074206104139       -1.49606332061848
S            2.25810585771129       -2.69949043805844        4.79485778716601
F            3.81580850369703       -3.25244051268384        4.95377198938689
F            2.79985519426914       -1.20124572557352        5.29178308114614
F            2.06745206698540       -3.07053746911743        6.34921565986218
F            0.71788793331744       -2.10521814675377        4.84164575919492
F            1.79794692878013       -4.22588827406252        4.41778948754014
S            8.39862314439411       -1.03119742907292       -3.23852150894954
F            7.59417953685609       -0.86599581667378       -4.67248312582450
F            7.99708340095453       -2.63351347509302       -3.19689197849544
F            9.70347718556573       -1.43482560688301       -4.07940867586468
F            9.29011318801668       -1.22379009553726       -1.86315587973557
F            8.88589906018327        0.54289185900559       -3.33930714872417
S           -2.12023723945433       -3.93628547413292        3.97784545126648
F           -2.29772037620321       -5.29378528369073        3.04372493107663
F           -3.71069606100459       -4.06798595695711        4.42494663134052
F           -1.73180554000893       -4.91262138923939        5.18760769843996
F           -1.95859611304776       -2.68802648831502        5.04111791395545
F           -0.52275194347328       -3.89209205865593        3.53581333958757
S           -2.90338364076150        5.73017436468883       -0.23055763786016
F           -4.41566778055688        6.03855128419908       -0.83832150549015
F           -3.62436506491565        5.24951434560119        1.18925955749352
F           -2.91338991092252        7.23571650932237        0.32973611438956
F           -1.43846309811337        5.55405535525075        0.50646807491661
F           -2.27702952716283        6.29757460179712       -1.63261208131411
S           -7.88752034984035       -2.33607778579113       -4.12585247184899
F           -7.36777147972353       -1.37183925458391       -5.36318850637748
F           -8.96029803307398       -1.16607485028779       -3.67356207594615
F           -9.01041085720105       -2.90998782169094       -5.11692217814420
F           -8.48091959181752       -3.33961306372693       -2.95763600717471
F           -6.88818575673588       -3.54444091431521       -4.64734446187705
H           -3.63375871180542       -4.26546392812321        1.48124437212920
H           -6.09678497769656       -3.61810162064113       -2.22304594597214
H           -6.98990879962020        0.36496558172999       -3.53155485810741
H           -1.35930066354451       -1.19661235279198        3.41274196441957
H           -0.83298413605869        3.64656997153806       -0.49429933166381
H            6.44625083293877        1.10716774376367       -3.53978189599878
H            0.41790527177758       -1.93503699512048        2.61561996496973
H            7.20480998813624       -2.11968869163168       -0.82149781347405
H            3.50275690418582        4.32412820996517       -2.44842171382225
H            4.61821643051470       -2.59282124474510        3.00025628767011
H           -4.97269027874796        4.00024415478017       -1.46382470815485
H            0.74305451706060        4.03821313957534        0.81078819457039
C            1.44489631678719        3.56794729758377        9.13707460802260
C            1.63904269849072        2.18223198422779        9.24883652082942
C            2.70024430128705        1.57990289640218        8.49817589021731
C            3.36325627675882        2.40719203863757        7.51477152453906
C            3.00319961847686        3.76801596820257        7.32429526367041
C            2.10598557008708        4.31593619284199        8.17846294868660
C            3.30771139717610        0.30031426249163        8.73897498060794
C            4.54325557078360        0.04136392657738        8.10331211783135
C            4.98757893085129        0.86925197584846        7.03623533453718
N            4.37773199616556        2.01003390315615        6.75832985671874
C            2.91008584419478       -0.69066541473319        9.69754007131159
C            3.97245027725356       -1.47792021170632       10.27773583933259
N            5.14462372264549       -1.64829794403973        9.69444183518146
C            5.38759212010562       -1.01744815285852        8.54982331186631
C            6.56492610142140       -1.32221225856325        7.83140375799099
C            6.87531945612353       -0.57669869292246        6.71943805649292
C            6.14563996398619        0.50569991608783        6.30394721714250
C            1.58868792271004       -1.01071888089421       10.08985297274310
C            1.41428113050009       -1.73416970448110       11.27467167402919
C            2.50135409274764       -2.18203771638380       12.01401436216403
C            3.76413094363110       -2.14383521246646       11.51755196134614
O            0.82447809659264        1.54579639100011       10.08361741220705
O            0.54431523650395       -0.68701964144623        9.33148689796672
C           -1.91730635914882       -1.54835812870177       11.55765254506086
C           -2.01268738696981       -0.70059321851910       10.44276573257996
C           -2.89994713598432       -1.06979020219593        9.38065911238868
C           -3.47516109766232       -2.39576034167723        9.43317012598572
C           -3.20332050019052       -3.28136852964547       10.50965851334927
C           -2.48924317461416       -2.80862113105607       11.55911718676353
C           -3.43440117872166       -0.20574146198158        8.36497434681015
C           -4.53532995147247       -0.68758686970865        7.62005590023050
C           -4.88013349843116       -2.06739282299099        7.65818805559028
N           -4.33185457415846       -2.88059467292609        8.54524363210791
C           -3.10746062963026        1.17164281241946        8.12669179541532
C           -4.17849478175210        2.00407781675310        7.63139708316937
N           -5.23176590597224        1.52120804950925        6.99658001719857
C           -5.34981491674696        0.20371851757166        6.86102647945215
C           -6.37456313955455       -0.31717087901000        6.03951678375722
C           -6.57049059419243       -1.67724056914321        6.00267228298839
C           -5.87815740618210       -2.56570523770936        6.78311074380064
C           -1.83837502938914        1.78106861868058        8.27315096336146
C           -1.78592642956951        3.17700888608704        8.34384474411359
C           -2.93181043586596        3.95023478867580        8.21056613942017
C           -4.10480436641408        3.41653315876458        7.78338938484718
O           -1.28168967355406        0.40788270441021       10.49067542599809
O           -0.72037702902763        1.05773132329604        8.27905143675583
B           -0.15759321940865        0.57764473493166        9.53987798274238
S            1.60755008570641        6.08385972809790        7.93678362283367
F            1.18695173266220        6.26438209480303        9.51497215724103
F            3.12182827058643        6.65042152199239        8.29173846871901
F            1.11941817220141        7.59147293574171        7.70884444135508
F            2.03277099098639        6.06176866611079        6.33564924888558
F            0.10206846082863        5.54753882597124        7.50000946114765
S            2.24937634715342       -2.71823561582654       13.78289247131922
F            3.80510050863726       -3.27300162821891       13.93504210744157
F            2.78722069020847       -1.22176095171778       14.26962133099229
F            2.05275361530162       -3.09552581416818       15.33254192262723
F            0.71027701122200       -2.12517995176997       13.82081909992334
F            1.79379725318741       -4.24203191710426       13.39607085999519
S            8.38853406406574       -1.03553959307002        5.75347724837408
F            7.58179167100501       -0.86863021570393        4.31921991426143
F            7.99341301787656       -2.63860887957122        5.79395571270044
F            9.69356804391581       -1.43396402616664        4.90975616298576
F            9.28479064271768       -1.22546886471929        7.12721311251612
F            8.87354649323929        0.54005377183683        5.65260398179570
S           -2.10872126425611       -3.95027375933732       12.96742020481852
F           -2.28908875497518       -5.29954942849290       12.02329505705231
F           -3.70026628759679       -4.08742147057337       13.40133401770533
F           -1.71949783712035       -4.93673528976461       14.16752016445375
F           -1.94119931240290       -2.70966414615020       14.03188997522603
F           -0.51572228391379       -3.89988748438000       12.51632667356630
S           -2.90421018750849        5.73139033721722        8.76362430111408
F           -4.41696310371056        6.03958145405644        8.15795549447820
F           -3.62381542528147        5.25567443582314       10.18565599265554
F           -2.91222815190171        7.23763190466836        9.32341297114446
F           -1.43917872375545        5.55587579654545        9.50130799519487
F           -2.27694889994376        6.29643732252045        7.36208379888691
S           -7.87578118904964       -2.33920847709158        4.86602291144799
F           -7.35166032320465       -1.37226514677267        3.62915090760997
F           -8.94562294178913       -1.16518811940632        5.31888420005791
F           -9.00189011296882       -2.90284169962336        3.87190286148501
F           -8.47704897658021       -3.34170841721168        6.03180738342312
F           -6.88330418405803       -3.54798074993360        4.33632407872374
H           -3.62515548738543       -4.27020878719539       10.47434698996332
H           -6.08177264019588       -3.62375168039858        6.76505623875432
H           -6.98727539625837        0.36157894654507        5.46889044111506
H           -1.36282181105486       -1.19715270051395       12.41438952485258
H           -0.83488010670726        3.64795147917606        8.50680451633158
H            6.44062304002682        1.10250155423087        5.45683122264100
H            0.41485128066988       -1.93878333430897       11.60992565785999
H            7.19804677946890       -2.12499570506824        8.17285669572062
H            3.50267600641517        4.32401768672520        6.55098067889587
H            4.61181647308525       -2.60114754308637       11.99657937059907
H           -4.97471868974255        3.99919044428959        7.53703194589608
H            0.74399153316450        4.03678736675469        9.81058252925255
190
 energy: -557.571947211427 gnorm: 0.007212656595 xtb: 6.7.1 (edcfbbe)
C            1.44377186919292        3.56735263357123        0.14054928300958