116
 energy: -22.928061455056 gnorm: 0.329736929581 xtb: 6.6.1 (8d0f1dd)
C           -3.31122850772930        0.79849766164622       -0.92477639677520
C           -2.44380812530352       -0.12270372891954       -0.27661132624697
C           -1.41337090092821        0.39579727573559        0.56335275196199
C           -0.89266158675590        1.65801491088749        0.27377586709581
C           -1.72665675402493        2.51431363229076       -0.49448366572522
C           -2.95444148494349        2.13954154133227       -1.01494489940871
C           -0.74098268209890       -0.43411532818871        1.49825021926784
C            0.56872586496315        0.03782116815119        1.86248088067890
C            1.03782416582094        1.29402317993033        1.50887470833621
N            0.31238977034758        2.07067427098208        0.65193736800696
C           -1.29695700510141       -1.39996043042223        2.41574187746061
C           -0.38243517664656       -2.18060797534842        3.13232615520648
N            0.91308504082021       -1.90366887689689        3.30325166013478
C            1.37712470144904       -0.74872102533751        2.81811050966982
C            2.52149331701875       -0.17739833758153        3.39379298866852
C            2.95849061756259        1.02681208890480        2.95105897606587
C            2.24288949469137        1.78498308775960        2.03503020483770
C           -2.74860936222260       -1.74497937691422        2.38401158947411
C           -3.09416315450955       -2.91614440870436        3.00571134491758
C           -2.16786021984049       -3.77788778654213        3.63251872101904
C           -0.85708937311598       -3.40495313382985        3.68547234358092
O           -3.71994433332149       -0.94984598373544        1.67726658385724
O           -2.55702603277562       -1.47241711578389       -0.57241635275616
C           -3.84297843593025        3.13357444054366       -1.60938954875544
C           -2.68769581069131       -5.03867041417370        4.30484659386931
H           -1.39666850744143        3.51251503834900       -0.76806311868865
H           -4.27662633836220        0.55105838579656       -1.33106614114542
H            2.66329581305412        2.73912661909249        1.72562431984580
H            3.05775395548473       -0.69369546277216        4.16536137542516
H           -0.24710966264510       -4.12034095424229        4.22946223699121
H           -4.11477991332403       -3.04712728052358        3.03244694615357
O           -4.21824883374556        4.03433712717988       -0.87713382485991
O           -4.44510595673734        2.90643496899600       -2.81853501752979
C           -5.44216520282800        3.83300025693726       -3.02488532025093
C            4.23586651889298        1.50004220933226        3.59165660008449
O            5.05927614697201        0.66079890002952        3.91714215179376
O            4.47001334453535        2.86385149488593        3.72605651435371
C            5.79457498613219        3.08584475587818        4.15829123132174
O           -3.82227255313510       -5.27347675879771        4.16636005494405
O           -1.85023202017753       -5.79767454267276        5.06656077253571
C           -2.55119635829503       -6.86252441382958        5.62930343183426
C           -5.07197156564436       -1.42399175670916        1.58830531863830
C           -1.33089900128490       -2.23622472573986       -0.99264499351172
H           -2.54510546830388       -7.76426885143998        4.99136022291012
H           -3.57194749219491       -6.44405511486021        5.74196173723541
H           -2.09133598235598       -7.02043774843818        6.64022264233588
H            5.72707967266424        3.46798026205549        5.10135971236643
H            6.34060091246885        3.78468702308830        3.50069950143490
H            6.17933064298187        2.03010500085905        4.19342358084693
H           -0.91862729772622       -2.57650129080332       -0.01361370304871
H           -0.49769766914251       -1.60651221708571       -1.34094446550576
H           -1.52632419730509       -2.94569707152159       -1.75361447637286
H           -5.11788846557077       -2.41810833635233        1.17520213188926
H           -5.67929807973498       -0.69619639428435        1.04301666067831
H           -5.57598832326623       -1.42383358739762        2.57928294206544
H           -6.13050215934830        3.76035386975488       -2.23272855695873
H           -5.86615610071888        3.45938329385866       -4.02668959924245
H           -5.13479557532099        4.87790991548477       -2.98314551356402
C           -1.38192942069774        3.73616555005018        2.91232598411686
C           -1.84821468128685        2.59982427735607        3.49755545445181
C           -1.05946531454833        2.05730632010638        4.60922730982276
C            0.19893954712228        2.69376791964407        4.86302140881997
C            0.50425395911860        3.94630308659851        4.28768785650746
C           -0.26031777722226        4.46998310053134        3.25072669343212
C           -1.20488993561782        0.74454293276906        5.14851520323437
C           -0.06287609782692        0.02744069315890        5.60930570802864
C            1.19208754369866        0.71421540266195        5.78882868583885
N            1.19428660993148        2.06344359410476        5.62744624321596
C           -2.41361422770794        0.07928500213936        5.25249410304426
C           -2.45851584031083       -1.32662100968547        5.60237876023992
N           -1.29466212405906       -1.98318595734370        5.89916817085159
C           -0.14475655767527       -1.32117560077092        5.98824682881008
C            0.97209270935794       -1.98958449505532        6.53157704134458
C            2.21982707914082       -1.36973967291181        6.68703967237737
C            2.30561929262884       -0.09745313075593        6.26436900324455
C           -3.73018485967715        0.71367583494582        5.25810242262992
C           -4.89964478833448       -0.06184623426677        5.21204641615509
C           -4.82617965800088       -1.39228978090841        5.46901303780036
C           -3.67144193418464       -1.98914944386360        5.67265433266067
O           -3.75568638935321        2.07705011038914        5.52067969627343
O           -2.94192434743730        1.91263938797883        3.01658762327703
C            0.21273512614467        5.50086066357994        2.34765104514621
C           -6.06660304520411       -2.17604633098929        5.80641622556876
H            1.41756699010566        4.38133362238595        4.66974005703471
H           -1.82880610647429        4.11982501512100        2.06992133318584
H            3.26888037378556        0.32655662585251        6.31721410015598
H            0.87146188387207       -3.08471526305024        6.57830423410869
H           -3.67716811065157       -3.05999292755990        5.83019634570050
H           -5.77379677507622        0.43595144608221        4.71017130754348
O            1.34459852619901        5.82615848916894        2.44941456579099
O           -0.74718748219123        6.07961784856304        1.59848183464284
C           -0.21473095568964        7.24015934882472        1.05753806029483
C            3.53228080814219       -2.00967610361154        7.02506769044485
O            3.64093082622715       -3.14437803815732        7.50071391725347
O            4.56565258381079       -1.22937033368332        6.69086985080897
C            5.72579357310716       -1.80692399125161        7.22246151275881
O           -7.04801223588612       -1.95726935745904        5.14194115322235
O           -6.01514389321278       -2.93743591896022        6.94765316328794
C           -7.21292732384718       -3.62681918543340        7.15115816329978
C           -4.95459780685163        2.65960679932188        5.86868674392943
C           -3.68284113682406        2.59129188358641        2.05479246020704
H           -7.43119628931628       -4.22607794725959        6.20622607140901
H           -8.06548455146707       -2.91765848248592        7.29781126410398
H           -7.07314693247270       -4.33087306029711        7.91223421050944
H            6.57332189837178       -1.29353136199234        6.78341268688262
H            5.74663761932316       -2.84282155125561        6.88089468184451
H            5.69426191474290       -1.72781984964892        8.29460302186842
H           -4.10481209541493        3.44288266176275        2.60483747673152
H           -4.49244774344916        1.87419893016926        1.82433103764650
H           -3.18901540870812        2.85154642679373        1.06781919454921
H           -5.55414326821421        2.76698137191684        4.93950725322359
H           -4.78658370641210        3.62090640967288        6.25983200635257
H           -5.43485580473958        1.97242995129449        6.65265772412460
H            0.89164886030839        7.38838561720231        1.13776105146914
H           -0.62894889903848        8.04195665205089        1.64837664327952
H           -0.59282546386754        7.45699159724320        0.03719083132488
116
 energy: -22.687383204272 gnorm: 0.472850290284 xtb: 6.6.1 (8d0f1dd)
C           -3.40445764641964        0.01168758114782       -1.95442356551252
C           -2.70998562573862       -0.77474933285828       -1.03045943726599
C           -1.84390449295914       -0.21226055775768       -0.10410919636743
C           -1.49759288043037        1.08098002371556       -0.32347651687901
C           -2.17189687080684        1.87976699158354       -1.24162217827161
C           -3.18749669157788        1.36951622205855       -2.05355307011997
C           -1.15415544706593       -0.84249261740711        1.05531671658015
C            0.03363041124313       -0.26961636004003        1.42717952036767
C            0.25988863189900        1.04118919873198        1.09951241930131
N           -0.56707452887281        1.78837730955633        0.36844352227707
C           -1.56117381975397       -2.14359493401444        1.49134275420934
C           -0.43190471867921       -2.92032624743443        1.97714529117357
N            0.80380161941068       -2.40757278715358        2.12547577148028
C            0.93595577098153       -1.07182302974666        2.06826954558110
C            2.06843668296926       -0.37160788479664        2.56002309083767
C            2.22134877600833        0.97026001225933        2.32247411995736
C            1.23332284083727        1.71860417556534        1.78607056971815
C           -2.91126219411896       -2.40327406720369        1.86667540504750
C           -3.27225844224423       -3.79273279547477        2.06490034995182
C           -2.12652306960322       -4.65018114288166        2.19106882366743
C           -0.83021233855518       -4.13930471627930        2.45049369237054
O           -3.83807929830638       -1.45260221377668        1.55003518050805
O           -3.02359824573811       -2.04075042119553       -0.74068091273869
C           -3.47383259868185        2.00503907890732       -3.36415880251536
C           -2.36383622512394       -6.01878067430008        2.77613677430272
H           -1.79332427039971        2.89441579044571       -1.23983219607969
H           -3.97136265051957       -0.54608937308700       -2.70008536420272
H            1.28620085098273        2.78590440693744        1.82399344694445
H            2.86345581772601       -0.85871874980493        3.17647824737331
H           -0.03454877387194       -4.81413246219859        2.70016614471391
H           -4.19439551079312       -4.18266339521758        2.09123967081126
O           -2.99782917342620        3.08763139204787       -3.55118907695561
O           -4.11414574131679        1.28137460791393       -4.41486607410909
C           -4.35572023377412        2.14956368123788       -5.51676666380225
C            3.46372661467808        1.46996945910108        2.92687633011157
O            4.05796764339868        0.88441370510270        3.78525203833515
O            3.93731572703603        2.59196412324219        2.46120529036714
C            5.09814244053302        3.04723766321630        3.06056023097747
O           -3.48601876704658       -6.37168973665227        3.26595971771655
O           -1.46173211147157       -7.02917077837300        2.73680793180564
C           -1.95642403283500       -8.35763899779360        3.02799661748287
C           -4.93306562536356       -1.50575968507271        2.39147097715394
C           -2.52875543823666       -2.96763581558214       -1.63532954011940
H           -2.95817134823202       -8.31725595886137        3.41105802058824
H           -1.37435022483424       -8.65357084442145        3.90017583145210
H           -1.58316892058467       -9.12727347483087        2.21519506054966
H            5.29758346441915        3.92784273229759        2.44107235653928
H            5.75490349955758        2.23672599962116        2.87950694309274
H            5.03482729132136        3.00336113980236        4.26775876084234
H           -3.43175366939171       -3.20567544915404       -2.43038305281334
H           -2.13398378141001       -3.77367808771958       -0.94590507620366
H           -1.57911111629465       -2.52176937480476       -2.10947784206698
H           -4.79355238258910       -1.59598506162363        3.45032806537598
H           -5.32711438598057       -2.52057541393692        1.93653822805260
H           -5.60920004976880       -0.76316805648402        2.05505181977645
H           -4.81766878156908        1.75261952119041       -6.49255123169460
H           -3.39287529229792        2.69927860938813       -5.82586889885908
H           -4.97610501537651        2.98647462810444       -5.34492834638995
C           -1.42081952353507        4.70915989083840        4.24832487257585
C           -1.71280456526253        3.48649298209104        4.79332796872819
C           -0.61296416520858        2.70406742070861        5.49637757531308
C            0.78496818313652        3.18323066870049        5.35569054361336
C            1.00046701392136        4.44821397868702        4.72706020062981
C           -0.09200602248419        5.11544220452032        4.08744440583575
C           -0.83551556279238        1.49934340225925        6.22246706144437
C            0.33809781205962        0.74424120519989        6.45235380091878
C            1.68705564673621        1.17238846814043        6.17298558573210
N            1.91257893112234        2.52004045698601        5.88075923139594
C           -2.10504096158715        0.92048768725923        6.54988874759956
C           -2.05275206067232       -0.54633313203360        6.56823017858451
N           -1.02331412936531       -1.33080313996398        6.92551056376947
C            0.18086517143386       -0.64996495369816        6.83498156920621
C            1.35021165619972       -1.42468843383219        7.29514364238916
C            2.63304496165369       -0.98265908486498        7.13352920992838
C            2.85164638875566        0.32508609797944        6.47120202476345
C           -3.34497173805559        1.70247396186201        6.71721644718422
C           -4.53674153540774        0.97003451198929        6.36889504970276
C           -4.56790481199116       -0.44004791667023        6.45915561652841
C           -3.41679831722579       -1.13488302423995        6.75385603414338
O           -3.52442651310805        3.05768131829394        7.01849966460672
O           -2.81863209846762        2.77522201680954        4.45816619412312
C            0.11806728482590        6.43510417769181        3.47359913690846
C           -5.78518881093056       -1.16880664018786        6.35714636637032
H            1.96798527619843        4.90952919867781        4.81326047525961
H           -2.13386160825232        5.22274383475081        3.70261957056984
H            3.72477365968927        0.52453895046561        5.94945096658034
H            1.25832070291951       -2.17687541393278        8.00410275094361
H           -3.49138991469024       -2.13559183180426        7.22206816253250
H           -5.40980233738997        1.64656094473118        6.30049117198571
O            1.02518412530725        7.24496375257650        3.68031807522963
O           -0.93005196416046        6.53341522494021        2.59576671178841
C           -0.95897532178264        7.80048787633486        2.03175997992952
C            3.45112593361246       -1.80481276050121        8.04746527363087
O            3.08744697022297       -2.95738475101129        8.06199939484291
O            4.39727987244289       -1.21379847286070        8.91334823493671
C            4.67349681167551       -2.11650393094955        9.88854294355858
O           -6.86490078603024       -0.65154703559753        6.55147066724112
O           -5.72300186880348       -2.41103050194052        5.99587197660908
C           -7.07359757140995       -2.89109454760251        6.06217776505452
C           -2.87430971003170        3.54295141880064        8.25020854619066
C           -3.65896069321068        3.13672212863012        3.29961531832421
H           -7.83104811303510       -2.68920083150791        5.37450667511074
H           -7.55371105976003       -2.52998192060940        6.92022056972714
H           -6.88845094486572       -3.97257431257705        6.24176654848860
H            4.46649455659728       -1.72409773160328       10.93696859889738
H            5.74398043479899       -2.43353458918439        9.74565941796645
H            4.06631375532232       -3.00820934582919        9.67062655520493
H           -4.23304516299864        2.26698933157797        2.98243652807585
H           -3.06647746928522        3.27281870187092        2.51070859560651
H           -4.49145892900058        3.89746464825997        3.57117564375526
H           -2.36245563764212        2.75075453671609        8.78198031259318
H           -3.82709999900235        3.95504041558468        8.76544639205829
H           -2.40480585971515        4.43357188929300        7.80427241543014
H           -1.76783006135707        7.60121240881397        1.38409045274545
H            0.00368329270758        8.10415344231495        1.45434033276178
H           -1.37121607122827        8.45366293709833        2.82698235809273
116
 energy: -22.681076677496 gnorm: 0.444669873603 xtb: 6.6.1 (8d0f1dd)
C           -3.02533750923765       -0.54946962465296       -2.04460426001965
C           -2.50932543548884       -1.13272070956013       -0.94032609013104
C           -2.04478367179556       -0.23585941868913        0.08599293151657
C           -1.93901331335860        1.15204012881259       -0.17980673980704
C           -2.47135549180339        1.66203971133209       -1.37816357116904
C           -3.06539605844078        0.80801343517568       -2.20618881145493
C           -1.78787163089446       -0.74213195559345        1.48509018458612
C           -0.69813831969830       -0.07101319275270        2.05653450260248
C           -0.39388517204010        1.23265881881039        1.63393379422536
N           -1.20849138271946        2.00780522274548        0.73853784367788
C           -2.27989820400469       -1.92737316192606        2.05971684807858
C           -1.30106388015115       -2.59785426866612        2.82275176674655
N           -0.20039154503618       -2.08146082906561        3.38250954832158
C            0.10150157688766       -0.80019459357581        3.01465001614664
C            1.09685128269549       -0.03054612193989        3.66110550541630
C            1.50928582378810        1.20848985133389        3.12579590564624
C            0.58913883337300        1.90456212029232        2.26029783898935
C           -3.47519921971284       -2.62658539593707        1.68047861716352
C           -3.45837416351788       -3.97449099240838        1.84732603484318
C           -2.51458497317313       -4.73483718876284        2.64900572980935
C           -1.41541044486853       -4.01120669840061        3.05710838337843
O           -4.55615924163997       -1.73784271019898        1.17598273453268
O           -2.97730783592619       -2.46169562010133       -0.80349163602940
C           -3.58427594392773        1.22635457619830       -3.47261255686102
C           -2.43725120172662       -6.26604344931506        2.67721866954376
H           -2.38124352302250        2.68149641716078       -1.70142829820927
H           -3.48734662529462       -1.14035534532488       -2.86645016655549
H            0.73621040431084        2.91784782950589        2.06035837467856
H            1.81181974396392       -0.66725133364076        4.15763208412197
H           -0.78429394208991       -4.44357172105084        3.85586419187252
H           -3.79596252428270       -4.60960707295437        1.14310554210616
O           -3.47568075572495        2.43841210312577       -3.75940519579132
O           -4.05034816363762        0.26875999824585       -4.39184504705385
C           -4.95401415856609        0.83987349675607       -5.34481914840929
C            2.77892740594852        1.84492004727030        3.64453108118869
O            3.59445320699627        1.05635848513707        4.16564886717798
O            2.79021418903749        3.14399443091129        3.51067672347671
C            3.92206400793329        3.67613958499904        3.93021693874183
O           -3.30584532703663       -6.96802450377132        2.09733332556501
O           -1.23601484694101       -6.81607803586957        3.05437930455063
C           -0.90162291711593       -8.02216666745912        2.39672461196939
C           -4.90498894670340       -0.70892259009315        2.11498901189414
C           -3.98877322976631       -3.19743068386825       -1.43320699314621
H           -0.82879418072110       -8.03239926562812        1.26910322538571
H           -1.83698592044397       -8.63507566748939        2.45527557004093
H           -0.16365487996720       -8.73593610675863        2.96260590062847
H            4.26242821592438        4.15642072397096        3.02656980343854
H            4.75645805509106        2.93735023830083        4.34499537774692
H            3.80582337800339        4.48634587018379        4.69751320841449
H           -4.48096485466581       -2.66082681726629       -2.27214032384334
H           -4.55016797721740       -3.75550727915183       -0.53249200505237
H           -3.49872987143241       -4.08524880582788       -1.76690790374204
H           -5.82571462621294       -0.96325908736933        2.65332714950257
H           -4.96770915870199        0.23672717011472        1.35987574608764
H           -4.23185392853079       -0.61088600958366        2.92445679945443
H           -4.28997869076145        1.08563528757960       -6.21322535863709
H           -5.38891385851335        1.62636486515851       -4.80992969855900
H           -5.68156735824977        0.02726770761203       -5.49317173587988
C           -0.84672675015300        4.90609605785916        4.43204711048408
C           -1.10086461239694        3.52857392503529        4.55470128472505
C           -0.24337662486123        2.79507453254254        5.42216309537261
C            1.03848539354559        3.42448307496249        5.65062331254946
C            1.28421874405785        4.84072809441221        5.47642098725075
C            0.37316646009884        5.52868912025826        4.73340994305585
C           -0.53277159071003        1.45773059117314        5.93573289743918
C            0.64613596837968        0.70286951052904        6.32386522217342
C            1.91092594774842        1.45165075585545        6.50624137401527
N            2.01886189679708        2.75162062876951        6.13329650046019
C           -1.86801828419523        0.89903946409602        5.89698436724740
C           -1.80595297869702       -0.50234365334477        6.21184789268611
N           -0.78054636496543       -1.16473564891638        6.80640975315214
C            0.35623359733029       -0.55199040587154        6.92638198312978
C            1.48486085260616       -1.29296234103403        7.33924659409990
C            2.71849704945354       -0.61657650823781        7.43706800598810
C            2.98467184827004        0.74240737959643        7.10677499314241
C           -3.23395201049566        1.51276137872034        5.85402550489717
C           -4.43397779321470        0.68886365381309        5.66382280867493
C           -4.19541971742316       -0.70603956264202        5.59211092424247
C           -2.94471183239214       -1.33549513569922        5.86727350731176
O           -3.74327379110009        2.84761537141069        6.07931340361300
O           -1.90001291028442        2.62630802459171        3.78321559609752
C            0.95448826064475        6.69859977846047        3.94715318295410
C           -5.46795667855103       -1.56356349146532        5.31198372472292
H            2.18838866511730        5.32792409142625        5.86116596241481
H           -1.42525993682182        5.52964854151194        3.71281084511877
H            3.92080337334072        1.26448121317206        7.26023755087379
H            1.35547113090969       -2.40319888274372        7.54092621897518
H           -2.88476718195586       -2.26337729038998        6.46571724923972
H           -5.36753286757965        1.15890440398230        5.26081409625430
O            2.09960398396357        7.10320713532408        4.03839956360199
O            0.05624780613872        7.24548557792810        3.12142089801434
C            0.33562157496940        8.57519778791535        2.66714478980306
C            3.93707432118889       -1.56794773039143        7.69077902950701
O            4.82828910686482       -1.88839135047943        6.88401635620657
O            3.65798633128690       -2.33143577836982        8.80091939027743
C            4.97070307666155       -2.74938824719255        9.45985663504662
O           -6.23880028445617       -1.04883295658397        4.47634967381853
O           -5.60999430398380       -2.55770620034677        6.29078286339875
C           -6.81063308231627       -3.13846882776995        6.06165360102014
C           -3.04976160794195        3.41462289044104        7.10149600743886
C           -2.85813191057001        3.27424022217506        2.94939892166976
H           -6.70337085323875       -3.54017353395731        5.01052349385875
H           -7.51451825141751       -2.19750488136907        6.11782737652546
H           -7.03896727831236       -3.80821720987412        6.87733392886719
H            4.92682162507151       -3.70541276731310       10.07185799773401
H            5.31337668376850       -1.93964646805102       10.11647550300809
H            5.70233839912528       -2.70484202983741        8.68568821617874
H           -3.84365792986289        3.22287242673009        3.24981414848279
H           -2.70979206948327        2.87075309706707        1.90241253508671
H           -2.77235595369194        4.34875923792951        2.78946927842405
H           -2.89533073227895        2.51351010013310        7.80871316506154
H           -3.37669887488258        4.35072034029161        7.62753882103177
H           -2.02135160054153        3.59443589516767        6.67699440951419
H            1.30410516274214        9.07964446163873        2.78980849779913
H           -0.60745666691194        9.04948211976832        3.03500997911233
H            0.14901523756555        8.62359782139108        1.65071045126564
116
 energy: -22.731220259508 gnorm: 0.445553907044 xtb: 6.6.1 (8d0f1dd)
C           -3.56492498858484       -0.35614880724739       -2.45266012323593
C           -2.80796646825295       -1.12284902762334       -1.62708447105870
C           -2.01305829139071       -0.34968162316627       -0.60628507073627
C           -1.78018879890823        1.04590388492204       -0.66821253064560
C           -2.60801017900783        1.65711371809092       -1.66608865155759
C           -3.53175108255436        1.00373456468040       -2.41809452820928
C           -1.54379690289737       -0.95748173983822        0.63407414512404
C           -0.41695867040538       -0.25036385312401        1.18645486121530
C           -0.18207260097559        1.12881709715384        0.86871824733720
N           -1.06528638018689        1.78141567830640        0.17474049197622
C           -1.88712591743393       -2.29667489361867        1.29124816350379
C           -0.80828378487794       -2.81127820103709        2.13694889048509
N            0.21899966176240       -2.03013720111728        2.61864011332937
C            0.46060686216926       -0.88337963156760        2.09585956004369
C            1.57144074155035       -0.33776230988387        2.61483731883991
C            1.84259733200865        0.97873829854467        2.30532962848178
C            0.84842811131788        1.70131465073831        1.58878692004130
C           -3.26346044459341       -2.87708912963274        1.24282225403826
C           -3.47710643358973       -4.04752527465346        2.10213067287281
C           -2.45658503486428       -4.49413232288412        2.99318294456047
C           -1.20597507741823       -3.85595842780059        2.92864562876849
O           -4.49111757157420       -2.46960949449929        0.65875688635889
O           -2.67030551706285       -2.44218254001537       -1.73468057970986
C           -4.41152198337768        1.78495170223065       -3.40567058632095
C           -2.81445133491092       -5.59671787999551        4.01970704446401
H           -2.36388343303339        2.60523647633112       -2.01592023217015
H           -4.15582832252464       -0.72959141724798       -3.29942584690781
H            0.78723394338457        2.71508088585437        1.82761741061072
H            2.16365053822440       -0.88040608834102        3.35455670052692
H           -0.37891600609820       -4.24593677232397        3.57055480315925
H           -4.43173470378618       -4.51173901875608        2.09709748173954
O           -4.63606760014934        2.92690248167017       -3.10931070523391