202
 energy: -401.101392919517 gnorm: 0.234169197335 xtb: 6.7.1 (edcfbbe)
C           -0.18120000000000        4.45270000000000        0.79560000000000
C            0.24620000000000        3.43760000000000        1.64390000000000
C            1.64770000000000        3.24930000000000        1.87460000000000
C            2.51130000000000        4.33010000000000        1.52810000000000
C            2.01640000000000        5.36960000000000        0.72210000000000
C            0.69930000000000        5.41900000000000        0.33340000000000
C            2.20020000000000        2.10350000000000        2.54330000000000
C            3.45990000000000        2.31740000000000        3.12940000000000
C            4.17460000000000        3.52820000000000        2.88580000000000
N            3.75730000000000        4.46790000000000        2.02120000000000
C            1.70930000000000        0.74730000000000        2.55340000000000
C            2.45930000000000       -0.20860000000000        3.31150000000000
N            3.50370000000000        0.10320000000000        4.11290000000000
C            4.04120000000000        1.32310000000000        3.96540000000000
C            5.24960000000000        1.60300000000000        4.61250000000000
C            5.91520000000000        2.79520000000000        4.40850000000000
C            5.39250000000000        3.73190000000000        3.54080000000000
C            0.69450000000000        0.22540000000000        1.66880000000000
C            0.61590000000000       -1.14720000000000        1.46150000000000
C            1.36270000000000       -2.05510000000000        2.18760000000000
C            2.22290000000000       -1.58550000000000        3.14400000000000
O           -0.68820000000000        2.71450000000000        2.35340000000000
O           -0.23280000000000        0.94270000000000        0.93690000000000
C            0.19260000000000        6.57870000000000       -0.43130000000000
C            1.24730000000000       -3.50060000000000        1.89930000000000
C            7.17820000000000        3.08840000000000        5.11550000000000
C           -1.91840000000000       -1.34740000000000        2.85930000000000
C           -2.52870000000000       -0.40260000000000        2.05190000000000
C           -3.39300000000000       -0.81280000000000        0.98540000000000
C           -3.47370000000000       -2.21590000000000        0.72540000000000
C           -2.75950000000000       -3.12250000000000        1.53350000000000
C           -2.02520000000000       -2.69950000000000        2.61260000000000
C           -4.32850000000000        0.05730000000000        0.32470000000000
C           -5.31440000000000       -0.57820000000000       -0.44800000000000
C           -5.19220000000000       -1.95860000000000       -0.77930000000000
N           -4.26980000000000       -2.75920000000000       -0.22130000000000
C           -4.54040000000000        1.46960000000000        0.53740000000000
C           -5.86830000000000        1.97030000000000        0.36610000000000
N           -6.80710000000000        1.34360000000000       -0.36920000000000
C           -6.47720000000000        0.13900000000000       -0.86620000000000
C           -7.37640000000000       -0.48970000000000       -1.73390000000000
C           -7.19220000000000       -1.79430000000000       -2.14690000000000
C           -6.12640000000000       -2.52390000000000       -1.65500000000000
C           -3.53100000000000        2.44110000000000        0.88620000000000
C           -3.92220000000000        3.62980000000000        1.50010000000000
C           -5.26230000000000        3.98750000000000        1.57000000000000
C           -6.20310000000000        3.20260000000000        0.94790000000000
O           -2.22790000000000        0.89350000000000        2.38580000000000
O           -2.20460000000000        2.26700000000000        0.53010000000000
C           -1.32560000000000       -3.61300000000000        3.53730000000000
C           -5.70580000000000        5.21410000000000        2.26340000000000
C           -8.17810000000000       -2.41740000000000       -3.05730000000000
B           -1.33530000000000        1.70100000000000        1.55250000000000
O            7.75490000000000        4.13650000000000        4.89900000000000
O            7.61990000000000        2.15150000000000        6.00250000000000
C            8.77650000000000        2.61940000000000        6.61540000000000
O            0.45520000000000       -3.82190000000000        0.83400000000000
C            0.41680000000000       -5.20110000000000        0.66590000000000
O            1.84040000000000       -4.31390000000000        2.57950000000000
O           -0.75310000000000       -3.12230000000000        4.49080000000000
O           -1.34050000000000       -4.95150000000000        3.28350000000000
C           -0.48560000000000       -5.57180000000000        4.19010000000000
O           -8.97240000000000       -1.71800000000000       -3.65520000000000
O           -8.14150000000000       -3.77820000000000       -3.15900000000000
C           -9.09580000000000       -4.19750000000000       -4.07980000000000
O           -6.89780000000000        5.43330000000000        2.36330000000000
O           -4.74570000000000        6.03470000000000        2.77590000000000
C           -5.36690000000000        7.05750000000000        3.48490000000000
O            0.96350000000000        7.27180000000000       -1.06490000000000
O           -1.14960000000000        6.81150000000000       -0.34630000000000
C           -1.47390000000000        7.92220000000000       -1.11630000000000
H           -8.86050000000000       -3.75710000000000       -5.05200000000000
H          -10.08000000000000       -3.85260000000000       -3.75290000000000
H           -9.07760000000000       -5.28740000000000       -4.14490000000000
H           -4.61040000000000        7.70990000000000        3.92540000000000
H           -5.97490000000000        6.60160000000000        4.27380000000000
H           -6.00980000000000        7.62060000000000        2.80360000000000
H           -2.54780000000000        8.10720000000000       -1.04330000000000
H           -1.19350000000000        7.72230000000000       -2.15370000000000
H           -0.91280000000000        8.78380000000000       -0.74500000000000
H           -0.68410000000000       -6.64550000000000        4.20650000000000
H           -0.64830000000000       -5.12750000000000        5.17670000000000
H            0.54590000000000       -5.37180000000000        3.88250000000000
H           -0.15400000000000       -5.63670000000000        1.48870000000000
H            1.43900000000000       -5.58820000000000        0.67290000000000
H           -0.06710000000000       -5.42770000000000       -0.28650000000000
H            9.10450000000000        1.89210000000000        7.36120000000000
H            8.54830000000000        3.57740000000000        7.09590000000000
H            9.54680000000000        2.76290000000000        5.85340000000000
H           -8.25820000000000        0.03740000000000       -2.05320000000000
H           -6.03400000000000       -3.56130000000000       -1.91990000000000
H           -7.22680000000000        3.53250000000000        0.93150000000000
H           -2.84380000000000       -4.17560000000000        1.33790000000000
H           -3.17580000000000        4.28430000000000        1.91150000000000
H           -1.32850000000000       -1.00550000000000        3.69380000000000
H           -1.22670000000000        4.53040000000000        0.56060000000000
H           -0.08190000000000       -1.51390000000000        0.73080000000000
H            2.80550000000000       -2.29100000000000        3.70900000000000
H            2.67110000000000        6.17700000000000        0.44560000000000
H            5.93220000000000        4.64810000000000        3.37920000000000
H            5.67740000000000        0.86840000000000        5.27010000000000
C           -0.09950000000000        3.50810000000000        5.16450000000000
C            0.38300000000000        2.58940000000000        6.09820000000000
C            1.78650000000000        2.55700000000000        6.38610000000000
C            2.54820000000000        3.70270000000000        6.00560000000000
C            1.97490000000000        4.66530000000000        5.15800000000000
C            0.68160000000000        4.55990000000000        4.71390000000000
C            2.42770000000000        1.50250000000000        7.12290000000000
C            3.66220000000000        1.86630000000000        7.69540000000000
C            4.28380000000000        3.11120000000000        7.37510000000000
N            3.78040000000000        3.97020000000000        6.47610000000000
C            2.01920000000000        0.12370000000000        7.28600000000000
C            2.79490000000000       -0.67100000000000        8.18650000000000
N            3.85350000000000       -0.22820000000000        8.89510000000000
C            4.31790000000000        0.99230000000000        8.60480000000000
C            5.51500000000000        1.39570000000000        9.20350000000000
C            6.10790000000000        2.60150000000000        8.89520000000000
C            5.50250000000000        3.44010000000000        7.98120000000000
C            1.01470000000000       -0.58050000000000        6.51860000000000
C            0.87630000000000       -1.96170000000000        6.65260000000000
C            1.61100000000000       -2.69490000000000        7.56420000000000
C            2.53460000000000       -2.04150000000000        8.33050000000000
O           -0.49760000000000        1.81870000000000        6.83270000000000
O            0.14400000000000       -0.02660000000000        5.59810000000000
C            0.09790000000000        5.61910000000000        3.86230000000000
C            1.45740000000000       -4.15720000000000        7.73110000000000
C            7.40050000000000        2.96610000000000        9.51400000000000
C           -2.26500000000000       -2.34000000000000        7.37570000000000
C           -2.60480000000000       -1.26970000000000        6.54880000000000
C           -3.56020000000000       -1.47310000000000        5.47670000000000
C           -3.92560000000000       -2.83360000000000        5.21190000000000
C           -3.47350000000000       -3.87060000000000        6.04340000000000
C           -2.70090000000000       -3.63060000000000        7.14570000000000
C           -4.31780000000000       -0.46170000000000        4.76870000000000
C           -5.36040000000000       -0.90470000000000        3.93580000000000
C           -5.48040000000000       -2.28470000000000        3.61720000000000
N           -4.75630000000000       -3.23110000000000        4.22510000000000
C           -4.26310000000000        0.96610000000000        4.91160000000000
C           -5.40510000000000        1.75400000000000        4.57100000000000
N           -6.39910000000000        1.29920000000000        3.78500000000000
C           -6.31520000000000        0.01480000000000        3.39710000000000
C           -7.26350000000000       -0.45950000000000        2.48170000000000
C           -7.31400000000000       -1.78960000000000        2.11450000000000
C           -6.43940000000000       -2.68870000000000        2.68590000000000
C           -3.08590000000000        1.68140000000000        5.30830000000000
C           -3.22650000000000        2.96190000000000        5.84080000000000
C           -4.41730000000000        3.66170000000000        5.70480000000000
C           -5.46020000000000        3.08910000000000        5.01230000000000
O           -1.94770000000000       -0.10990000000000        6.91880000000000
O           -1.85020000000000        1.15230000000000        5.00090000000000
C           -2.41290000000000       -4.71500000000000        8.10910000000000
C           -4.51290000000000        5.04300000000000        6.22280000000000
C           -8.30330000000000       -2.26690000000000        1.12770000000000
B           -1.03810000000000        0.69590000000000        6.09330000000000
O            8.01030000000000        3.93950000000000        9.11710000000000
O            7.84320000000000        2.14740000000000       10.51250000000000
C            9.04650000000000        2.63040000000000       11.01420000000000
O            0.50570000000000       -4.79730000000000        6.99370000000000
C            0.46920000000000       -6.13140000000000        7.38500000000000
O            2.18160000000000       -4.72820000000000        8.52430000000000
O           -1.84570000000000       -4.46280000000000        9.15370000000000
O           -2.85630000000000       -5.96170000000000        7.76720000000000
C           -2.72310000000000       -6.82250000000000        8.85400000000000
O           -9.02510000000000       -1.47280000000000        0.55840000000000
O           -8.32630000000000       -3.61580000000000        0.91050000000000
C           -9.21210000000000       -3.91950000000000       -0.11760000000000
O           -5.52400000000000        5.69350000000000        6.05090000000000
O           -3.41280000000000        5.50440000000000        6.88510000000000
C           -3.63980000000000        6.79920000000000        7.33520000000000
O            0.81390000000000        6.49380000000000        3.41740000000000
O           -1.24690000000000        5.55310000000000        3.64010000000000
C           -1.65120000000000        6.62640000000000        2.85520000000000
H           -8.70240000000000       -3.73610000000000       -1.06530000000000
H          -10.09540000000000       -3.27950000000000       -0.03490000000000
H           -9.49580000000000       -4.97130000000000       -0.04390000000000
H           -2.77880000000000        7.12440000000000        7.92310000000000
H           -4.54290000000000        6.80440000000000        7.95100000000000
H           -3.77620000000000        7.45530000000000        6.47300000000000
H           -2.73640000000000        6.58740000000000        2.74510000000000
H           -1.17100000000000        6.54920000000000        1.87760000000000
H           -1.34770000000000        7.55580000000000        3.34280000000000
H           -2.92640000000000       -7.84480000000000        8.52860000000000
H           -3.43990000000000       -6.52490000000000        9.62290000000000
H           -1.71140000000000       -6.74630000000000        9.25790000000000
H            0.43310000000000       -6.16170000000000        8.47800000000000
H            1.37810000000000       -6.62730000000000        7.03530000000000
H           -0.41840000000000       -6.61240000000000        6.96830000000000
H            9.37200000000000        1.98950000000000       11.83640000000000
H            8.89350000000000        3.65280000000000       11.36920000000000
H            9.79170000000000        2.62770000000000       10.21540000000000
H           -7.96870000000000        0.22720000000000        2.04820000000000
H           -6.51360000000000       -3.72890000000000        2.42500000000000
H           -6.33820000000000        3.67630000000000        4.80840000000000
H           -3.80880000000000       -4.87370000000000        5.84960000000000
H           -2.39660000000000        3.43980000000000        6.32910000000000
H           -1.62800000000000       -2.15320000000000        8.22190000000000
H           -1.09910000000000        3.41710000000000        4.78180000000000
H            0.18760000000000       -2.47210000000000        6.00230000000000
H            3.12750000000000       -2.61580000000000        9.02090000000000
H            2.56050000000000        5.51470000000000        4.85420000000000
H            5.98680000000000        4.36440000000000        7.72030000000000
H            6.00030000000000        0.73680000000000        9.90070000000000
202
 energy: -401.156763879610 gnorm: 0.112353003788 xtb: 6.7.1 (edcfbbe)
C           -0.19017349397409        4.45263670255057        0.81498065908311
C            0.23418167932872        3.43878247980801        1.66234675687215
C            1.62433030274196        3.24972428806360        1.88923147713915
C            2.50302032059247        4.32764237019701        1.53362941765085
C            2.02125757579527        5.37479489157036        0.72223051037338
C            0.70048898129867        5.41801811654804        0.34316684518057
C            2.18613524062766        2.10467328866488        2.54249191858091
C            3.44943228229801        2.31770408913733        3.12900760621909
C            4.16624906816679        3.52802189553142        2.88592194650032
N            3.74167221490125        4.45415501497863        2.02181185943338
C            1.69466835861495        0.75305462869711        2.53478241448466
C            2.45249542354378       -0.20457211978067        3.29963602666586
N            3.49059782233032        0.10729848191599        4.09292904146193
C            4.03165500595168        1.31960219934375        3.96171540891809
C            5.24288582766345        1.59408698528535        4.62086870254172
C            5.90744845968019        2.79099302836449        4.41195132752371
C            5.39013169960004        3.73682987246815        3.53999234168413
C            0.67006740464540        0.23404829151405        1.67124606856065
C            0.60035931860824       -1.13870942242772        1.46095095607432
C            1.36382129502009       -2.04933393391714        2.18499505247529
C            2.22203803235064       -1.58760793251299        3.15062930181679
O           -0.68353861311366        2.71878354282916        2.35544754502908
O           -0.22875066411499        0.93542870817579        0.93261314094168
C            0.21413135886605        6.57507020534890       -0.44013600714924
C            1.25608926893410       -3.49670003368954        1.91292408833611
C            7.17485791977183        3.10344803808464        5.10623851728917
C           -1.91120871420301       -1.34332828077642        2.85694208289221
C           -2.51214148421081       -0.39105321711246        2.04974274011267
C           -3.38875122720517       -0.79678861987469        0.99883474967596
C           -3.47742545108693       -2.20814017746044        0.73141713389390
C           -2.76336928655583       -3.13254913240083        1.52388696556705
C           -2.03465950659160       -2.70641411516593        2.60473765287270
C           -4.32389600334627        0.06461668676064        0.33173665360310
C           -5.31141477126708       -0.57463046281189       -0.44307211437336
C           -5.19066462234667       -1.95706764065459       -0.76998921529950
N           -4.27043419179096       -2.74303675970422       -0.20906412304765
C           -4.51815680619210        1.47414998512985        0.53570096360432
C           -5.85742647915372        1.96763827460539        0.36794322813065
N           -6.78512003131904        1.33759738005044       -0.36161068834702
C           -6.47473124059283        0.13888138761415       -0.86232096652840
C           -7.38244063084481       -0.48649962666292       -1.73058595984941
C           -7.18892788815536       -1.79765507536638       -2.14113082032418
C           -6.12207072972908       -2.53379852585009       -1.65124795064891
C           -3.51676221322881        2.43639399938840        0.87567346184742
C           -3.90858969967340        3.62368226419952        1.48720774008118
C           -5.25796501907314        3.97988059909927        1.56730339117620
C           -6.20705818028732        3.20083198003065        0.94831742234876
O           -2.22967593826610        0.88329926067553        2.38870185832991
O           -2.21374936728642        2.25406264540125        0.52425722249932
C           -1.32998288861252       -3.60098835264502        3.53796834335968
C           -5.72370225336348        5.20134448950805        2.25848148386229
C           -8.17901825704531       -2.39706836592458       -3.06376947074440
B           -1.33537866136696        1.69626927334030        1.55415742599956
O            7.76197599259348        4.13798015575870        4.89985335505278
O            7.60847119430370        2.17378148236834        5.98338270150926
C            8.78514510615249        2.61808930964167        6.61447516847616
O            0.47510506207114       -3.81557236449050        0.85777450556033
C            0.41703500546969       -5.20719162838461        0.66060474533975
O            1.84085099093881       -4.32067513170296        2.57773152411758
O           -0.75346238736665       -3.12628800561932        4.48980070618546
O           -1.33931576374390       -4.92243305637304        3.28581462999393
C           -0.48609313003178       -5.58412377315535        4.19310305866708
O           -8.97412110206336       -1.71740415305726       -3.66430568721024
O           -8.13604168126945       -3.74595880353731       -3.16950380475429
C           -9.09881745084077       -4.20210514952212       -4.08744348640863
O           -6.90362520705221        5.43854908783925        2.36492883269956
O           -4.77180600899934        6.01221041861409        2.76707887819748
C           -5.37061998402673        7.06617181313372        3.48502978357840
O            0.96451444769106        7.27598053561565       -1.07382746446360
O           -1.11693045138757        6.80329357308045       -0.35734547442309
C           -1.47739128207534        7.92682650230088       -1.12139314354464
H           -8.87951268104058       -3.77051122586491       -5.06695612180340
H          -10.08879141161672       -3.86552624270814       -3.76802831923410
H           -9.06397038000138       -5.28903980966605       -4.13444152026482
H           -4.59820170169386        7.70347327557166        3.91273315391935
H           -5.98328039872397        6.63454987542398        4.28123682017133
H           -6.01338682289026        7.64020171765556        2.81407828251112
H           -2.54976992469952        8.09329268038475       -1.03305455277855
H           -1.20437740081025        7.74517001209865       -2.16391350754609
H           -0.92480043403696        8.79772952773426       -0.75876592844011
H           -0.69753981631372       -6.65102883718293        4.18859597612149
H           -0.64213265557587       -5.15598649993810        5.18475443792528
H            0.55171917083608       -5.39343507061101        3.90074794822491
H           -0.15423832482534       -5.65839392151998        1.47390687063238
H            1.43277602632098       -5.61147242424599        0.66524444137168
H           -0.06872664738360       -5.41130974461072       -0.29185882908931
H            9.09527258516905        1.88000321230832        7.35242897087132
H            8.58149442032489        3.57670342528492        7.10029035916045
H            9.56551651509372        2.76302938314328        5.86424780902341
H           -8.26232001394251        0.04550436506323       -2.05339803235251
H           -6.02149829516039       -3.57200027970253       -1.91930521543314
H           -7.23274588943446        3.53069595508751        0.92222498247847
H           -2.85259792402633       -4.18503557530151        1.32037827708498
H           -3.16183422534266        4.27827813337693        1.90367377880226
H           -1.32274624321166       -0.99957495645607        3.69415356198483
H           -1.23466143080832        4.52052813494553        0.56294123589631
H           -0.08809366287547       -1.50589438899699        0.71912417208321
H            2.80903170755204       -2.28814459714695        3.72213329539822
H            2.68163576909749        6.18029130080335        0.44755161292339
H            5.93245971047678        4.65379253370624        3.37319264789039
H            5.67187219149228        0.85404968832878        5.27516427733096
C           -0.10730168493989        3.50046201126021        5.17801744397259
C            0.37124675272732        2.58871616197910        6.11614189408588
C            1.76566729296549        2.55386780698211        6.39591494934648
C            2.54467155209353        3.69645911592645        6.00426765745684
C            1.98212744370126        4.66769425860727        5.15297945451790
C            0.68427554373738        4.55172296069696        4.71735437795109
C            2.41718052103872        1.50158380329971        7.11899795976001
C            3.65646589493521        1.86282114901277        7.69070892022784
C            4.27964465234877        3.10759734350839        7.37269981572081
N            3.76992277392214        3.95471384908883        6.47504067653300
C            2.00571812641845        0.12665388293868        7.26652337384246
C            2.79002295202519       -0.66908967553230        8.17628085978586
N            3.84169244583476       -0.22659639827332        8.87653050840145
C            4.31391946098837        0.98576173975416        8.59839156963823
C            5.51309611994153        1.38383881811494        9.20990912465470
C            6.10318468352296        2.59578692212866        8.89865749252282
C            5.50325474885024        3.44204177839040        7.97784838377276
C            1.00086786526252       -0.57269075120848        6.51417204940400
C            0.87291712637036       -1.95454307016896        6.64679888221323
C            1.61431382487163       -2.69152068207116        7.56291400017720
C            2.53828003099414       -2.04325425950140        8.33913676436973
O           -0.48888894019512        1.82070432338220        6.83835920353449
O            0.14837551387043       -0.03061801199119        5.59959798141392
C            0.11768372979677        5.61310341977106        3.85545813679896
C            1.47356489462444       -4.15210469063456        7.74687285185917
C            7.39392428601785        2.98057502198981        9.50969010678045
C           -2.25895882124811       -2.33564908628144        7.37189778895338
C           -2.58099610982803       -1.26067370702209        6.54358387927315
C           -3.54625602746225       -1.45543365444443        5.48669853575862
C           -3.92040316839253       -2.82326700525875        5.21599923622553
C           -3.47519764825183       -3.87830854977827        6.03361348151807
C           -2.70596105791311       -3.63224601857513        7.13983344042424
C           -4.30429080574041       -0.45519511901776        4.76912874469731
C           -5.35245868259181       -0.90213602793518        3.93740321979166
C           -5.47487964096132       -2.28356515484368        3.62202872790724
N           -4.74981342149877       -3.21360265355442        4.23724947147269
C           -4.23915469819478        0.96792783972350        4.90449163036741
C           -5.39510309805801        1.75135582135983        4.57014280229611
N           -6.38089324432702        1.29086580633321        3.79288271504584
C           -6.30871605390675        0.01482489640791        3.39857933902266
C           -7.26310503257414       -0.45457458111908        2.47970159082980
C           -7.30911401632291       -1.79344428015046        2.11731870195039
C           -6.43321930487384       -2.70007843077439        2.68603489592254
C           -3.06945901681277        1.67861908231160        5.28712380052487
C           -3.21229543356977        2.95201283744946        5.83074874751316
C           -4.41497164480643        3.65055797032842        5.70478762891053
C           -5.46441211603617        3.09028236461359        5.01006856958248
O           -1.94855436548381       -0.11866894508591        6.92592281489482
O           -1.86455694326001        1.14504401811869        4.99145143963442
C           -2.40263972231642       -4.69979309951381        8.11554332505242
C           -4.52686410107368        5.03173385620603        6.22067600262797
C           -8.30614281023343       -2.24769267591786        1.12691726458627
B           -1.04305834698374        0.69494883977233        6.09053906482119
O            8.00782329569994        3.95230822180337        9.13593393909698
O            7.83259879709958        2.16742858089116       10.49314143725806
C            9.05178525028997        2.63054229330743       11.01880604103571
O            0.52153905522571       -4.78026055184474        7.02548822250712
C            0.46760433227139       -6.13876832263339        7.38803385676536
O            2.18578941354349       -4.73851940597310        8.52833302699845
O           -1.84375463800816       -4.46457300087007        9.15997060034666
O           -2.84837639944765       -5.93346677957809        7.77931590464483
C           -2.72493455890317       -6.82868625088405        8.85862404216347
O           -9.02487585743830       -1.46851231841871        0.54781738902393
O           -8.33007707325349       -3.58186127091946        0.91645027452921
C           -9.21940423469242       -3.92718377990631       -0.11718222039531
O           -5.52827398662552        5.69176358549262        6.06720293752829
O           -3.43678011113247        5.49230468281169        6.87073785836631
C           -3.63829557142844        6.80264676576143        7.33739855873043
O            0.81292644946909        6.49569573763144        3.40647420884690
O           -1.21417908200513        5.55469152490330        3.65232146767348
C           -1.65289980988541        6.63086095358932        2.85892719650651
H           -8.72100286209196       -3.75124204424622       -1.06948272517727
H          -10.10949577069983       -3.29585682741722       -0.05141621428835
H           -9.48806069543585       -4.97801417899020       -0.02788681901852
H           -2.77113522623533        7.11049338512776        7.91965332102678
H           -4.53904312603732        6.82751606562547        7.95678751109022
H           -3.77738331296132        7.47245328676678        6.48497699392385
H           -2.73353299208833        6.57560302233194        2.75649812904239
H           -1.18247791607458        6.56881989009348        1.87689327866457