116
 energy: -22.928061455056 gnorm: 0.329736929581 xtb: 6.6.1 (8d0f1dd)
C           -3.31122850772930        0.79849766164622       -0.92477639677520
C           -2.44380812530352       -0.12270372891954       -0.27661132624697
C           -1.41337090092821        0.39579727573559        0.56335275196199
C           -0.89266158675590        1.65801491088749        0.27377586709581
C           -1.72665675402493        2.51431363229076       -0.49448366572522
C           -2.95444148494349        2.13954154133227       -1.01494489940871
C           -0.74098268209890       -0.43411532818871        1.49825021926784
C            0.56872586496315        0.03782116815119        1.86248088067890
C            1.03782416582094        1.29402317993033        1.50887470833621
N            0.31238977034758        2.07067427098208        0.65193736800696
C           -1.29695700510141       -1.39996043042223        2.41574187746061
C           -0.38243517664656       -2.18060797534842        3.13232615520648
N            0.91308504082021       -1.90366887689689        3.30325166013478
C            1.37712470144904       -0.74872102533751        2.81811050966982
C            2.52149331701875       -0.17739833758153        3.39379298866852
C            2.95849061756259        1.02681208890480        2.95105897606587
C            2.24288949469137        1.78498308775960        2.03503020483770
C           -2.74860936222260       -1.74497937691422        2.38401158947411
C           -3.09416315450955       -2.91614440870436        3.00571134491758
C           -2.16786021984049       -3.77788778654213        3.63251872101904
C           -0.85708937311598       -3.40495313382985        3.68547234358092
O           -3.71994433332149       -0.94984598373544        1.67726658385724
O           -2.55702603277562       -1.47241711578389       -0.57241635275616
C           -3.84297843593025        3.13357444054366       -1.60938954875544
C           -2.68769581069131       -5.03867041417370        4.30484659386931
H           -1.39666850744143        3.51251503834900       -0.76806311868865
H           -4.27662633836220        0.55105838579656       -1.33106614114542
H            2.66329581305412        2.73912661909249        1.72562431984580
H            3.05775395548473       -0.69369546277216        4.16536137542516
H           -0.24710966264510       -4.12034095424229        4.22946223699121
H           -4.11477991332403       -3.04712728052358        3.03244694615357
O           -4.21824883374556        4.03433712717988       -0.87713382485991
O           -4.44510595673734        2.90643496899600       -2.81853501752979
C           -5.44216520282800        3.83300025693726       -3.02488532025093
C            4.23586651889298        1.50004220933226        3.59165660008449
O            5.05927614697201        0.66079890002952        3.91714215179376
O            4.47001334453535        2.86385149488593        3.72605651435371
C            5.79457498613219        3.08584475587818        4.15829123132174
O           -3.82227255313510       -5.27347675879771        4.16636005494405
O           -1.85023202017753       -5.79767454267276        5.06656077253571
C           -2.55119635829503       -6.86252441382958        5.62930343183426
C           -5.07197156564436       -1.42399175670916        1.58830531863830
C           -1.33089900128490       -2.23622472573986       -0.99264499351172
H           -2.54510546830388       -7.76426885143998        4.99136022291012
H           -3.57194749219491       -6.44405511486021        5.74196173723541
H           -2.09133598235598       -7.02043774843818        6.64022264233588
H            5.72707967266424        3.46798026205549        5.10135971236643
H            6.34060091246885        3.78468702308830        3.50069950143490
H            6.17933064298187        2.03010500085905        4.19342358084693
H           -0.91862729772622       -2.57650129080332       -0.01361370304871
H           -0.49769766914251       -1.60651221708571       -1.34094446550576
H           -1.52632419730509       -2.94569707152159       -1.75361447637286
H           -5.11788846557077       -2.41810833635233        1.17520213188926
H           -5.67929807973498       -0.69619639428435        1.04301666067831
H           -5.57598832326623       -1.42383358739762        2.57928294206544
H           -6.13050215934830        3.76035386975488       -2.23272855695873
H           -5.86615610071888        3.45938329385866       -4.02668959924245
H           -5.13479557532099        4.87790991548477       -2.98314551356402
C           -1.38192942069774        3.73616555005018        2.91232598411686
C           -1.84821468128685        2.59982427735607        3.49755545445181
C           -1.05946531454833        2.05730632010638        4.60922730982276
C            0.19893954712228        2.69376791964407        4.86302140881997
C            0.50425395911860        3.94630308659851        4.28768785650746
C           -0.26031777722226        4.46998310053134        3.25072669343212
C           -1.20488993561782        0.74454293276906        5.14851520323437
C           -0.06287609782692        0.02744069315890        5.60930570802864
C            1.19208754369866        0.71421540266195        5.78882868583885
N            1.19428660993148        2.06344359410476        5.62744624321596
C           -2.41361422770794        0.07928500213936        5.25249410304426
C           -2.45851584031083       -1.32662100968547        5.60237876023992
N           -1.29466212405906       -1.98318595734370        5.89916817085159
C           -0.14475655767527       -1.32117560077092        5.98824682881008
C            0.97209270935794       -1.98958449505532        6.53157704134458
C            2.21982707914082       -1.36973967291181        6.68703967237737
C            2.30561929262884       -0.09745313075593        6.26436900324455
C           -3.73018485967715        0.71367583494582        5.25810242262992
C           -4.89964478833448       -0.06184623426677        5.21204641615509
C           -4.82617965800088       -1.39228978090841        5.46901303780036
C           -3.67144193418464       -1.98914944386360        5.67265433266067
O           -3.75568638935321        2.07705011038914        5.52067969627343
O           -2.94192434743730        1.91263938797883        3.01658762327703
C            0.21273512614467        5.50086066357994        2.34765104514621
C           -6.06660304520411       -2.17604633098929        5.80641622556876
H            1.41756699010566        4.38133362238595        4.66974005703471
H           -1.82880610647429        4.11982501512100        2.06992133318584
H            3.26888037378556        0.32655662585251        6.31721410015598
H            0.87146188387207       -3.08471526305024        6.57830423410869
H           -3.67716811065157       -3.05999292755990        5.83019634570050
H           -5.77379677507622        0.43595144608221        4.71017130754348
O            1.34459852619901        5.82615848916894        2.44941456579099
O           -0.74718748219123        6.07961784856304        1.59848183464284
C           -0.21473095568964        7.24015934882472        1.05753806029483
C            3.53228080814219       -2.00967610361154        7.02506769044485
O            3.64093082622715       -3.14437803815732        7.50071391725347
O            4.56565258381079       -1.22937033368332        6.69086985080897
C            5.72579357310716       -1.80692399125161        7.22246151275881
O           -7.04801223588612       -1.95726935745904        5.14194115322235
O           -6.01514389321278       -2.93743591896022        6.94765316328794
C           -7.21292732384718       -3.62681918543340        7.15115816329978
C           -4.95459780685163        2.65960679932188        5.86868674392943
C           -3.68284113682406        2.59129188358641        2.05479246020704
H           -7.43119628931628       -4.22607794725959        6.20622607140901
H           -8.06548455146707       -2.91765848248592        7.29781126410398
H           -7.07314693247270       -4.33087306029711        7.91223421050944
H            6.57332189837178       -1.29353136199234        6.78341268688262
H            5.74663761932316       -2.84282155125561        6.88089468184451
H            5.69426191474290       -1.72781984964892        8.29460302186842
H           -4.10481209541493        3.44288266176275        2.60483747673152
H           -4.49244774344916        1.87419893016926        1.82433103764650
H           -3.18901540870812        2.85154642679373        1.06781919454921
H           -5.55414326821421        2.76698137191684        4.93950725322359
H           -4.78658370641210        3.62090640967288        6.25983200635257
H           -5.43485580473958        1.97242995129449        6.65265772412460
H            0.89164886030839        7.38838561720231        1.13776105146914
H           -0.62894889903848        8.04195665205089        1.64837664327952
H           -0.59282546386754        7.45699159724320        0.03719083132488
116
 energy: -22.677778624564 gnorm: 0.463486628645 xtb: 6.6.1 (8d0f1dd)
C           -2.82762034674882       -0.45184182910146       -2.51055691316993
C           -2.04695251923812       -1.07282706469667       -1.50536494953555
C           -1.42820707625548       -0.18397292257393       -0.50607775785712
C           -1.11643781129644        1.14237304391854       -0.80948976110531
C           -1.85268024776456        1.67043890460981       -1.85476847612574
C           -2.70101125638779        0.95362957555638       -2.58223995260902
C           -0.91429437851757       -0.43538618692605        0.86202007328068
C            0.29218018080652        0.13666981923727        1.33477580853453
C            0.53691684945650        1.40367938294818        0.90054739784695
N           -0.27415404468203        1.99708176472491       -0.06534740044363
C           -1.25884801635463       -1.62906727375147        1.61266664047875
C           -0.06352613853390       -2.15383259331386        2.42209121061944
N            1.22519129875565       -1.71410757799699        2.59085212370692
C            1.23226060004625       -0.43815358690737        2.25328201148609
C            2.23847809215195        0.33475417640773        2.89592853562592
C            2.52135710755983        1.62015310511039        2.42667647458598
C            1.54939575445436        2.19506172053553        1.60301599394282
C           -2.48055676167324       -2.22818067682894        1.90224322855373
C           -2.51765544682613       -3.48901521243144        2.57151906451130
C           -1.44994361773898       -4.04411936226570        3.20338584137699
C           -0.30379553294589       -3.26689390707449        3.18935419654713
O           -3.67371554907350       -1.69938834001619        1.52278432611641
O           -2.10182361758782       -2.47549974057649       -1.47118692826683
C           -3.49442688649661        1.60774744372671       -3.57449294222878
C           -1.63656599945059       -5.09749988731270        4.17497350198275
H           -1.86884552211872        2.73292000755609       -2.00329957530420
H           -3.55357514191200       -1.09123332960728       -3.05766456104134
H            1.63592377039335        3.25925704346027        1.24419587273359
H            2.63066093918089       -0.00849316535705        3.83893503596152
H            0.72279998335097       -3.70154712913857        3.54797720385441
H           -3.47833931358233       -3.91827023146501        2.71109891471265
O           -3.05040500017764        2.45220955684247       -4.30769302841179
O           -4.83994924829001        1.32779648559354       -3.55844171341753
C           -5.51135033840301        1.99498396859339       -4.66750504410566
C            3.61041821360032        2.39371060374263        3.22496104945185
O            3.73851607621582        2.19885715841691        4.43233499818420
O            4.51390578633195        3.17077705350468        2.51000513634499
C            5.79913400627551        3.31313438104464        3.07386908200566
O           -2.16407888763307       -6.14150519106934        3.75745338984794
O           -0.82194450711868       -4.88620636102441        5.30402139123225
C           -0.81903794193499       -6.12330129932114        5.96944512148428
C           -3.78885495718254       -0.17215662334456        1.76186732183672
C           -0.90114603883512       -3.07190649008999       -1.05276857037906
H           -1.88550746863660       -6.29897315229929        6.43425270217203
H           -0.13014140897923       -6.20203674344172        6.74249086506492
H           -0.59938197031284       -6.83725705071780        5.31280577386732
H            6.30938747097379        4.22789534239211        3.47424753355754
H            6.65088876437514        2.65512607058357        2.61656168429354
H            5.60593404438290        2.77724669166135        3.92000419239846
H           -0.90891804174016       -3.19697460885940        0.04088245962675
H           -0.28625987949269       -2.34511970474609       -1.55362855487464
H           -0.86843300982523       -4.01849704089357       -1.60448085816055
H           -4.72796348017592        0.29004121528612        1.77317416176563
H           -3.14764543867608        0.28952523409014        0.99163129188755
H           -3.18228738499585       -0.02710095030075        2.69165628024812
H           -5.90115950949154        2.96483626675023       -4.14714040734549
H           -6.35587843171945        1.34820785979968       -4.99191299190822
H           -4.61376668620654        2.51248827747903       -5.14359031668470
C           -1.59109992349428        4.39003279734503        3.85372396278343
C           -1.83384451150658        3.08020433465269        4.28552421307577
C           -1.01767225095698        2.27871129341605        5.18544166039731
C            0.34789509857370        2.78717218304636        5.30611872152095
C            0.60774594928211        4.19003231839375        4.90867499395135
C           -0.41785399863522        4.99923577784156        4.35303317692535
C           -1.48441638572291        1.02441923131986        5.87826128583338
C           -0.39763894840407        0.12781026093812        6.07609425085973
C            0.98971645539081        0.58814424528897        5.94449685639778
N            1.27452025448129        1.81365554070817        5.49481544354892
C           -2.87604215545980        0.46173016179486        6.02023216705161
C           -3.04368321965794       -0.90185323940416        6.21264109833094
N           -1.96743166270682       -1.69591303703987        6.15156654880554
C           -0.68337397911269       -1.30234519931366        6.27556366028691
C            0.53213959419201       -2.06799905570420        6.37076824019676
C            1.84279173926575       -1.55643275581477        6.41226418182411
C            2.22279128114380       -0.21312770215178        6.18816649492798
C           -4.09971401757308        1.30391957626107        6.23187217876664
C           -5.35742425799996        0.64547128017366        6.39494626884025
C           -5.50497201524799       -0.79668678287570        6.69757594854848
C           -4.28906131698019       -1.55804548705751        6.47879354908832
O           -3.86272158661926        2.65074951087676        6.40765844882473
O           -2.91286193254043        2.45436070071212        3.73001326801199
C           -0.03562515217990        6.41901396056777        4.23201623831906
C           -6.75020090881617       -1.66123417225223        6.80543343366350
H            1.51869653541917        4.61670570954970        5.29205270961328
H           -2.26612042769816        5.01381419272126        3.23928421258338
H            3.20563060975056       -0.06388186121200        5.82663436769085
H            0.52749730658860       -3.06277252075882        5.91334047820382
H           -4.32617108589803       -2.61212990828576        6.50167185209871
H           -6.11513885535843        1.38272164317834        6.24904425217591
O           -0.89799789640784        7.24762834108478        4.08896999555959
O            1.29988907201581        6.71990224757664        4.16330290093077
C            1.38279478442265        8.13539792751940        4.48502712879076
C            2.91338379086056       -2.65081503250257        6.34073580533785
O            2.67217398045010       -3.67595392354105        5.72718535714751
O            4.06323114277947       -2.49766335338564        6.95642921726282
C            4.95701439595122       -3.44449678938875        6.41659288277014
O           -7.87808236826183       -1.15134666712953        7.10044243640190
O           -6.78018136594798       -2.97853220501797        6.81402701877840
C           -8.15870093785913       -3.43511612594982        6.80362221287016
C           -4.55104290648330        3.01080041556970        7.65457539625724
C           -3.83079097598153        3.23414524464839        3.07064773061715
H           -8.36553211187950       -4.27097894569382        6.20669499400079
H           -8.77984893579895       -2.58772865212773        6.63401843241884
H           -8.20913840258333       -3.72803116300070        7.92587008625902
H            4.72414084071191       -4.41097033680821        6.74554369995968
H            5.95407046740115       -3.20287527020179        6.82153475397948
H            5.14892130799780       -3.43478874908518        5.27369030577657
H           -3.42946080680747        3.46502618947659        2.05641252327846
H           -4.06893127017226        4.01954205280082        3.72667080099510
H           -4.73883657854179        2.65450027727226        3.00169595165595
H           -5.60267900969954        2.57620208660495        7.63714652511764
H           -4.64917045976922        4.15742005579485        7.62628379910282
H           -3.88691837550838        2.64485016831001        8.42890625613083
H            1.22459322999886        8.40555748192264        5.55334189526432
H            0.85284013473949        8.62738089905897        3.69422631389002
H            2.30633358588351        8.51047100873633        4.42983835273601
116
 energy: -22.724201995191 gnorm: 0.459090431438 xtb: 6.6.1 (8d0f1dd)
C           -2.60451576709554       -0.96398035615066       -2.37370287973591
C           -1.74281659297035       -1.21480551045690       -1.34840007721414
C           -1.08930080058233       -0.03132134360983       -0.79208929162112
C           -1.08425130427990        1.25063453284107       -1.39158498499736
C           -1.86939134416638        1.46999371782622       -2.48679142125516
C           -2.64067576815445        0.37248160017908       -2.97670089722963
C           -0.52257723757703       -0.23235647011002        0.56898388646009
C            0.49955458779019        0.67982444088930        0.90840296920779
C            0.54843102244655        1.94407779085618        0.09251399493490
N           -0.39137033113589        2.22075463663213       -0.82878745530521
C           -0.78188198949582       -1.17552970019662        1.59779351970712
C            0.40388231112902       -1.68955195844075        2.23548122696409
N            1.33656875349866       -0.83882954250985        2.73397077114206
C            1.35814697346566        0.41419658395167        2.02611030926769
C            2.36142456632646        1.40421502533380        2.21498254026706
C            2.40348871738242        2.50891947967742        1.39501677077332
C            1.58624823790959        2.81645175661005        0.34954633329988
C           -2.05135570391718       -1.86240741245520        1.87133879287385
C           -2.01278719102855       -3.08753442591004        2.55645061770722
C           -0.85982974108877       -3.71501484835083        2.97290596492640
C            0.31847141293772       -3.04040826999339        2.69905907243949
O           -3.22157410234958       -1.11009637424531        1.66324083710624
O           -1.67394224515158       -2.51040136840396       -0.80376716354930
C           -3.52648069604475        0.44472651203460       -4.13577682288367
C           -0.54491931416111       -5.05762290716620        3.61672958365871
H           -1.58144987369702        2.29800164409641       -3.11470693475128
H           -3.41045595046304       -1.63042983512905       -2.66237930693261
H            1.79191421435671        3.75095222413578       -0.21378452437219
H            3.02654602973685        1.01771649730720        2.93968786497137
H            1.40250941775444       -3.37710455036721        3.01991748764389
H           -2.86243676779543       -3.56344204905866        2.90113641238893
O           -4.61814730479745        0.97319471511425       -4.26077589214758
O           -3.03731964301767       -0.43521700979701       -5.09099636504824
C           -3.81165987780808       -0.43030662604735       -6.21644348097490
C            3.46678567652658        3.53122488461034        1.78261500189172
O            3.72098993620428        3.77218784268254        2.92413306135879
O            4.17951311706554        3.74017686623789        0.63102494986031
C            5.28882942983122        4.42326794121478        1.08564036898445
O           -1.43985350767716       -5.67390200187528        4.29613267940079
O            0.71098788594532       -5.45337088457609        3.48474792404489
C            0.98942409685028       -6.59150535537369        4.21179196456119
C           -3.41546281485935        0.03781223058673        2.53209713382886
C           -2.65256541901332       -3.49889654070780       -1.13923214746621
H            1.37870760844632       -6.26773277627170        5.09137175953019
H            1.79492140264385       -7.13439054064547        3.72062432807957
H            0.05034139146556       -7.09180113854147        4.50614790515611
H            5.42849286518410        5.41704736009826        0.63266659927756
H            6.17229957775171        3.88842227632995        0.53837350922235
H            5.37177480865859        4.38281147995566        2.21281329448695
H           -2.81056219472354       -3.44362419590844       -2.17800062959859
H           -3.55212580050737       -3.44363614890096       -0.48947718881530
H           -2.24364391088457       -4.51160209761714       -0.90539775517580
H           -3.22905603997494       -0.21501265246682        3.56781425684663
H           -4.34507365963426        0.65741982491311        2.43057285225278
H           -2.63045618090150        0.77815787127039        2.36436363201468
H           -3.55297094428349        0.38628874987476       -6.77973556008303
H           -4.91324409639971       -0.23181306485233       -6.00562553950929
H           -3.71546480527392       -1.40733770274791       -6.87610129384744
C           -1.67752307646890        4.53171606251448        5.55855977828017
C           -2.11585870723848        3.17028672907255        5.39372260952256
C           -1.33493748775713        2.09037550630293        5.85564443287795
C            0.06276338174000        2.28091606531751        5.87208499263838
C            0.46920759340503        3.62524537594607        5.52099756819294
C           -0.37656488413524        4.74951308872573        5.48202021594069
C           -1.75598267440689        0.82370966983904        6.21455214612912
C           -0.79999056164734       -0.24984125190984        6.25565891923986
C            0.53864934885789        0.04980866687589        6.45739084919052
N            0.96024956457524        1.38854927402203        6.44690959386705
C           -3.14300608334750        0.48739442104175        6.42017598666313
C           -3.47441972870893       -0.91713130594954        6.43620282221394
N           -2.53869036504544       -1.81625761025296        6.52234040960090
C           -1.30388464615137       -1.48717593125030        6.41447326067283
C           -0.40129178095070       -2.58167814358026        6.73419334449703
C            0.95463339551044       -2.27713378107942        6.91022572300298
C            1.45555158025573       -0.99099326308305        6.68359442801637
C           -4.15106306500139        1.48138347779302        6.86246773096435
C           -5.46389618014450        1.05802211772071        6.64600110002658
C           -5.65961799312751       -0.25464136127306        6.20805203269043
C           -4.72089800031702       -1.25095445334916        5.99158759109716
O           -3.92286564357564        2.69767967408278        7.51114023255662
O           -3.43384982252409        2.82687642762068        4.93378545331793
C            0.29167767484864        6.13407427404965        5.40443017615050
C           -7.08045503906873       -0.56536567478797        6.21558420161686
H            1.50378086708319        3.92434850131567        5.68323288555954
H           -2.36497659144789        5.38706070404555        5.38951914571655
H            2.51136674896458       -0.82425011447583        6.68429773609588
H           -0.71205782089755       -3.56677180813687        6.96790815784035
H           -4.95953062093012       -2.17412861125436        5.62322478624729
H           -6.23891108464269        1.79171216101749        6.50341210504433
O            0.13711339871790        6.99628673985738        4.52456165506991
O            1.00528864549758        6.46835077529802        6.55670853965607
C            1.56354577436155        7.66312586927653        6.37008131209706
C            1.89916732991783       -3.40940735047773        7.00448914585971
O            1.26182519069821       -4.43482232848832        6.90289843880689
O            3.27657852875016       -3.24843992296041        6.90372297915109
C            3.93810946345596       -4.27171084634291        6.17700066923209
O           -7.98274138614010        0.22512950794731        5.93388800123060
O           -7.18610663284452       -1.96809725498258        6.56853934378140
C           -8.58869126233036       -2.25223020719144        6.85231246268242
C           -2.99290202194889        2.67567603057532        8.59208565325287
C           -4.21865032333662        3.93091724373570        4.93979111547102
H           -8.84202218891997       -3.14226166222773        6.25683705895088
H           -9.22438455418375       -1.36379602135828        6.30636654487935
H           -8.67840559977643       -2.41670343226443        7.86559392212225
H            4.49400975669135       -4.98866064736542        6.87547500524532
H            4.73052323026099       -3.91889686563931        5.49041038226623
H            3.25962827309640       -4.69529810717715        5.43583390151988
H           -3.94353219276255        4.66074349310723        4.25958634006769
H           -4.17390750422065        4.34807764756471        6.00813612482397
H           -5.24285831232812        3.69432997188788        4.64419010854658
H           -3.54006690192635        3.21628561113976        9.40838143244245
H           -1.95309789454779        2.97291513266037        8.45932257618068
H           -3.02274204305265        1.66238073417921        9.19628930017404
H            2.11060449286947        7.72934530640075        7.36478018513878
H            0.66060263207757        8.27908053698299        6.13041570316491
H            2.20027917218894        7.87690659315160        5.51763378281557
116
 energy: -22.691625220935 gnorm: 0.443096175784 xtb: 6.6.1 (8d0f1dd)
C           -2.33237065671126       -1.01155896135107       -2.84325652073005
C           -1.70330421463766       -1.30793579302012       -1.64668683385037
C           -1.53487647235703       -0.15489137687252       -0.72761521042884
C           -1.81283960454466        1.20163956891039       -1.17593928957536
C           -2.64799545272963        1.37318496157394       -2.29858829692785
C           -2.80540827516508        0.20893688119778       -3.11744444643138
C           -0.64132763385306       -0.30791106758981        0.34853695781198
C            0.02354300015765        0.80890176668399        0.88564499656055
C           -0.49447618461616        2.03058312944126        0.49682099448829
N           -1.57921837082056        2.20151563514423       -0.25416320996675
C           -0.50055248604225       -1.51342546364740        1.26945984729138
C            0.74737950476250       -1.71023156682576        1.93180308039407
N            1.69678809293746       -0.84392825648739        1.83349905559736
C            1.23203174162799        0.39445677255920        1.41298085610502
C            2.06206612847726        1.53884603003091        1.58181381254034
C            1.78528759213242        2.79360942664218        0.93105177457935
C            0.46908768978316        3.05510621051147        0.60442431182802
C           -1.63047590528401       -2.17874848510059        1.69391034801067
C           -1.46844695794851       -3.37176120960435        2.44241331979614
C           -0.13390972835839       -3.63365503412510        3.05135414670543
C            0.89126910344779       -2.78389751841982        2.88713612251738
O           -2.93982270346181       -1.55607684803378        1.36940310537029
O           -1.05334816966921       -2.54820511544201       -1.34683460424370
C           -3.51851630200913        0.45694315837862       -4.40724884005742
C           -0.07812723776261       -4.76585664391809        4.03840483458882
H           -3.30936140582704        2.22482514813604       -2.49906637442199
H           -2.42125727816376       -1.72934655823509       -3.59700041730633
H            0.16498545867369        3.92800306102816        0.07747070336587
H            2.92817290709736        1.41494016539455        2.10675322053961
H            1.83565515064087       -2.95381643639892        3.41713887677660
H           -2.12641313518015       -4.16180917904109        2.74098717799629
O           -3.69835472776999        1.59811898292195       -4.87081485181232