      -----------------------------------------------------------      
     |                   =====================                   |     
     |                           x T B                           |     
     |                   =====================                   |     
     |                         S. Grimme                         |     
     |          Mulliken Center for Theoretical Chemistry        |     
     |                    University of Bonn                     |     
      -----------------------------------------------------------      

   * xtb version 6.6.1 (8d0f1dd) compiled by 'runner@Mac-1690902418499.local' on 2023-08-01

   xtb is free software: you can redistribute it and/or modify it under
   the terms of the GNU Lesser General Public License as published by
   the Free Software Foundation, either version 3 of the License, or
   (at your option) any later version.
   
   xtb is distributed in the hope that it will be useful,
   but WITHOUT ANY WARRANTY; without even the implied warranty of
   MERCHANTABILITY or FITNESS FOR A PARTICULAR PURPOSE.  See the
   GNU Lesser General Public License for more details.
   
   Cite this work as:
   * C. Bannwarth, E. Caldeweyher, S. Ehlert, A. Hansen, P. Pracht,
     J. Seibert, S. Spicher, S. Grimme, WIREs Comput. Mol. Sci., 2020, 11,
     e01493. DOI: 10.1002/wcms.1493
   
   for GFN2-xTB:
   * C. Bannwarth, S. Ehlert and S. Grimme., J. Chem. Theory Comput., 2019,
     15, 1652-1671. DOI: 10.1021/acs.jctc.8b01176
   for GFN1-xTB:
   * S. Grimme, C. Bannwarth, P. Shushkov, J. Chem. Theory Comput., 2017,
     13, 1989-2009. DOI: 10.1021/acs.jctc.7b00118
   for GFN0-xTB:
   * P. Pracht, E. Caldeweyher, S. Ehlert, S. Grimme, ChemRxiv, 2019, preprint.
     DOI: 10.26434/chemrxiv.8326202.v1
   for GFN-FF:
   * S. Spicher and S. Grimme, Angew. Chem. Int. Ed., 2020, 59, 15665-15673.
     DOI: 10.1002/anie.202004239
   
   for ALPB and GBSA implicit solvation:
   * S. Ehlert, M. Stahn, S. Spicher, S. Grimme, J. Chem. Theory Comput.,
     2021, 17, 4250-4261. DOI: 10.1021/acs.jctc.1c00471
   
   for DFT-D4:
   * E. Caldeweyher, C. Bannwarth and S. Grimme, J. Chem. Phys., 2017,
     147, 034112. DOI: 10.1063/1.4993215
   * E. Caldeweyher, S. Ehlert, A. Hansen, H. Neugebauer, S. Spicher,
     C. Bannwarth and S. Grimme, J. Chem. Phys., 2019, 150, 154122.
     DOI: 10.1063/1.5090222
   * E. Caldeweyher, J.-M. Mewes, S. Ehlert and S. Grimme, Phys. Chem. Chem. Phys.
     2020, 22, 8499-8512. DOI: 10.1039/D0CP00502A
   
   for sTDA-xTB:
   * S. Grimme and C. Bannwarth, J. Chem. Phys., 2016, 145, 054103.
     DOI: 10.1063/1.4959605
   
   in the mass-spec context:
   * V. Asgeirsson, C. Bauer and S. Grimme, Chem. Sci., 2017, 8, 4879.
     DOI: 10.1039/c7sc00601b
   * J. Koopman and S. Grimme, ACS Omega 2019, 4, 12, 15120-15133.
     DOI: 10.1021/acsomega.9b02011
   
   for metadynamics refer to:
   * S. Grimme, J. Chem. Theory Comput., 2019, 155, 2847-2862
     DOI: 10.1021/acs.jctc.9b00143
   
   for SPH calculations refer to:
   * S. Spicher and S. Grimme, J. Chem. Theory Comput., 2021, 17, 1701-1714
     DOI: 10.1021/acs.jctc.0c01306
   
   with help from (in alphabetical order)
   P. Atkinson, C. Bannwarth, F. Bohle, G. Brandenburg, E. Caldeweyher
   M. Checinski, S. Dohm, S. Ehlert, S. Ehrlich, I. Gerasimov, C. Hölzer
   A. Katbashev, J. Koopman, C. Lavigne, S. Lehtola, F. März, M. Müller,
   F. Musil, H. Neugebauer, J. Pisarek, C. Plett, P. Pracht, F. Pultar,
   J. Seibert, P. Shushkov, S. Spicher, M. Stahn, M. Steiner, T. Strunk,
   J. Stückrath, T. Rose, and J. Unsleber
   
 * started run on 2025/03/14 at 12:52:27.150     

           -------------------------------------------------
          |                Calculation Setup                |
           -------------------------------------------------

          program call               : xtb scoord.19 --md --gfnff --input md_settings.inp
          coordinate file            : scoord.19
          omp threads                :                     8

   ID    Z sym.   atoms
    1    6 C      1-9, 11, 12, 14-21, 24, 25, 34, 35, 38, 41-43, 59-67, 69,
                  70, 72-79, 82, 83, 92, 93, 96, 99-101
    2    7 N      10, 13, 68, 71
    3    8 O      22, 23, 32, 33, 36, 37, 39, 40, 80, 81, 90, 91, 94, 95, 97,
                  98
    4    1 H      26-31, 44-58, 84-89, 102-116

molecular fragmentation (1/2 indicates fragments):
111111111111111111111111111111111111111111111111111111111122222222222222
22222222222222222222222222222222222222222222
# atoms in fragment 1/2:    58    58
 fragment masses (1/2) :      501.47      501.47
CMA distance (Bohr)    :   9.148
constraining FC (au)   :  0.0500
          GFN-FF topology read from file successfully!
           ------------------------------------------------- 
          |                   G F N - F F                   |
          |          A general generic force-field          |
          |                  Version 1.0.3                  | 
           ------------------------------------------------- 
          Number of HB bonds (bound hydrogen)     17159
          Number of HB bonds (unbound hydrogen)   509
          Number of XB bonds                      0

 E+G (total)                   0 d,  0 h,  0 min,  0.002 sec
 distance/D3 list               ...        0 min,  0.000 sec (  0.976%)
 non bonded repulsion           ...        0 min,  0.000 sec (  3.916%)
 dCN                            ...        0 min,  0.000 sec (  6.701%)
 EEQ energy and q               ...        0 min,  0.000 sec ( 12.281%)
 D3                             ...        0 min,  0.000 sec ( 17.029%)
 EEQ gradient                   ...        0 min,  0.000 sec (  1.819%)
 bonds                          ...        0 min,  0.000 sec (  5.114%)
 bend and torsion               ...        0 min,  0.000 sec (  3.450%)
 bonded ATM                     ...        0 min,  0.000 sec (  1.720%)
 HB/XB (incl list setup)        ...        0 min,  0.001 sec ( 46.761%)

         :::::::::::::::::::::::::::::::::::::::::::::::::::::
         ::                     SUMMARY                     ::
         :::::::::::::::::::::::::::::::::::::::::::::::::::::
         :: total energy             -22.861510044714 Eh    ::
         :: gradient norm              0.402333423506 Eh/a0 ::
         ::.................................................::
         :: bond energy              -23.533770340710 Eh    ::
         :: angle energy               0.130452598049 Eh    ::
         :: torsion energy             0.073484830254 Eh    ::
         :: repulsion energy           1.592318907605 Eh    ::
         :: electrostat energy        -0.949231081182 Eh    ::
         :: dispersion energy         -0.142939562573 Eh    ::
         :: HB energy                 -0.005206305537 Eh    ::
         :: XB energy                  0.000000000000 Eh    ::
         :: bonded atm energy         -0.026619090620 Eh    ::
         :: external energy            0.000000000000 Eh    ::
         :: add. restraining           0.000000000000 Eh    ::
         :: total charge              -0.000000000000 e     ::
         :::::::::::::::::::::::::::::::::::::::::::::::::::::

           -------------------------------------------------
          |                Property Printout                |
           -------------------------------------------------

           -------------------------------------------------
          | TOTAL ENERGY              -22.861510044714 Eh   |
          | GRADIENT NORM               0.402333423506 Eh/α |
           -------------------------------------------------
           ------------------------------------------------- 
          |               Molecular Dynamics                |
           ------------------------------------------------- 
 trajectories on xtb.trj or xtb.trj.<n>

 MD time /ps        :   20.00
 dt /fs             :    2.00
 SCC accuracy       :    2.00
 temperature /K     :  436.00
 max steps          : 10000
 block length (av.) :  2500
 dumpstep(trj) /fs  :  500.00   250
 dumpstep(coords)/fs: 1000.00   500
 H atoms mass (amu) :     4
 # deg. of freedom  :   348
 SHAKE off
 Berendsen THERMOSTAT on
         time (ps)    <Epot>      Ekin   <T>   T     Etot
      0    0.00      0.00000   0.5012    0.    0.   -22.36031
est. speed in wall clock h for 100 ps :  0.03
    200    0.40    -22.63749   0.3389  640.  615.   -22.43887
    400    0.80    -22.71311   0.3073  608.  558.   -22.49186
    600    1.20    -22.74374   0.3028  577.  550.   -22.52093
    800    1.60    -22.76161   0.2565  554.  465.   -22.57207
   1000    2.00    -22.77500   0.2760  538.  501.   -22.57830
   1200    2.40    -22.78529   0.2484  525.  451.   -22.59046
   1400    2.80    -22.79317   0.2562  515.  465.   -22.59955
   1600    3.20    -22.80069   0.2511  508.  456.   -22.60267
   1800    3.60    -22.80602   0.2524  501.  458.   -22.59926
   2000    4.00    -22.81063   0.2358  495.  428.   -22.61231
   2200    4.40    -22.81420   0.2538  489.  461.   -22.61150
   2400    4.80    -22.81711   0.2324  485.  422.   -22.61048
block <Epot> / <T> :     -22.82765  483.     drift:  0.99D+02   Tbath : 436.
   2600    5.20    -22.82002   0.2307  482.  419.   -22.61983
   2800    5.60    -22.82249   0.2618  479.  475.   -22.61288
   3000    6.00    -22.82443   0.2465  475.  447.   -22.61572
   3200    6.40    -22.82615   0.2345  473.  426.   -22.60545
   3400    6.80    -22.82750   0.2373  471.  431.   -22.60478
   3600    7.20    -22.82890   0.2678  469.  486.   -22.61068
   3800    7.60    -22.83044   0.2160  467.  392.   -22.61269
   4000    8.00    -22.83154   0.2651  466.  481.   -22.59492
   4200    8.40    -22.83299   0.2319  465.  421.   -22.61625
   4400    8.80    -22.83413   0.2397  463.  435.   -22.59910
   4600    9.20    -22.83495   0.2488  462.  452.   -22.60312
   4800    9.60    -22.83556   0.2579  461.  468.   -22.61659
   5000   10.00    -22.83634   0.2207  460.  401.   -22.61908
block <Epot> / <T> :     -22.85416  437.     drift:  0.99D+02   Tbath : 436.
   5200   10.40    -22.83682   0.2381  459.  432.   -22.61043
   5400   10.80    -22.83731   0.2440  458.  443.   -22.60969
   5600   11.20    -22.83778   0.2577  457.  468.   -22.60510
   5800   11.60    -22.83810   0.2344  456.  425.   -22.61171
   6000   12.00    -22.83843   0.2538  455.  461.   -22.58677
   6200   12.40    -22.83861   0.2439  455.  443.   -22.60722
   6400   12.80    -22.83872   0.2449  454.  444.   -22.59182
   6600   13.20    -22.83896   0.2412  453.  438.   -22.60436
   6800   13.60    -22.83916   0.2328  453.  422.   -22.61594
   7000   14.00    -22.83935   0.2210  452.  401.   -22.61124
   7200   14.40    -22.83954   0.2459  452.  446.   -22.59483
   7400   14.80    -22.83978   0.2319  452.  421.   -22.59719
block <Epot> / <T> :     -22.84694  435.     drift:  0.99D+02   Tbath : 436.
   7600   15.20    -22.84007   0.2887  451.  524.   -22.58309
   7800   15.60    -22.84024   0.2312  451.  420.   -22.61657
   8000   16.00    -22.84053   0.2319  451.  421.   -22.62365
   8200   16.40    -22.84060   0.2302  450.  418.   -22.61428
   8400   16.80    -22.84090   0.2466  450.  448.   -22.60221
   8600   17.20    -22.84133   0.2340  450.  425.   -22.60528
   8800   17.60    -22.84169   0.2370  450.  430.   -22.62121
   9000   18.00    -22.84215   0.2209  450.  401.   -22.62996
   9200   18.40    -22.84257   0.2466  449.  448.   -22.61345
   9400   18.80    -22.84290   0.2443  449.  443.   -22.63712
   9600   19.20    -22.84326   0.2409  449.  437.   -22.63693
   9800   19.60    -22.84348   0.2355  448.  427.   -22.62501
 average properties 
 Epot               :  -22.843680077226892     
 Epot (accurate SCC):  -22.845937396340538     
 Ekin               :  0.24682717700370849     
 Etot               :  -22.596852900223187     
 T                  :   447.94213451508801     
 thermostating problem
 normal exit of md()

------------------------------------------------------------------------
 * finished run on 2025/03/14 at 12:52:43.161     
------------------------------------------------------------------------
 total:
 * wall-time:     0 d,  0 h,  0 min, 16.010 sec
 *  cpu-time:     0 d,  0 h,  0 min, 31.164 sec
 * ratio c/w:     1.947 speedup
 SCF:
 * wall-time:     0 d,  0 h,  0 min,  0.003 sec
 *  cpu-time:     0 d,  0 h,  0 min,  0.005 sec
Note: The following floating-point exceptions are signalling: IEEE_UNDERFLOW_FLAG
normal termination of xtb
 * ratio c/w:     1.659 speedup
 MD:
 * wall-time:     0 d,  0 h,  0 min, 16.001 sec
 *  cpu-time:     0 d,  0 h,  0 min, 31.155 sec
 * ratio c/w:     1.947 speedup

