116
 energy: -22.928061455056 gnorm: 0.329736929581 xtb: 6.6.1 (8d0f1dd)
C           -3.31122850772930        0.79849766164622       -0.92477639677520
C           -2.44380812530352       -0.12270372891954       -0.27661132624697
C           -1.41337090092821        0.39579727573559        0.56335275196199
C           -0.89266158675590        1.65801491088749        0.27377586709581
C           -1.72665675402493        2.51431363229076       -0.49448366572522
C           -2.95444148494349        2.13954154133227       -1.01494489940871
C           -0.74098268209890       -0.43411532818871        1.49825021926784
C            0.56872586496315        0.03782116815119        1.86248088067890
C            1.03782416582094        1.29402317993033        1.50887470833621
N            0.31238977034758        2.07067427098208        0.65193736800696
C           -1.29695700510141       -1.39996043042223        2.41574187746061
C           -0.38243517664656       -2.18060797534842        3.13232615520648
N            0.91308504082021       -1.90366887689689        3.30325166013478
C            1.37712470144904       -0.74872102533751        2.81811050966982
C            2.52149331701875       -0.17739833758153        3.39379298866852
C            2.95849061756259        1.02681208890480        2.95105897606587
C            2.24288949469137        1.78498308775960        2.03503020483770
C           -2.74860936222260       -1.74497937691422        2.38401158947411
C           -3.09416315450955       -2.91614440870436        3.00571134491758
C           -2.16786021984049       -3.77788778654213        3.63251872101904
C           -0.85708937311598       -3.40495313382985        3.68547234358092
O           -3.71994433332149       -0.94984598373544        1.67726658385724
O           -2.55702603277562       -1.47241711578389       -0.57241635275616
C           -3.84297843593025        3.13357444054366       -1.60938954875544
C           -2.68769581069131       -5.03867041417370        4.30484659386931
H           -1.39666850744143        3.51251503834900       -0.76806311868865
H           -4.27662633836220        0.55105838579656       -1.33106614114542
H            2.66329581305412        2.73912661909249        1.72562431984580
H            3.05775395548473       -0.69369546277216        4.16536137542516
H           -0.24710966264510       -4.12034095424229        4.22946223699121
H           -4.11477991332403       -3.04712728052358        3.03244694615357
O           -4.21824883374556        4.03433712717988       -0.87713382485991
O           -4.44510595673734        2.90643496899600       -2.81853501752979
C           -5.44216520282800        3.83300025693726       -3.02488532025093
C            4.23586651889298        1.50004220933226        3.59165660008449
O            5.05927614697201        0.66079890002952        3.91714215179376
O            4.47001334453535        2.86385149488593        3.72605651435371
C            5.79457498613219        3.08584475587818        4.15829123132174
O           -3.82227255313510       -5.27347675879771        4.16636005494405
O           -1.85023202017753       -5.79767454267276        5.06656077253571
C           -2.55119635829503       -6.86252441382958        5.62930343183426
C           -5.07197156564436       -1.42399175670916        1.58830531863830
C           -1.33089900128490       -2.23622472573986       -0.99264499351172
H           -2.54510546830388       -7.76426885143998        4.99136022291012
H           -3.57194749219491       -6.44405511486021        5.74196173723541
H           -2.09133598235598       -7.02043774843818        6.64022264233588
H            5.72707967266424        3.46798026205549        5.10135971236643
H            6.34060091246885        3.78468702308830        3.50069950143490
H            6.17933064298187        2.03010500085905        4.19342358084693
H           -0.91862729772622       -2.57650129080332       -0.01361370304871
H           -0.49769766914251       -1.60651221708571       -1.34094446550576
H           -1.52632419730509       -2.94569707152159       -1.75361447637286
H           -5.11788846557077       -2.41810833635233        1.17520213188926
H           -5.67929807973498       -0.69619639428435        1.04301666067831
H           -5.57598832326623       -1.42383358739762        2.57928294206544
H           -6.13050215934830        3.76035386975488       -2.23272855695873
H           -5.86615610071888        3.45938329385866       -4.02668959924245
H           -5.13479557532099        4.87790991548477       -2.98314551356402
C           -1.38192942069774        3.73616555005018        2.91232598411686
C           -1.84821468128685        2.59982427735607        3.49755545445181
C           -1.05946531454833        2.05730632010638        4.60922730982276
C            0.19893954712228        2.69376791964407        4.86302140881997
C            0.50425395911860        3.94630308659851        4.28768785650746
C           -0.26031777722226        4.46998310053134        3.25072669343212
C           -1.20488993561782        0.74454293276906        5.14851520323437
C           -0.06287609782692        0.02744069315890        5.60930570802864
C            1.19208754369866        0.71421540266195        5.78882868583885
N            1.19428660993148        2.06344359410476        5.62744624321596
C           -2.41361422770794        0.07928500213936        5.25249410304426
C           -2.45851584031083       -1.32662100968547        5.60237876023992
N           -1.29466212405906       -1.98318595734370        5.89916817085159
C           -0.14475655767527       -1.32117560077092        5.98824682881008
C            0.97209270935794       -1.98958449505532        6.53157704134458
C            2.21982707914082       -1.36973967291181        6.68703967237737
C            2.30561929262884       -0.09745313075593        6.26436900324455
C           -3.73018485967715        0.71367583494582        5.25810242262992
C           -4.89964478833448       -0.06184623426677        5.21204641615509
C           -4.82617965800088       -1.39228978090841        5.46901303780036
C           -3.67144193418464       -1.98914944386360        5.67265433266067
O           -3.75568638935321        2.07705011038914        5.52067969627343
O           -2.94192434743730        1.91263938797883        3.01658762327703
C            0.21273512614467        5.50086066357994        2.34765104514621
C           -6.06660304520411       -2.17604633098929        5.80641622556876
H            1.41756699010566        4.38133362238595        4.66974005703471
H           -1.82880610647429        4.11982501512100        2.06992133318584
H            3.26888037378556        0.32655662585251        6.31721410015598
H            0.87146188387207       -3.08471526305024        6.57830423410869
H           -3.67716811065157       -3.05999292755990        5.83019634570050
H           -5.77379677507622        0.43595144608221        4.71017130754348
O            1.34459852619901        5.82615848916894        2.44941456579099
O           -0.74718748219123        6.07961784856304        1.59848183464284
C           -0.21473095568964        7.24015934882472        1.05753806029483
C            3.53228080814219       -2.00967610361154        7.02506769044485
O            3.64093082622715       -3.14437803815732        7.50071391725347
O            4.56565258381079       -1.22937033368332        6.69086985080897
C            5.72579357310716       -1.80692399125161        7.22246151275881
O           -7.04801223588612       -1.95726935745904        5.14194115322235
O           -6.01514389321278       -2.93743591896022        6.94765316328794
C           -7.21292732384718       -3.62681918543340        7.15115816329978
C           -4.95459780685163        2.65960679932188        5.86868674392943
C           -3.68284113682406        2.59129188358641        2.05479246020704
H           -7.43119628931628       -4.22607794725959        6.20622607140901
H           -8.06548455146707       -2.91765848248592        7.29781126410398
H           -7.07314693247270       -4.33087306029711        7.91223421050944
H            6.57332189837178       -1.29353136199234        6.78341268688262
H            5.74663761932316       -2.84282155125561        6.88089468184451
H            5.69426191474290       -1.72781984964892        8.29460302186842
H           -4.10481209541493        3.44288266176275        2.60483747673152
H           -4.49244774344916        1.87419893016926        1.82433103764650
H           -3.18901540870812        2.85154642679373        1.06781919454921
H           -5.55414326821421        2.76698137191684        4.93950725322359
H           -4.78658370641210        3.62090640967288        6.25983200635257
H           -5.43485580473958        1.97242995129449        6.65265772412460
H            0.89164886030839        7.38838561720231        1.13776105146914
H           -0.62894889903848        8.04195665205089        1.64837664327952
H           -0.59282546386754        7.45699159724320        0.03719083132488
116
 energy: -22.673097295975 gnorm: 0.499519761109 xtb: 6.6.1 (8d0f1dd)
C           -3.11668011805494        0.70922864528918       -1.24265888645545
C           -2.35360936199907       -0.32613779737203       -0.38806251392661
C           -1.48168089586571        0.21823015049678        0.65737351012662
C           -1.04023327377646        1.60663354563117        0.53859694897296
C           -1.58451944189132        2.43270900139176       -0.41046193498259
C           -2.77637862563133        2.05347410534180       -1.09216998812291
C           -0.70915692617165       -0.71117966493205        1.50114730352285
C            0.52171401944821       -0.25307836637825        1.97535703537283
C            0.89494955000791        1.01583663338772        1.77086380545112
N            0.15939059611279        1.92629306706758        1.13287937659700
C           -1.35032393401925       -1.83043370314152        2.20787599156837
C           -0.41128081116693       -2.71194059137806        2.79611370210497
N            0.78366165265421       -2.21203289469462        3.28525036458270
C            1.23436861814207       -1.01719065492454        2.89925998630022
C            2.46702691823185       -0.53305115607197        3.38200041219639
C            2.84195991320255        0.76292801083916        3.13584435386786
C            2.00606644222985        1.53934317013906        2.46370523692073
C           -2.76323850060686       -2.01127022307599        2.30740406869652
C           -3.08082125730839       -3.24701566381054        2.81986257847577
C           -2.14160546691979       -4.27951766403971        3.13854073185077
C           -0.81255496146209       -3.95068632422873        3.25401867290524
O           -3.64277067351550       -1.03032283481296        1.70761445294968
O           -2.29685262597676       -1.69554391515700       -0.71006503764265
C           -3.73934760443815        3.14675253456701       -1.47262325578791
C           -2.70191697401089       -5.52259809037746        3.78598759349325
H           -1.35625978456017        3.47919157341503       -0.58214142904190
H           -4.11796725161936        0.50727412683972       -1.67765686231675
H            2.07070422140284        2.64242079395561        2.82049564002152
H            3.02502409053292       -1.33189990022306        3.88735851432035
H           -0.07645951165966       -4.66461846177207        3.52705637091870
H           -4.19950217599012       -3.61259626224097        2.87791054076497
O           -3.38421067050157        4.06395176410585       -2.19373810685717
O           -5.02685567962066        2.98578114608418       -0.90260708165147
C           -6.01144711341017        3.61745088338798       -1.65393682283586
C            4.07400473463817        1.30536350827306        3.64315610341199
O            4.68457969215639        0.74418735526735        4.55648945687968
O            4.68332892152207        2.28092937010015        2.81180838248488
C            6.02407073585089        2.31634830235629        3.00566902131380
O           -3.80419575637367       -6.03913456662765        3.53969776033511
O           -1.89255858364950       -6.22375608282466        4.65074887687873
C           -2.57404388014607       -7.01453565386681        5.51815198521982
C           -4.97445176495339       -1.55467194337598        1.54549590567105
C           -1.51802560476566       -2.10290519906301       -1.81358281673040
H           -3.23545700606252       -7.72957382142326        4.97957605456048
H           -3.27814355275259       -6.57102914487056        6.24523276159949
H           -1.89944181848695       -7.71473874245781        6.10085076274138
H            6.01527787859143        3.32573678540317        3.40150394555143
H            6.52498710014642        2.32994595309589        1.87879202040438
H            6.51269701742522        1.54650806012097        3.58592220482633
H           -1.48098556402736       -3.15233005647367       -1.60146403763229
H           -0.57033268132705       -1.54790310370833       -1.61118444994995
H           -1.62714919777116       -1.63454343038381       -2.73746944096507
H           -5.61108992171123       -0.69592148852008        1.15716326918210
H           -5.29342890122323       -2.19972903487238        2.29925893499640
H           -4.77647252037642       -2.04400068360225        0.60308015937941
H           -5.49307063977141        4.62348222225477       -2.02825476225339
H           -6.97878387460895        3.36786148947524       -1.18225092764729
H           -6.05291510642314        3.04428574418940       -2.71789371519661
C           -1.68348282706389        4.16245528732048        3.43199192422598
C           -2.00304486817938        2.97694352274610        4.09819011472561
C           -1.04302563849968        2.47889481784903        4.98078653631402
C            0.26626782800485        2.99944129441728        5.04330495902062
C            0.53806681134210        4.15239091185544        4.19755436332207
C           -0.48376574355817        4.69773478295679        3.45805434606440
C           -1.21753446441026        1.16567206806661        5.47369339397005
C           -0.06929935831449        0.51535922657469        6.01414104314509
C            1.19575148642725        1.11575985490239        5.96312993396405
N            1.44757441336539        2.36049697353425        5.58744294555547
C           -2.47380000207043        0.39558676830992        5.67988934011070
C           -2.35856159997418       -1.00982555411908        5.97416212946997
N           -1.23057933368831       -1.57798441816546        6.28779683915846
C           -0.08004219137246       -0.83809905006888        6.50514257056384
C            1.13812244395355       -1.45807240238957        6.96103724354227
C            2.29883555493889       -0.85467052330883        7.01208775488503
C            2.32527399409060        0.37791560956233        6.36553086231549
C           -3.72664185889245        1.10897943081053        5.93389492291159
C           -4.85415282275602        0.22553135295629        5.90567892544212
C           -4.81334653543445       -1.13891940481555        5.64061788879464
C           -3.55440646520112       -1.75393312018191        5.74954357998243
O           -3.59080089987088        2.49749265437687        6.40539455937662
O           -3.27280264832341        2.51695602625282        3.70005065578739
C            0.00579240815489        5.62583151908740        2.43605034380233
C           -6.10404177027854       -1.69654257234632        5.02101325802604
H            1.54405541218743        4.65538822849877        4.14850651844479
H           -2.37289588207032        4.50724789808294        2.73959366100099
H            3.18718466995267        0.48665724239348        5.79589640896885
H            1.32017297409162       -2.47694892814597        7.28117947849560
H           -3.39426048646760       -2.78165774404837        5.34970933979594
H           -5.90662424770600        0.67142868436349        6.08105228703601
O            0.97667082686179        6.33124032499654        2.71987146224477
O           -0.71108306656414        5.44243876752647        1.26816042475067
C           -0.44091335661972        6.54249630253638        0.54780326809587
C            3.52905139532359       -1.55213380881598        7.46351443692192
O            3.52782043858061       -2.71030663366792        7.92340279191327
O            4.61682505109718       -0.71084190289232        7.30186597623760
C            5.75373740439740       -1.36628106430617        7.79922175382748
O           -7.21056423112798       -1.26683019980044        5.27675347603350
O           -5.79268970183724       -2.90940866015731        4.34032433962437
C           -7.09968427717645       -3.48088287746109        4.12378957982388
C           -4.58255390762269        3.39173108731611        6.85231033962921
C           -3.32462181638795        1.61334766928840        2.51993680371029
H           -7.83521981002836       -2.77242389327380        3.90712662762469
H           -7.37626374930852       -4.01556912013025        5.05719129613053
H           -7.16673070612509       -4.24589415782455        3.46114780258805
H            5.30499226778045       -2.41710446384998        8.18005742215837
H            6.42607939799677       -0.60828727775953        8.33090411118464
H            6.43485016819891       -1.88068809868814        7.14763029665999
H           -2.40814507949182        1.95988645629977        1.84806760820370
H           -4.25124712010992        1.95258837994349        2.01828791911242
H           -3.25816265789813        0.51131220878597        2.84203811950226
H           -5.45361390421836        3.13514107758744        6.20099464750080
H           -4.17722236123164        4.41540219322500        6.81339304125750
H           -4.84509934367595        2.92812241141567        7.73970466788947
H           -0.93354692476641        6.40514792579511       -0.58245220292573
H            0.58068449051556        6.50309919794193        0.37495856952912
H           -0.82754886164232        7.57442673266056        1.03277294136547
116
 energy: -22.702983620139 gnorm: 0.493253250141 xtb: 6.6.1 (8d0f1dd)
C           -2.70318171405681        0.77965359664257       -0.84430330324273
C           -2.10805429995327       -0.16131561866906       -0.02068483809865
C           -1.06606784922698        0.31950941187007        0.81418259711748
C           -0.72031691128902        1.69035952223726        0.77068108188908
C           -1.32164417805067        2.55975336775592       -0.19848711825590
C           -2.35308911334435        2.17692157107598       -0.98685199560000
C           -0.35674897765190       -0.46310528408881        1.65568323775128
C            1.04436734837464       -0.14792218785731        1.85635558395885
C            1.45610854293442        1.19708629671962        1.57158021346068
N            0.55614058159601        2.11380740496496        1.18626761180578
C           -0.89621814316557       -1.64744805217435        2.28716995934222
C            0.02142836447223       -2.69898666090476        2.29304542499799
N            1.36230258946660       -2.50472523283211        2.38115937709271
C            1.91150477434291       -1.19496745488810        2.24438113522193
C            3.23262569424223       -0.80560366766434        2.68319451605596
C            3.64731211859694        0.55180326271341        2.58213449446864
C            2.70405781924539        1.46189608197388        2.11656288969307
C           -2.30789488746499       -1.86097339695704        2.48732807267899
C           -2.75295964083181       -3.04628438754766        3.02190068787598
C           -1.87760764432160       -4.07866814186510        3.06062697720792
C           -0.52880646107149       -3.87451439450464        2.72539455266199
O           -3.30608217187413       -0.87122293026334        2.26732582182206
O           -2.44514825472073       -1.50087772225921        0.09094708646005
C           -3.08103278714897        3.13592812527895       -1.82622029151584
C           -2.42645475802372       -5.41117319407807        3.63072088198943
H           -1.08113596827986        3.59511129916585       -0.05034567490761
H           -3.15092827981178        0.24843849075003       -1.72671831000803
H            3.02661433181766        2.51874261286677        2.23365765677325
H            4.01797168150314       -1.40728875691172        3.02609898053119
H            0.28438071243462       -4.52159777476084        3.12969613882312
H           -3.79865341195046       -3.39245651288884        2.84658047639938
O           -3.08337029908507        4.28637523710405       -1.34170463871520
O           -3.81237923678769        2.76602086733908       -2.92665309242077
C           -4.95619036728908        3.47394643020680       -3.11612826499981
C            4.95612248524587        0.94246432635105        2.99037661686739
O            5.87505636151783        0.26341642336550        3.34877100712303
O            5.12690858140460        2.29929272261835        2.89493849533090
C            6.31132944742848        2.73127714430863        3.44118336582153
O           -3.59667038350946       -5.57937368751846        3.72175145458305
O           -1.45710228215001       -6.35500895884228        4.07411120960228
C           -1.82001559969910       -7.21387955773802        5.14571475989419
C           -4.56329980264399       -1.25488348639553        2.52803140110856
C           -3.51527028770618       -2.06825177009604       -0.73190045081675
H           -2.69205333409881       -7.80005959600597        4.93188662928848
H           -1.89241233094367       -6.77079709507073        6.18276017984667
H           -0.99693809789909       -7.98157701107917        5.12909410958570
H            6.48957240059794        2.58407568640330        4.55209001887689
H            6.44402296099878        3.70877916688489        3.46737882769879
H            7.16089236348499        2.20693265532589        2.95732697531486
H           -3.47325352083397       -3.18074666365292       -0.63163422969046
H           -3.43879907061857       -1.65819737994154       -1.76263871025765
H           -4.47059815842082       -1.73004432534540       -0.28688109190427
H           -5.24286477790213       -0.73771503026606        1.78391888729441
H           -4.61649170707614       -1.41319667397135        3.57237143084784
H           -4.75843936438578       -2.22290258542495        2.14974488103714
H           -5.73611283531416        3.49024159171860       -2.23743772764883
H           -5.58767043682197        3.29835053859747       -4.02112460197043
H           -4.61521185342889        4.65754853943304       -3.05253760926169
C           -1.75631414361164        4.08918592822119        3.06155687648337
C           -2.20252729628184        2.80271236344789        3.59580717504197
C           -1.37459030387200        2.28561500058157        4.66839435866931
C           -0.07898478408805        2.84237751201288        4.98598988841662
C            0.32497566210448        4.01969704126891        4.31574464298214
C           -0.47146070080676        4.60957207428844        3.34668525840960
C           -1.56315882029754        0.86505057513763        5.19438050817532
C           -0.47498662415836        0.07119189487952        5.40202220027248
C            0.81908072363995        0.74513506781889        5.44606341576634
N            1.04584481576055        2.11256276787605        5.24607456760694
C           -2.85078252542197        0.26967685097488        5.42800699562793
C           -2.86665638658169       -1.15836406787839        5.85161064172104
N           -1.77225126374971       -1.77745190365919        6.30011613863798
C           -0.56490696408716       -1.22673988046185        5.97066228924430
C            0.51855006399119       -1.84967930059342        6.62941011681085
C            1.79679813461524       -1.30571782754575        6.54580605767098
C            1.86937477594425       -0.08942308576808        5.83046796961954
C           -4.01371547511565        0.98304368239443        5.90232675438710
C           -5.18909126815718        0.24768725663759        5.95453621133218
C           -5.20461502696055       -1.18055848658930        5.91558984689776
C           -4.08124653721761       -1.85348793432544        6.05622684650400
O           -3.78673002608973        2.35962436924879        6.06955297924764
O           -3.46827995182139        2.35637264698159        3.32995206497177
C           -0.03988505549708        5.89870103190335        2.65115996343758
C           -6.51618054936006       -1.87144700613239        5.90300285247685
H            1.33752307602687        4.52273979034947        4.50698775063039
H           -2.41172853203371        4.83033278950521        2.48541974555677
H            2.91628199449085        0.27555889049855        5.52652267512455
H            0.06081596875128       -2.71181678054208        7.20709231264405
H           -4.07064739236088       -2.89279434558256        6.30702170515465
H           -6.20137612946498        0.74001321584426        6.11904301643154
O            1.09595619675667        6.21211360129207        2.47760693710094
O           -1.21362142665378        6.57834609670368        2.18253661654171
C           -0.91691963933493        7.50811558338783        1.06195015134518
C            2.88240665941662       -1.66453324541999        7.41923549424895
O            2.94146109213107       -2.61263354371543        8.11989878282117
O            3.84871424197391       -0.68501599707173        7.39284276877515
C            4.96444035206996       -1.18906637316137        8.02812693545951
O           -7.48028882156743       -1.17318839980213        6.10775512867313
O           -6.36624594405843       -3.18363123650303        5.55904316654808
C           -7.66112131983156       -3.69386818291747        5.67894809090914
C           -4.80821608484207        2.85498788223427        6.97400158234062
C           -3.61777272502773        1.94880008366131        2.01689774999479
H           -8.15529664982147       -3.17623802837218        6.53658753505418
H           -7.86276070202038       -4.74573705333558        6.01986765336241
H           -8.30324172069817       -3.28722025887557        4.77443203237431
H            4.80663071319941       -1.20209467907103        9.11202401982275
H            5.80730142336868       -0.60190839449179        7.91303628784387
H            5.13312673820354       -2.12421828658786        7.50913334488929
H           -4.33299280462161        1.09922101745234        1.82077444077778
H           -2.68425893213148        1.50241133587798        1.87899974192378
H           -3.74143672661565        2.72657591849946        1.22349300327189
H           -4.50809880503685        2.90763737403552        8.06136277591797
H           -5.80205412172725        2.18292557648751        7.11830185127486
H           -4.90653136451189        3.78836483143786        6.76052791074724
H           -1.92717326931490        7.73400376329753        0.44260463649618
H           -0.03465822344131        7.35360244472385        0.37872626564743
H           -0.82100646313220        8.47798536916098        1.57334051748375
116
 energy: -22.684014417941 gnorm: 0.507471040582 xtb: 6.6.1 (8d0f1dd)
C           -2.41651977012480        0.93571742782907       -0.94163020393345
C           -1.73075827863662        0.04827506058502       -0.11321399381466
C           -0.67959461801257        0.43563469893277        0.77346850129611
C           -0.11381074370359        1.69826707254220        0.57959007494331
C           -0.63607321638947        2.45860278856235       -0.49897409717832
C           -1.92091139228742        2.16975167343740       -1.07574532977102
C            0.05146151233844       -0.49443439695200        1.62470555911435
C            1.31959022779374       -0.18900809248291        2.09454159573071
C            1.67490053758582        1.22450038663459        2.02143048250993
N            0.85701007582190        2.09530912776264        1.43508114364036
C           -0.39410007739744       -1.70811976835098        2.13864041155223
C            0.43377556904934       -2.70617699470305        2.66940756604305
N            1.77220655115002       -2.49057301155143        2.76039595951211
C            2.25570086645561       -1.13830996233572        2.57518366040215
C            3.46161424999081       -0.63678478350386        3.07954588082278
C            3.76469888892623        0.67512351617032        2.85659861455415
C            2.84453860316594        1.65135191296406        2.57054148504966
C           -1.78699826336732       -2.02375687634133        2.27698542172077
C           -2.20979930559320       -3.32411937381691        2.40445239342954
C           -1.34383603685769       -4.29436562921607        2.85926109985674
C           -0.06878084426960       -3.95156537589656        2.99491361997131
O           -2.60056591565840       -0.94841267744593        2.28142466633169
O           -2.00942219802837       -1.32268653305374       -0.27930067505940
C           -2.38795629621615        3.14588687892095       -2.12969087368331
C           -1.77990645010881       -5.55955391078249        3.38352011569088
H           -0.42960141142669        3.50976000128737       -0.40425828429681
H           -3.06275537085631        0.52459481534155       -1.68971574848576
H            3.13154786091540        2.71263648644036        2.62996939374878
H            3.98920131466170       -1.18960369736609        3.83229749756874
H            0.57285990032202       -4.73073290845155        3.40343623177031
H           -3.22717025566515       -3.61542685661406        2.46412078501296
O           -1.97731860287950        4.24675047584132       -2.35087823023591