116
 energy: -22.928061455056 gnorm: 0.329736929581 xtb: 6.6.1 (8d0f1dd)
C           -3.31122850772930        0.79849766164622       -0.92477639677520
C           -2.44380812530352       -0.12270372891954       -0.27661132624697
C           -1.41337090092821        0.39579727573559        0.56335275196199
C           -0.89266158675590        1.65801491088749        0.27377586709581
C           -1.72665675402493        2.51431363229076       -0.49448366572522
C           -2.95444148494349        2.13954154133227       -1.01494489940871
C           -0.74098268209890       -0.43411532818871        1.49825021926784
C            0.56872586496315        0.03782116815119        1.86248088067890
C            1.03782416582094        1.29402317993033        1.50887470833621
N            0.31238977034758        2.07067427098208        0.65193736800696
C           -1.29695700510141       -1.39996043042223        2.41574187746061
C           -0.38243517664656       -2.18060797534842        3.13232615520648
N            0.91308504082021       -1.90366887689689        3.30325166013478
C            1.37712470144904       -0.74872102533751        2.81811050966982
C            2.52149331701875       -0.17739833758153        3.39379298866852
C            2.95849061756259        1.02681208890480        2.95105897606587
C            2.24288949469137        1.78498308775960        2.03503020483770
C           -2.74860936222260       -1.74497937691422        2.38401158947411
C           -3.09416315450955       -2.91614440870436        3.00571134491758
C           -2.16786021984049       -3.77788778654213        3.63251872101904
C           -0.85708937311598       -3.40495313382985        3.68547234358092
O           -3.71994433332149       -0.94984598373544        1.67726658385724
O           -2.55702603277562       -1.47241711578389       -0.57241635275616
C           -3.84297843593025        3.13357444054366       -1.60938954875544
C           -2.68769581069131       -5.03867041417370        4.30484659386931
H           -1.39666850744143        3.51251503834900       -0.76806311868865
H           -4.27662633836220        0.55105838579656       -1.33106614114542
H            2.66329581305412        2.73912661909249        1.72562431984580
H            3.05775395548473       -0.69369546277216        4.16536137542516
H           -0.24710966264510       -4.12034095424229        4.22946223699121
H           -4.11477991332403       -3.04712728052358        3.03244694615357
O           -4.21824883374556        4.03433712717988       -0.87713382485991
O           -4.44510595673734        2.90643496899600       -2.81853501752979
C           -5.44216520282800        3.83300025693726       -3.02488532025093
C            4.23586651889298        1.50004220933226        3.59165660008449
O            5.05927614697201        0.66079890002952        3.91714215179376
O            4.47001334453535        2.86385149488593        3.72605651435371
C            5.79457498613219        3.08584475587818        4.15829123132174
O           -3.82227255313510       -5.27347675879771        4.16636005494405
O           -1.85023202017753       -5.79767454267276        5.06656077253571
C           -2.55119635829503       -6.86252441382958        5.62930343183426
C           -5.07197156564436       -1.42399175670916        1.58830531863830
C           -1.33089900128490       -2.23622472573986       -0.99264499351172
H           -2.54510546830388       -7.76426885143998        4.99136022291012
H           -3.57194749219491       -6.44405511486021        5.74196173723541
H           -2.09133598235598       -7.02043774843818        6.64022264233588
H            5.72707967266424        3.46798026205549        5.10135971236643
H            6.34060091246885        3.78468702308830        3.50069950143490
H            6.17933064298187        2.03010500085905        4.19342358084693
H           -0.91862729772622       -2.57650129080332       -0.01361370304871
H           -0.49769766914251       -1.60651221708571       -1.34094446550576
H           -1.52632419730509       -2.94569707152159       -1.75361447637286
H           -5.11788846557077       -2.41810833635233        1.17520213188926
H           -5.67929807973498       -0.69619639428435        1.04301666067831
H           -5.57598832326623       -1.42383358739762        2.57928294206544
H           -6.13050215934830        3.76035386975488       -2.23272855695873
H           -5.86615610071888        3.45938329385866       -4.02668959924245
H           -5.13479557532099        4.87790991548477       -2.98314551356402
C           -1.38192942069774        3.73616555005018        2.91232598411686
C           -1.84821468128685        2.59982427735607        3.49755545445181
C           -1.05946531454833        2.05730632010638        4.60922730982276
C            0.19893954712228        2.69376791964407        4.86302140881997
C            0.50425395911860        3.94630308659851        4.28768785650746
C           -0.26031777722226        4.46998310053134        3.25072669343212
C           -1.20488993561782        0.74454293276906        5.14851520323437
C           -0.06287609782692        0.02744069315890        5.60930570802864
C            1.19208754369866        0.71421540266195        5.78882868583885
N            1.19428660993148        2.06344359410476        5.62744624321596
C           -2.41361422770794        0.07928500213936        5.25249410304426
C           -2.45851584031083       -1.32662100968547        5.60237876023992
N           -1.29466212405906       -1.98318595734370        5.89916817085159
C           -0.14475655767527       -1.32117560077092        5.98824682881008
C            0.97209270935794       -1.98958449505532        6.53157704134458
C            2.21982707914082       -1.36973967291181        6.68703967237737
C            2.30561929262884       -0.09745313075593        6.26436900324455
C           -3.73018485967715        0.71367583494582        5.25810242262992
C           -4.89964478833448       -0.06184623426677        5.21204641615509
C           -4.82617965800088       -1.39228978090841        5.46901303780036
C           -3.67144193418464       -1.98914944386360        5.67265433266067
O           -3.75568638935321        2.07705011038914        5.52067969627343
O           -2.94192434743730        1.91263938797883        3.01658762327703
C            0.21273512614467        5.50086066357994        2.34765104514621
C           -6.06660304520411       -2.17604633098929        5.80641622556876
H            1.41756699010566        4.38133362238595        4.66974005703471
H           -1.82880610647429        4.11982501512100        2.06992133318584
H            3.26888037378556        0.32655662585251        6.31721410015598
H            0.87146188387207       -3.08471526305024        6.57830423410869
H           -3.67716811065157       -3.05999292755990        5.83019634570050
H           -5.77379677507622        0.43595144608221        4.71017130754348
O            1.34459852619901        5.82615848916894        2.44941456579099
O           -0.74718748219123        6.07961784856304        1.59848183464284
C           -0.21473095568964        7.24015934882472        1.05753806029483
C            3.53228080814219       -2.00967610361154        7.02506769044485
O            3.64093082622715       -3.14437803815732        7.50071391725347
O            4.56565258381079       -1.22937033368332        6.69086985080897
C            5.72579357310716       -1.80692399125161        7.22246151275881
O           -7.04801223588612       -1.95726935745904        5.14194115322235
O           -6.01514389321278       -2.93743591896022        6.94765316328794
C           -7.21292732384718       -3.62681918543340        7.15115816329978
C           -4.95459780685163        2.65960679932188        5.86868674392943
C           -3.68284113682406        2.59129188358641        2.05479246020704
H           -7.43119628931628       -4.22607794725959        6.20622607140901
H           -8.06548455146707       -2.91765848248592        7.29781126410398
H           -7.07314693247270       -4.33087306029711        7.91223421050944
H            6.57332189837178       -1.29353136199234        6.78341268688262
H            5.74663761932316       -2.84282155125561        6.88089468184451
H            5.69426191474290       -1.72781984964892        8.29460302186842
H           -4.10481209541493        3.44288266176275        2.60483747673152
H           -4.49244774344916        1.87419893016926        1.82433103764650
H           -3.18901540870812        2.85154642679373        1.06781919454921
H           -5.55414326821421        2.76698137191684        4.93950725322359
H           -4.78658370641210        3.62090640967288        6.25983200635257
H           -5.43485580473958        1.97242995129449        6.65265772412460
H            0.89164886030839        7.38838561720231        1.13776105146914
H           -0.62894889903848        8.04195665205089        1.64837664327952
H           -0.59282546386754        7.45699159724320        0.03719083132488
116
 energy: -22.484961109630 gnorm: 0.600595636796 xtb: 6.6.1 (8d0f1dd)
C           -3.63581093698207        0.95987316482899       -1.38352237745212
C           -2.81744065209491        0.03536976181608       -0.84487526870838
C           -2.02071712609258        0.30689186807441        0.28774842252391
C           -1.61670169999492        1.77269462704560        0.55912512558634
C           -2.10574048456283        2.75185355163318       -0.40317257287762
C           -3.20124620585755        2.25976939002048       -1.17467807515300
C           -1.28295364431369       -0.69297780182509        1.17032847774342
C           -0.01549722989562       -0.33074068603890        1.61602949340440
C            0.32169894411750        1.02004841353891        1.55092608411499
N           -0.40906395916872        2.09054031602656        1.10573198876064
C           -1.80999803533093       -1.97740147809823        1.54015706075307
C           -0.90674016610642       -2.87497148337469        2.06813943753577
N            0.44188110311914       -2.76443957911317        2.04514655208922
C            0.73264974481752       -1.41828921831827        2.15611308995818
C            2.14857984115328       -1.00902986559730        2.64883482727746
C            2.37589230534379        0.42368057324786        2.69749872845179
C            1.71864856354003        1.30826016827389        1.91392487041081
C           -3.20605847504526       -2.28801053321871        1.35304901640861
C           -3.58611720373348       -3.62711227663341        1.85189119495614
C           -2.59390950262919       -4.49173983411101        2.39748763089062
C           -1.32272465776438       -4.09043944851041        2.74919953643963
O           -4.23553184250384       -1.30144185599528        0.94869078362072
O           -3.05358615908404       -1.22745715209618       -1.37745743043967
C           -3.44966701667162        3.20204051407590       -2.26492003307715
C           -3.04519306040500       -5.76646323493791        3.13675248103721
H           -1.44143509187123        3.70431186125601       -0.57437158273664
H           -4.33200901986334        0.82251177849765       -2.05257539467261
H            2.13197671094959        2.24459551643703        1.47777516468679
H            2.79344518514498       -1.73578276906649        3.11852759933374
H           -0.64586779086242       -4.73895314612294        3.00897631293054
H           -4.54087235084509       -4.12049276767273        1.91198405333917
O           -4.51366739841834        3.77266240257064       -2.38115949749911
O           -2.33738992238026        3.31444402594405       -2.96135090259089
C           -2.81023766957852        3.76384312482487       -4.24779009482677
C            3.76528238361127        0.88145666369155        3.23666433347756
O            4.49349550575051        0.00878029157118        3.67752865311022
O            4.05652215057028        2.21191651224062        2.94288853116772
C            5.42301083547176        2.29314446306267        3.09008953664093
O           -4.24821286579945       -6.08998044704930        2.97753714217498
O           -2.22687573678452       -6.39111478677721        3.97906047821715
C           -2.99302524500434       -7.15451450032371        4.95250549365379
C           -5.57449557585107       -1.67549804294840        1.38558150130760
C           -4.40562330574351       -1.82612387762153       -1.40304597421167
H           -2.87511138835996       -8.32776665836631        5.02428371495290
H           -4.13281959701658       -6.98735077400861        4.68772412790086
H           -2.71086316747778       -6.36012776915261        5.61694844370678
H            5.84933463383001        1.52528584536155        4.02750027674343
H            5.64681717441043        3.32152611594548        3.36860410689362
H            5.81601670536971        2.32836746053579        2.06203321824641
H           -5.00254559886075       -1.54875768702828       -2.43752915929651
H           -4.73076400492437       -1.18672102810483       -0.55569910122328
H           -4.46209529921105       -2.83507913453449       -0.95885734701517
H           -5.80984515115176       -1.45408521305324        2.45098955339812
H           -5.68889789136161       -2.71337625430321        1.25858645460549
H           -6.31848368029753       -0.99517194267721        0.94694060448513
H           -3.90675641774990        3.75269760900997       -4.36012869451747
H           -2.35792270292216        2.76825269777396       -4.77828338522613
H           -2.56849814093157        4.59647054299431       -4.89294278270278
C           -0.87624198485492        3.64422283572497        3.31635048565288
C           -1.22840592472681        2.47162864203882        4.01937624180556
C           -0.40608120203380        2.21620146982023        5.11437233856628
C            0.69103650694146        3.01261257839932        5.39056054683996
C            0.80213841909107        4.32526751778952        4.74850976222640
C           -0.00607359692585        4.65028930831707        3.66825479135486
C           -0.59922928135268        1.15500032259281        5.94972041891214
C            0.47630214684309        0.58302909182836        6.55412520030144
C            1.71909955355632        1.22357473179110        6.47548332035788
N            1.72021011994455        2.54461662929706        6.07433773778139
C           -1.93213926437599        0.56917775253879        6.12751714814519
C           -1.70183730689735       -0.86169087507390        6.41207561405934
N           -0.76412913827055       -1.35659048923422        7.17384014516366
C            0.38438247220308       -0.58534096368263        7.18474244132178
C            1.46341559131416       -0.94704025141690        7.95599092619439
C            2.75805082456167       -0.53507790968477        7.61965450376066
C            2.94204903907218        0.52539997778013        6.80562625857075
C           -3.19020210283591        1.20367177914298        6.07552084350633
C           -4.21177157526148        0.30679104850992        5.94479787610061
C           -4.07147850834184       -1.04155901558347        6.03286941489287
C           -2.91123513915467       -1.52344228145289        6.62429355456456
O           -3.35837597837458        2.60813315882257        6.12683056491545
O           -2.22902117464945        1.51381698490056        3.57601544603997
C           -0.06637221945926        5.86979669272927        2.78641371518040
C           -5.21078876017502       -2.04129822823614        6.04299495149215
H            1.72937637452732        4.88713721147404        4.90997155445899
H           -1.42245381875666        3.88439787917239        2.46342295872070
H            3.86126682307136        0.92106085381289        6.86008111525063
H            1.19708369181366       -1.88684011875365        8.35241023167860
H           -2.78259147388825       -2.44370233722263        6.94677345534911
H           -5.23297018641286        0.74206961396043        5.96490989971855
O            0.86272432613715        6.65878490794546        2.71515060982188
O           -1.38362164054994        5.91757569722637        2.38289149533625
C           -1.93732512092486        6.93952634072725        1.60334746073849
C            3.85272204592295       -1.12879867892357        8.34973531412964
O            3.67916747989345       -1.91447762054175        9.26033132507230
O            5.12890520847995       -0.61383053771075        8.06940496947436
C            6.19160583176683       -1.13802165250390        8.72762179197875
O           -6.27950945202755       -1.64888525887374        6.53337498275823
O           -5.22849528728533       -3.21909686862436        5.31942094861625
C           -6.31158257721214       -4.00634543411972        5.84820963915409
C           -4.60705294138168        3.15832003110003        6.14458235909784
C           -3.25101750884775        2.17920928792950        2.80651051241877
H           -6.71888963706439       -4.65205627387806        4.96586222402241
H           -7.06406056545669       -3.47780852166433        6.15388480963200
H           -5.88621958481995       -4.54324122388784        6.78607956937751
H            6.90695641557122       -0.37693664952939        8.36604305587481
H            6.64697871286406       -2.01158968445902        8.17876310105157
H            5.92217041517108       -1.32915085860842        9.69621386484883
H           -4.24797529208702        2.53686490824399        3.20869044170226
H           -3.46269451332318        1.81305622696916        1.78815487182637
H           -2.99942913917297        3.21809914765412        3.19144804060526
H           -5.09566762257484        2.73807564528053        5.27759987129780
H           -4.40541798295639        4.16679191534062        6.15549843094702
H           -5.12419758803836        2.69811658399202        6.88171112295383
H           -2.72342693394779        7.30759304099942        2.37954733619712
H           -2.30379779607737        6.79580936581717        0.65627152035336
H           -1.04016328174729        7.52357421414494        1.25082886042026
116
 energy: -22.580776928271 gnorm: 0.570132676201 xtb: 6.6.1 (8d0f1dd)
C           -3.35101473465557       -0.02183632609712       -2.03695733710287
C           -2.70956335051117       -1.08227106135566       -1.17403197513427
C           -1.80427024037897       -0.50812648073767       -0.18467342561291
C           -1.08221933312888        0.77589250451523       -0.54111615809087
C           -1.67406643145013        1.73710325395119       -1.41420574244757
C           -2.74731038582902        1.29243406317022       -2.12729600270923
C           -1.47666831407213       -1.02946068960686        1.08062708729950
C           -0.11120623496774       -0.97468483433237        1.56905248957423
C            0.54867685367231        0.20191597142024        1.02091126783374
N            0.15471911094402        1.01872981804761        0.03623410489389
C           -2.26842485549850       -1.86708760936360        1.94491540760603
C           -1.65018339195865       -2.90836014428303        2.73502392475784
N           -0.43761675827794       -2.64708456054937        3.32941823622991
C            0.36754035237440       -1.67028126516081        2.75661436783101
C            1.56506737395972       -1.10742036750791        3.20252092833770
C            2.25481999351941        0.00671607952719        2.62807806711127
C            1.90328472308599        0.43703571952273        1.33793588638804
C           -3.72417006246271       -1.67893297254611        1.69301131483033
C           -4.48088020479293       -2.93396866955988        1.96097042701610
C           -3.79760428001535       -3.97429692014026        2.75941330718766
C           -2.46461405112057       -3.90952743805400        3.30915685462023
O           -4.25512910565471       -0.45241240412381        1.39775439785553
O           -2.96724716398210       -2.46125477415500       -1.28599737590360
C           -3.48374127230294        2.06801727783479       -3.21395827355124
C           -4.40001927271690       -5.25927220782520        2.57090421264140
H           -1.38506034722085        2.83317382220601       -1.40455798673357
H           -4.21732680861181       -0.04565407711488       -2.59409915605857
H            2.66936666092086        0.97219992826426        0.84431404167121
H            2.10183721376107       -1.55109337138460        4.06548312036840
H           -2.15354114985672       -4.75347493300330        3.77415516862414
H           -5.45164207793413       -2.69096062539613        2.04886046079855
O           -4.44638600790922        1.38119427872067       -3.63527370644510
O           -3.15700183799540        3.39589544402497       -3.48307799372421
C           -4.15673588704164        4.00448559336423       -4.19375847222796
C            3.49573226850694        0.49016768435117        3.20694737536186
O            4.06635562655871       -0.24583008367757        4.05161945570332
O            3.73909797007189        1.78483930237834        2.84229365151347
C            4.97273266767583        1.96769696520355        3.38566171847311
O           -5.56110419599655       -5.35435630523762        2.72538399594054
O           -3.60487743869692       -6.27866575315994        2.15114455356224
C           -4.24840061407109       -7.36509463511575        1.76020134224295
C           -5.62550120527428       -0.36306778832834        1.33764411661337
C           -2.10007118232204       -3.44744253731198       -0.78119355694875
H           -4.33378966816308       -6.92293545282357        0.73680386284840
H           -5.26007484144562       -7.65373022137623        2.13806987536001
H           -3.69912219661400       -8.32681389486506        1.65429157962174
H            5.23477251212869        2.93440249184879        3.85369345895118
H            5.84811241763097        1.89144775845043        2.55612575320779
H            5.36267099513314        1.19045914655021        4.14836823454695
H           -2.27622507158732       -4.29788585544490       -1.36597096270898
H           -2.44919548779369       -3.77658099328753        0.18365535276847
H           -1.01585899154967       -3.26447067882260       -0.84626927131225
H           -6.00994634072375       -0.41182378740294        0.34544490593003
H           -5.96690098561688        0.74702229366554        1.61506823623135
H           -6.14816305011022       -1.01720874216623        2.01895305405347
H           -4.51979717969436        4.81508591522427       -3.62916029275865
H           -4.85322992466627        3.09389166746346       -4.63976323965032
H           -3.67149707457735        4.38064899603793       -5.05890148950583
C           -1.55835049417975        4.75998873746262        4.68097026602156
C           -1.53579587914079        3.38375127768252        4.87533806677519
C           -0.40234977340611        2.75256255984345        5.16026820030212
C            0.90851924478644        3.41158447000490        5.24845268932695
C            0.83253877218052        4.69787807926282        4.74596397909080
C           -0.37239888323064        5.47536044780027        4.60116492472045
C           -0.41083657276771        1.36687705133268        5.68562095931458
C            0.86724644877022        0.81282992366654        6.12673160347620
C            2.13524278348366        1.54609393700140        5.89742831979963
N            2.13197266859198        2.93258258096331        5.48972413977117
C           -1.46855751968018        0.40479818649671        5.82955258286297
C           -1.23987956135692       -1.03205708799347        5.89596442921808
N           -0.01359199143616       -1.59816972002934        5.99721511140636
C            0.89721341676480       -0.54155120144896        6.48054873623086
C            2.07801474301208       -0.91744076023621        6.97901702820026
C            3.02709855610731       -0.10839758143572        7.29667004956772
C            3.22893613521686        1.19418175211789        6.63703983381091
C           -2.70045457584228        0.91268264770040        6.31711936502347
C           -3.82779405877564        0.06590149433800        6.47654008539872
C           -3.63372467855088       -1.36227004856296        6.13224690436801
C           -2.33700697724973       -1.90601676554198        5.90866870478376
O           -2.85056104182535        2.19411958550242        6.93414774861512
O           -2.82502582009285        2.98481821755114        4.52247261422404
C           -0.67395772238479        6.73937223382500        3.99110356876831
C           -4.77758387440478       -2.25266757766915        6.53228597711853
H            1.73044417596957        5.28961577758406        4.83654853978620
H           -2.47778257519238        5.34138329386655        4.42837076776211
H            4.07469604884149        1.89760189185201        6.72390346089584
H            2.20134703030048       -1.87506631053696        7.39109143255580
H           -2.33564601162744       -2.97725254133731        5.76302639092424
H           -4.82547813987164        0.40495399104475        6.84983930651984
O           -1.50711914984059        7.39384709130780        4.59842567608142
O           -0.25503370812112        6.79907211656000        2.64355324004798
C           -0.03094964767795        8.07560981058321        2.17022463803157
C            4.19450943038570       -0.44211522477846        8.14979942205558
O            4.51443776793410       -1.57731893342519        8.25578011420825
O            4.66495206495144        0.68358641805231        8.71676295547713
C            5.68492957929915        0.58477264180102        9.56575814533275
O           -5.18367114816465       -2.36022026243375        7.66277676535868
O           -5.31356957693524       -2.96421780699607        5.45577759109430
C           -5.90635641995193       -4.27046441254119        5.69935159133923
C           -3.58845205046210        2.31694397468188        8.15224955913883
C           -2.98418859527698        2.19350471344217        3.33384286512268
H           -7.00331362654144       -4.20221151563371        5.82643627450488
H           -5.50072759649774       -4.85045435397822        6.40861564135389
H           -5.84126769348074       -4.79953437496106        4.70255843326491
H            5.92248690073867        1.55641603204975        9.83751933987021
H            6.56038215214375        0.28216359268355        9.07694916181297
H            5.54504285803514       -0.01805091934753       10.55703817485770
H           -3.89154513773013        1.53148536411539        3.19275458315344
H           -2.06681805295063        1.52800418638656        3.35385378380781
H           -3.16564222584391        2.80236788629809        2.35804391004704
H           -4.48918521191344        2.77598788547540        7.77201814830617
H           -2.80873635028052        2.85979696789041        8.72763637299957
H           -3.71217377831004        1.28555932135875        8.41776135098619
H           -0.60756343204958        8.75755452926310        2.75876743594627
H           -0.36560656005686        8.00039795120219        1.10012868748249
H            1.09652846116644        8.09132174495192        2.04094832379795
116
 energy: -22.547576030256 gnorm: 0.578937087091 xtb: 6.6.1 (8d0f1dd)
C           -3.25221826242352        0.07066015130069       -2.68683560766613
C           -3.19552018330456       -0.85208395519329       -1.58083105790425
C           -2.44321456821044       -0.41238602580847       -0.46611409820041
C           -1.62019659158106        0.80871031637135       -0.60692709857006
C           -1.84795039594589        1.63428694867314       -1.65212369940342
C           -2.60560554093265        1.27541392003703       -2.66791873288200
C           -2.27833945952537       -1.07203267459028        0.83945878308280
C           -1.11224564682832       -0.87640066410125        1.52858618857776
C           -0.18636230047019        0.02302104088773        0.86595872147813
N           -0.43254434568571        1.03113684098122        0.03613182486888
C           -2.93333063906928       -2.16966783115023        1.67623763212035
C           -2.40503202137073       -2.97877770507877        2.73579258516203
N           -1.39858953439873       -2.50644165280869        3.37642341584129
C           -0.78452821302667       -1.42205270032202        2.77320378859226
C            0.54470384904186       -1.39299255334585        3.25691787138227
C            1.38344122953941       -0.46392789439998        2.54858916757200
C            1.09115415841262        0.20638635865776        1.42663451403670
C           -4.29643466922646       -2.55932939275803        1.43065231312909
C           -4.83912731276977       -3.78841245654173        1.81626503996921
C           -4.11501498235391       -4.56329423687206        2.60565340445909
C           -2.81323228755825       -4.27464486232165        3.14114417487316
O           -5.13090177816392       -1.72160923183920        0.51464069929442
O           -3.81687612577225       -2.20099624543333       -1.73661903930333
C           -2.67079655832012        2.25899720224522       -3.72271923994374
C           -4.69218858090220       -5.89616083392074        2.90500304472614
H           -1.40438029822678        2.68387225042952       -1.64046395942560
H           -3.69438157276339       -0.18572154221452       -3.65251741000295
H            1.51320104678797        1.08770634615442        1.10977926551188
H            0.68536173843848       -1.89539250682265        4.21132956426500
H           -2.58788952050804       -4.68407910631398        4.07979005079102
H           -5.69990806580250       -4.12161146363649        1.45520581023743
O           -3.19177839937869        2.05420928932268       -4.80927211008440