116
 energy: -22.928061455056 gnorm: 0.329736929581 xtb: 6.6.1 (8d0f1dd)
C           -3.31122850772930        0.79849766164622       -0.92477639677520
C           -2.44380812530352       -0.12270372891954       -0.27661132624697
C           -1.41337090092821        0.39579727573559        0.56335275196199
C           -0.89266158675590        1.65801491088749        0.27377586709581
C           -1.72665675402493        2.51431363229076       -0.49448366572522
C           -2.95444148494349        2.13954154133227       -1.01494489940871
C           -0.74098268209890       -0.43411532818871        1.49825021926784
C            0.56872586496315        0.03782116815119        1.86248088067890
C            1.03782416582094        1.29402317993033        1.50887470833621
N            0.31238977034758        2.07067427098208        0.65193736800696
C           -1.29695700510141       -1.39996043042223        2.41574187746061
C           -0.38243517664656       -2.18060797534842        3.13232615520648
N            0.91308504082021       -1.90366887689689        3.30325166013478
C            1.37712470144904       -0.74872102533751        2.81811050966982
C            2.52149331701875       -0.17739833758153        3.39379298866852
C            2.95849061756259        1.02681208890480        2.95105897606587
C            2.24288949469137        1.78498308775960        2.03503020483770
C           -2.74860936222260       -1.74497937691422        2.38401158947411
C           -3.09416315450955       -2.91614440870436        3.00571134491758
C           -2.16786021984049       -3.77788778654213        3.63251872101904
C           -0.85708937311598       -3.40495313382985        3.68547234358092
O           -3.71994433332149       -0.94984598373544        1.67726658385724
O           -2.55702603277562       -1.47241711578389       -0.57241635275616
C           -3.84297843593025        3.13357444054366       -1.60938954875544
C           -2.68769581069131       -5.03867041417370        4.30484659386931
H           -1.39666850744143        3.51251503834900       -0.76806311868865
H           -4.27662633836220        0.55105838579656       -1.33106614114542
H            2.66329581305412        2.73912661909249        1.72562431984580
H            3.05775395548473       -0.69369546277216        4.16536137542516
H           -0.24710966264510       -4.12034095424229        4.22946223699121
H           -4.11477991332403       -3.04712728052358        3.03244694615357
O           -4.21824883374556        4.03433712717988       -0.87713382485991
O           -4.44510595673734        2.90643496899600       -2.81853501752979
C           -5.44216520282800        3.83300025693726       -3.02488532025093
C            4.23586651889298        1.50004220933226        3.59165660008449
O            5.05927614697201        0.66079890002952        3.91714215179376
O            4.47001334453535        2.86385149488593        3.72605651435371
C            5.79457498613219        3.08584475587818        4.15829123132174
O           -3.82227255313510       -5.27347675879771        4.16636005494405
O           -1.85023202017753       -5.79767454267276        5.06656077253571
C           -2.55119635829503       -6.86252441382958        5.62930343183426
C           -5.07197156564436       -1.42399175670916        1.58830531863830
C           -1.33089900128490       -2.23622472573986       -0.99264499351172
H           -2.54510546830388       -7.76426885143998        4.99136022291012
H           -3.57194749219491       -6.44405511486021        5.74196173723541
H           -2.09133598235598       -7.02043774843818        6.64022264233588
H            5.72707967266424        3.46798026205549        5.10135971236643
H            6.34060091246885        3.78468702308830        3.50069950143490
H            6.17933064298187        2.03010500085905        4.19342358084693
H           -0.91862729772622       -2.57650129080332       -0.01361370304871
H           -0.49769766914251       -1.60651221708571       -1.34094446550576
H           -1.52632419730509       -2.94569707152159       -1.75361447637286
H           -5.11788846557077       -2.41810833635233        1.17520213188926
H           -5.67929807973498       -0.69619639428435        1.04301666067831
H           -5.57598832326623       -1.42383358739762        2.57928294206544
H           -6.13050215934830        3.76035386975488       -2.23272855695873
H           -5.86615610071888        3.45938329385866       -4.02668959924245
H           -5.13479557532099        4.87790991548477       -2.98314551356402
C           -1.38192942069774        3.73616555005018        2.91232598411686
C           -1.84821468128685        2.59982427735607        3.49755545445181
C           -1.05946531454833        2.05730632010638        4.60922730982276
C            0.19893954712228        2.69376791964407        4.86302140881997
C            0.50425395911860        3.94630308659851        4.28768785650746
C           -0.26031777722226        4.46998310053134        3.25072669343212
C           -1.20488993561782        0.74454293276906        5.14851520323437
C           -0.06287609782692        0.02744069315890        5.60930570802864
C            1.19208754369866        0.71421540266195        5.78882868583885
N            1.19428660993148        2.06344359410476        5.62744624321596
C           -2.41361422770794        0.07928500213936        5.25249410304426
C           -2.45851584031083       -1.32662100968547        5.60237876023992
N           -1.29466212405906       -1.98318595734370        5.89916817085159
C           -0.14475655767527       -1.32117560077092        5.98824682881008
C            0.97209270935794       -1.98958449505532        6.53157704134458
C            2.21982707914082       -1.36973967291181        6.68703967237737
C            2.30561929262884       -0.09745313075593        6.26436900324455
C           -3.73018485967715        0.71367583494582        5.25810242262992
C           -4.89964478833448       -0.06184623426677        5.21204641615509
C           -4.82617965800088       -1.39228978090841        5.46901303780036
C           -3.67144193418464       -1.98914944386360        5.67265433266067
O           -3.75568638935321        2.07705011038914        5.52067969627343
O           -2.94192434743730        1.91263938797883        3.01658762327703
C            0.21273512614467        5.50086066357994        2.34765104514621
C           -6.06660304520411       -2.17604633098929        5.80641622556876
H            1.41756699010566        4.38133362238595        4.66974005703471
H           -1.82880610647429        4.11982501512100        2.06992133318584
H            3.26888037378556        0.32655662585251        6.31721410015598
H            0.87146188387207       -3.08471526305024        6.57830423410869
H           -3.67716811065157       -3.05999292755990        5.83019634570050
H           -5.77379677507622        0.43595144608221        4.71017130754348
O            1.34459852619901        5.82615848916894        2.44941456579099
O           -0.74718748219123        6.07961784856304        1.59848183464284
C           -0.21473095568964        7.24015934882472        1.05753806029483
C            3.53228080814219       -2.00967610361154        7.02506769044485
O            3.64093082622715       -3.14437803815732        7.50071391725347
O            4.56565258381079       -1.22937033368332        6.69086985080897
C            5.72579357310716       -1.80692399125161        7.22246151275881
O           -7.04801223588612       -1.95726935745904        5.14194115322235
O           -6.01514389321278       -2.93743591896022        6.94765316328794
C           -7.21292732384718       -3.62681918543340        7.15115816329978
C           -4.95459780685163        2.65960679932188        5.86868674392943
C           -3.68284113682406        2.59129188358641        2.05479246020704
H           -7.43119628931628       -4.22607794725959        6.20622607140901
H           -8.06548455146707       -2.91765848248592        7.29781126410398
H           -7.07314693247270       -4.33087306029711        7.91223421050944
H            6.57332189837178       -1.29353136199234        6.78341268688262
H            5.74663761932316       -2.84282155125561        6.88089468184451
H            5.69426191474290       -1.72781984964892        8.29460302186842
H           -4.10481209541493        3.44288266176275        2.60483747673152
H           -4.49244774344916        1.87419893016926        1.82433103764650
H           -3.18901540870812        2.85154642679373        1.06781919454921
H           -5.55414326821421        2.76698137191684        4.93950725322359
H           -4.78658370641210        3.62090640967288        6.25983200635257
H           -5.43485580473958        1.97242995129449        6.65265772412460
H            0.89164886030839        7.38838561720231        1.13776105146914
H           -0.62894889903848        8.04195665205089        1.64837664327952
H           -0.59282546386754        7.45699159724320        0.03719083132488
116
 energy: -22.847115368216 gnorm: 0.392627019941 xtb: 6.6.1 (8d0f1dd)
C           -3.17634606776611        0.15526806292658       -1.07644816991705
C           -2.34524443550665       -0.67002502146618       -0.31658335795484
C           -1.59113081108273       -0.05930039844105        0.71147917372687
C           -1.23593654895136        1.30410308633661        0.54894055331401
C           -1.88922416168235        2.08332018121713       -0.49857556823168
C           -2.90322434244359        1.51284582080021       -1.29093502531276
C           -0.74163912222009       -0.83517503835853        1.57096468548848
C            0.37453117644528       -0.16202322445510        2.07826895121552
C            0.53553706940482        1.20443375289876        1.94391951556893
N           -0.25280249559389        1.97718888134041        1.17785743824183
C           -1.21932054059775       -2.01083200615019        2.19326159287310
C           -0.20685170718069       -2.80694170853642        2.84892389179193
N            1.02434319195975       -2.24077833047602        3.00626078114057
C            1.30303058645328       -0.93604362784694        2.77642228147529
C            2.57020074044815       -0.40364683853721        3.16127188380079
C            2.81080745396382        0.89619094517650        2.82784678295835
C            1.72177534785333        1.71468064344133        2.37093630278080
C           -2.64063262475838       -2.31996195726095        2.41490390951154
C           -2.96573335917688       -3.50857182125832        3.11385529474277
C           -1.91194275233148       -4.15793372434578        3.83613779609057
C           -0.57363788448794       -3.75884402455962        3.71012478772690
O           -3.51063509327641       -1.27814817856657        2.03183245240307
O           -2.28270575303599       -2.10445224073194       -0.33516768406628
C           -3.70034179602628        2.54754805758300       -2.07259173497487
C           -2.31675028378236       -5.37791738155935        4.63311784809805
H           -1.64664449592285        3.11444638753278       -0.60199582863563
H           -4.07396366132412       -0.24004930364296       -1.49633667374745
H            1.97707475964338        2.66281847221260        1.98092874690975
H            3.24374345347416       -0.94545067861626        3.78057926202406
H            0.19202294591520       -4.16819202145983        4.34922585814274
H           -3.95044602074689       -3.94628918480613        3.16342180196218
O           -3.14301316623636        3.59411410867066       -2.18556393212427
O           -5.04660823750161        2.32935311473642       -2.29671207636110
C           -5.70983392850646        3.58848479127900       -2.35441328697195
C            4.05022229966426        1.54298780057739        3.16667451189683
O            5.01462721629879        0.92015574006662        3.63126900321870
O            3.98937972026697        2.93594613620022        3.07202441878291
C            5.14158570462766        3.59419316093043        3.45165716231316
O           -2.96398435063362       -5.45233768982134        5.70292647525953
O           -1.75650646709965       -6.43852941723453        4.04999670872596
C           -2.02732695666696       -7.70889245404150        4.64739142080393
C           -4.88989726346482       -1.38416916376382        2.00566855082847
C           -2.45337656906056       -2.70026208132245       -1.53864895692876
H           -2.88672317526417       -8.08471925298506        4.06974288153922
H           -2.35202762036781       -7.63578648865776        5.65704056146597
H           -1.24650967483779       -8.46166499059012        4.47858417147325
H            5.43624714464726        2.97391491975445        4.28322776032871
H            4.92160338618427        4.66351017602955        3.85920563713588
H            5.82725889886035        3.45648080470614        2.69347319108116
H           -2.49038713184610       -1.93918122007506       -2.34251071180614
H           -3.32765945022296       -3.29659398437905       -1.59651322699623
H           -1.58948231387171       -3.36915066754646       -1.67439428191571
H           -5.24483010615581       -0.67871906560934        1.23462890753988
H           -5.25197553211121       -0.99927081771437        3.02907968796700
H           -5.26971065432697       -2.41230095787158        1.83882090319351
H           -5.17166756777452        4.49326062160171       -2.72707672940405
H           -6.09322932757093        4.01264833017400       -1.45366116609626
H           -6.60451306938773        3.50300058869677       -3.02920950001445
C           -1.57620664075076        4.30305750424413        3.45744324578110
C           -1.90993689956901        3.01322104456560        4.00621205603147
C           -0.90327916638479        2.34727112304189        4.77448522945217
C            0.44111455473437        2.82341773194176        4.67420918640584
C            0.76512919095929        3.98983601744780        4.03047895278900
C           -0.25287388462226        4.77357250767122        3.46460555763318
C           -1.09318536948302        1.09930164187912        5.39048054720045
C            0.10242637272465        0.37133872830010        5.76111231148188
C            1.37280176935903        0.97098794357717        5.72239005477561
N            1.59773586576454        2.20747475221627        5.24270823056999
C           -2.39672045802638        0.49099218754007        5.69374472319710
C           -2.40440124071904       -0.90013634695658        5.73946464490404
N           -1.27043052777999       -1.55166257441521        5.96977585027758
C           -0.04032511303393       -0.98214392519298        6.14360580823195
C            1.01257536582712       -1.72995458280680        6.66807060808522
C            2.26172979893418       -1.12138926543871        6.83468568125632
C            2.38755960954468        0.21288625635281        6.32635773821197
C           -3.56431306978118        1.22508395610452        6.01501642148868
C           -4.72166798238804        0.46243853407047        5.85625973790484
C           -4.83761289229759       -0.87168173310119        5.52958261057462
C           -3.66500936961591       -1.55069582492667        5.61165254966559
O           -3.45748052288035        2.65673520549446        6.30534753832606
O           -3.08944353583963        2.37187874879521        3.73395853286021
C            0.12747967663421        6.03102891420928        2.79733321982450
C           -6.13684708840608       -1.51472491160516        5.35938373826883
H            1.79218854150514        4.38987915826380        3.88482779073921
H           -2.28327696426748        4.80425094758011        2.83323060431029
H            3.28341922476370        0.74083283744219        6.35611514755059
H            1.05673410433310       -2.74737569139536        6.81354295078680
H           -3.70517187512583       -2.61073395598665        5.23201454393656
H           -5.61566033138179        1.06354175508687        5.94358991254712
O           -0.16755292943688        7.12530723661547        3.33634798815582
O            0.92023628309709        5.82711364394415        1.67131605373320
C            0.63095846335300        6.81211631002291        0.77856255211373
C            3.33703226815799       -1.94986566540271        7.28929400785721
O            3.14230079540218       -3.13892690078586        7.59948355787873
O            4.58438581093786       -1.22567970723493        7.38414908355267
C            5.53451244447592       -2.21092767227680        7.62617937643797
O           -7.18852054065865       -0.93337656578550        5.64014832206532
O           -5.99757727413437       -2.76055843141977        4.92221462403404
C           -7.26037719986461       -3.21985811100154        4.67991878526887
C           -4.62604288714339        3.40117628034076        6.20217965927451
C           -4.09778236984133        2.82385666046359        2.78601220366959
H           -7.79780104464048       -2.68082242853447        3.95731636023369
H           -7.88320983092414       -3.12376514901731        5.60545206230558
H           -7.06388790561224       -4.30393959277699        4.38035465890758
H            6.54025661693636       -1.79233200532932        7.80430478041136
H            5.61627423829706       -2.75279124184506        6.68079424177750
H            5.13110614224793       -2.81384617046153        8.46606485569543
H           -3.84169098986816        3.63151541136916        2.18756289760614
H           -5.09494492921975        2.80269570292432        3.14049034360237
H           -4.12927282892935        1.86877394763611        2.15989674456159
H           -4.84907609249666        3.45051916501839        5.05642930649551
H           -4.44123978063400        4.50729844888526        6.47704101162537
H           -5.36424543874640        2.93317110916315        6.71441798650081
H           -0.07864190989358        7.59924869570105        1.24949418107071
H           -0.00464646030965        6.41267257490940       -0.03152222411196
H            1.64708872794724        7.23359863826489        0.39275736591124
116
 energy: -22.867980834007 gnorm: 0.385970804259 xtb: 6.6.1 (8d0f1dd)
C           -3.12570892046374        0.40831033140619       -1.48772931950767
C           -2.58056306681190       -0.42419037041063       -0.45758766301197
C           -1.73948232585716        0.23394621020355        0.48282097137190
C           -1.42736941777736        1.61533913926792        0.27300942579689
C           -1.96137458909813        2.31420010555077       -0.80866071343746
C           -2.78464752412870        1.75227957481969       -1.69093244769424
C           -1.04475339321868       -0.46758997225909        1.57631094551497
C            0.13184040338401        0.16705901845248        2.12699134659156
C            0.38912201298269        1.53559907965603        1.78962455291150
N           -0.37020571619201        2.24510232216148        0.87036275938887
C           -1.35725965562267       -1.72642940760456        2.11708362051642
C           -0.27849725351785       -2.38644868315518        2.87012265365705
N            0.95828038270764       -1.89741978119354        3.15348004235582
C            1.14306585671477       -0.63462730923958        2.88668244227044
C            2.44119510067907       -0.05628355896636        2.95103306385662
C            2.69031338760177        1.29188990469162        2.62807153692345
C            1.70314585846289        2.02544727219214        1.97935154610617
C           -2.69050168812720       -2.27290781369191        2.21075409746964
C           -2.88114606060460       -3.55443834506692        2.67172649806884
C           -1.86137078542769       -4.23875341281821        3.33807311396381
C           -0.57499090163638       -3.70302443144290        3.35207395969408
O           -3.79509416336016       -1.41317638306401        2.03705113232453
O           -2.45972011093661       -1.76107140002002       -0.37015299649550
C           -3.51195078269384        2.49810490348674       -2.79837852663880
C           -2.14903605085190       -5.57713066092536        4.07140236631146
H           -1.69338345983012        3.32696867483194       -0.85537274307161
H           -3.55778590231843       -0.09081664016701       -2.33366933132518
H            1.89669654193910        3.01622797188599        1.66620776961191
H            3.14504495997126       -0.65025222034117        3.50630472011021
H            0.12868373021699       -4.22895734910647        3.89318567437239
H           -3.92209643475733       -3.98572140224223        2.62880805455072
O           -3.45679406379577        3.75649235101761       -2.92958059249074
O           -4.23014980587267        1.67193044345632       -3.66640302604974
C           -5.14685758793353        2.38832640531284       -4.47697012153699
C            3.97719839058726        1.88899232367910        3.25385234826842
O            4.19962005039311        1.70035914992390        4.40694513589287
O            4.70431651009477        2.45996483487135        2.28838879519297
C            5.83162259736281        3.05587389070351        2.87535009308120
O           -3.04442531732708       -6.28744786537967        3.76371970236150
O           -1.12138042476074       -5.95062968035115        4.99836062389063
C           -0.98538185390382       -7.34839915474931        5.24691708785356
C           -5.03792392099000       -1.83352818665777        2.55343838322966
C           -3.47434102676581       -2.45590137944566       -0.97449644058938
H           -1.95842953177979       -7.56856808016101        5.62874424997167
H           -0.21856929802958       -7.61706642362347        5.97911308253095
H           -0.99698781881237       -7.96236969478817        4.31064830678234
H            5.55576366780280        3.65294815355437        3.74578331928976
H            6.35751071324717        3.67748215971274        2.18758271850466
H            6.49421840053565        2.15522518782114        3.08313427770624
H           -3.82694633784015       -2.18356037692503       -2.01952026575934
H           -4.30661927282586       -2.44685179062239       -0.25020402736086
H           -3.23010559480865       -3.50173844082710       -1.06112026079697
H           -5.71030768308017       -0.92273496248956        2.24847507961772
H           -4.91725257505668       -2.12632414826563        3.61712266826619
H           -5.48605349721989       -2.65348068751151        1.92385481201912
H           -4.77347160709091        2.40590081293981       -5.49816337916579
H           -5.33869358901385        3.32325018778417       -3.97841012714958
H           -6.15077803998171        1.83397267867148       -4.40144399299140
C           -1.43739422387615        4.18228657193052        3.14841531639459
C           -1.94557139543154        3.26696505783944        3.98425390903077
C           -1.03319074123260        2.49280341196224        4.86356585267836
C            0.26761379464732        3.00058346174591        5.03047580859612
C            0.60780360422283        4.18692458844883        4.37752464797567
C           -0.20864079410936        4.79374186791127        3.50037392844048
C           -1.32713307054526        1.18436820142302        5.48338814475255
C           -0.22267977906116        0.30160792985558        5.75058834775038
C            1.09506504285582        0.89028226306558        5.82928539637039
N            1.26140293425686        2.21001151677026        5.51268193500223
C           -2.59693581933622        0.58759780634863        5.90260714654801
C           -2.63875176437289       -0.85894317310063        5.97343411524906
N           -1.54808874398376       -1.61264613658629        6.12099675005651
C           -0.28436658833227       -1.06575329540874        6.12211369524519
C            0.89977493792282       -1.84031305422840        6.36774947589110
C            2.15709989160400       -1.22024530929942        6.36354773172969
C            2.27009056627087        0.14335672202812        6.16401839180368
C           -3.79500027989881        1.32933788150422        6.21525709379977
C           -4.99676549224440        0.58567579047816        6.26990710211423
C           -4.99368242906128       -0.83081140124347        6.19923154152785
C           -3.85942805956304       -1.56532583480086        6.05734841585726
O           -3.75827716235797        2.66442252315379        6.47907990549238
O           -3.22341614247825        2.65114219300161        3.80602440098920
C            0.29077993624075        6.00491585676995        2.84822659721359
C           -6.27982235627102       -1.57682760636831        6.37046321106767
H            1.62914205090125        4.55038890526439        4.49697503117995
H           -1.90240445709921        4.78589690436008        2.35838051611897
H            3.20236935427917        0.47374794855388        5.84213798417172
H            0.83690550680055       -2.82810795767386        6.68827051097218
H           -3.73343062104978       -2.64052102322730        6.30583435372657
H           -5.94434728610465        1.15051328651356        6.35087176866789
O            0.15187502494487        6.21520341409040        1.66407742025083
O            1.07422280534629        6.83705452223214        3.61236922698835
C            1.77797421581965        7.63850848940219        2.65341468581160
C            3.25485224044766       -2.17151900522272        6.82886345917554
O            3.03072794577177       -3.11290174813303        7.56994453146193
O            4.58111627329667       -1.81013323074173        6.66236512549745
C            5.44254427789456       -2.62855895318980        7.49157670850394
O           -7.25784139765649       -0.98113851915722        6.69445444535414
O           -6.27984719132798       -2.94063407010950        5.89581010823001
C           -7.46863192146434       -3.35926372535470        5.41968975611709
C           -4.75605708742303        3.25393136610822        7.24332188589315
C           -3.33125033478870        2.06163689356773        2.49606454907641
H           -7.93296437506990       -2.52217036135179        4.80175746880848
H           -8.03428605943054       -3.65140053436189        6.23943355955052
H           -7.46238240350902       -4.18609932098735        4.68136421355801
H            6.30053784295499       -1.92323274056201        7.85397592470674
H            5.84649369443657       -3.42572616311291        6.80736584932085
H            4.87442714926986       -2.94392859095383        8.39300905475030
H           -3.79076995207207        1.09314431574678        2.67225239675675
H           -2.40029611798791        2.04026001431469        2.17813855913662
H           -3.93880565405425        2.72697193698627        1.85771810583200
H           -5.63681412584851        3.25480803033846        6.57965017177573
H           -4.59677359465766        4.30024767181372        7.40336654740377
H           -5.07265276497647        2.63308532850976        8.13283576953418
H            1.11648919179561        8.19945340634650        2.05544145847447
H            2.28237060026774        6.94204745362106        2.03972710532355
H            2.44487707473191        8.28841058707877        3.23595728728257
116
 energy: -22.872720511836 gnorm: 0.344327169584 xtb: 6.6.1 (8d0f1dd)
C           -3.19614673761470       -0.34316854283300       -1.55929065444492
C           -2.46874996674918       -0.97489591139495       -0.56995275402984
C           -1.64680027926233       -0.08420825601869        0.16898568236709
C           -1.41002528838964        1.25858847497560       -0.28555138157953
C           -2.22292413123978        1.87147155825358       -1.24596648843697
C           -3.12880393427450        1.04784963686368       -1.86140500708362
C           -1.03500695854239       -0.46101385656628        1.39542006046634
C            0.08045491795868        0.25059495434743        1.77898990513287
C            0.44640391866664        1.38190803458245        1.04409301812026
N           -0.33135221445821        1.97533417297739        0.14180076303395
C           -1.31719506958953       -1.64275175063537        2.08189204347158
C           -0.32799248142759       -2.24267999549611        2.82093189918757
N            0.77090735642295       -1.61737841194058        3.22300740291423
C            1.00646051009891       -0.41460135834938        2.67465613181285
C            2.24890531321675        0.15819022085045        2.84331370215843
C            2.54600252230405        1.39852337916859        2.29673286814028
C            1.69355036726695        1.99097196621006        1.32162885433003
C           -2.70169299189204       -2.00272016398149        2.42962491798961
C           -2.94855979791225       -3.14567386684407        3.10427987061137
C           -1.87746258983345       -3.77963697445717        3.76694544034030
C           -0.54499531510184       -3.46053933367491        3.46128650312632
O           -3.58968619324312       -0.98543527373960        2.04891448577425
O           -2.63908245671847       -2.28106725523375       -0.18577749292491
C           -3.77864502049243        1.69390482207511       -3.11748162747878
C           -2.20620762669086       -4.78720292299332        4.77353153055474
H           -1.99930400144938        2.91541899409346       -1.51477973679782
H           -3.66514349546658       -0.89056893448806       -2.32291853795921
H            2.11316113741750        2.81429877575225        0.76669740808461
H            2.93933831257406       -0.30874944613659        3.53817448748011
H            0.18851864076688       -4.21162160721275        3.53818984017893
H           -3.97874648724841       -3.49133473931804        3.32992778260684
O           -3.99307978028088        2.87061842978590       -3.27178814084430