116
 energy: -22.928061455056 gnorm: 0.329736929581 xtb: 6.6.1 (8d0f1dd)
C           -3.31122850772930        0.79849766164622       -0.92477639677520
C           -2.44380812530352       -0.12270372891954       -0.27661132624697
C           -1.41337090092821        0.39579727573559        0.56335275196199
C           -0.89266158675590        1.65801491088749        0.27377586709581
C           -1.72665675402493        2.51431363229076       -0.49448366572522
C           -2.95444148494349        2.13954154133227       -1.01494489940871
C           -0.74098268209890       -0.43411532818871        1.49825021926784
C            0.56872586496315        0.03782116815119        1.86248088067890
C            1.03782416582094        1.29402317993033        1.50887470833621
N            0.31238977034758        2.07067427098208        0.65193736800696
C           -1.29695700510141       -1.39996043042223        2.41574187746061
C           -0.38243517664656       -2.18060797534842        3.13232615520648
N            0.91308504082021       -1.90366887689689        3.30325166013478
C            1.37712470144904       -0.74872102533751        2.81811050966982
C            2.52149331701875       -0.17739833758153        3.39379298866852
C            2.95849061756259        1.02681208890480        2.95105897606587
C            2.24288949469137        1.78498308775960        2.03503020483770
C           -2.74860936222260       -1.74497937691422        2.38401158947411
C           -3.09416315450955       -2.91614440870436        3.00571134491758
C           -2.16786021984049       -3.77788778654213        3.63251872101904
C           -0.85708937311598       -3.40495313382985        3.68547234358092
O           -3.71994433332149       -0.94984598373544        1.67726658385724
O           -2.55702603277562       -1.47241711578389       -0.57241635275616
C           -3.84297843593025        3.13357444054366       -1.60938954875544
C           -2.68769581069131       -5.03867041417370        4.30484659386931
H           -1.39666850744143        3.51251503834900       -0.76806311868865
H           -4.27662633836220        0.55105838579656       -1.33106614114542
H            2.66329581305412        2.73912661909249        1.72562431984580
H            3.05775395548473       -0.69369546277216        4.16536137542516
H           -0.24710966264510       -4.12034095424229        4.22946223699121
H           -4.11477991332403       -3.04712728052358        3.03244694615357
O           -4.21824883374556        4.03433712717988       -0.87713382485991
O           -4.44510595673734        2.90643496899600       -2.81853501752979
C           -5.44216520282800        3.83300025693726       -3.02488532025093
C            4.23586651889298        1.50004220933226        3.59165660008449
O            5.05927614697201        0.66079890002952        3.91714215179376
O            4.47001334453535        2.86385149488593        3.72605651435371
C            5.79457498613219        3.08584475587818        4.15829123132174
O           -3.82227255313510       -5.27347675879771        4.16636005494405
O           -1.85023202017753       -5.79767454267276        5.06656077253571
C           -2.55119635829503       -6.86252441382958        5.62930343183426
C           -5.07197156564436       -1.42399175670916        1.58830531863830
C           -1.33089900128490       -2.23622472573986       -0.99264499351172
H           -2.54510546830388       -7.76426885143998        4.99136022291012
H           -3.57194749219491       -6.44405511486021        5.74196173723541
H           -2.09133598235598       -7.02043774843818        6.64022264233588
H            5.72707967266424        3.46798026205549        5.10135971236643
H            6.34060091246885        3.78468702308830        3.50069950143490
H            6.17933064298187        2.03010500085905        4.19342358084693
H           -0.91862729772622       -2.57650129080332       -0.01361370304871
H           -0.49769766914251       -1.60651221708571       -1.34094446550576
H           -1.52632419730509       -2.94569707152159       -1.75361447637286
H           -5.11788846557077       -2.41810833635233        1.17520213188926
H           -5.67929807973498       -0.69619639428435        1.04301666067831
H           -5.57598832326623       -1.42383358739762        2.57928294206544
H           -6.13050215934830        3.76035386975488       -2.23272855695873
H           -5.86615610071888        3.45938329385866       -4.02668959924245
H           -5.13479557532099        4.87790991548477       -2.98314551356402
C           -1.38192942069774        3.73616555005018        2.91232598411686
C           -1.84821468128685        2.59982427735607        3.49755545445181
C           -1.05946531454833        2.05730632010638        4.60922730982276
C            0.19893954712228        2.69376791964407        4.86302140881997
C            0.50425395911860        3.94630308659851        4.28768785650746
C           -0.26031777722226        4.46998310053134        3.25072669343212
C           -1.20488993561782        0.74454293276906        5.14851520323437
C           -0.06287609782692        0.02744069315890        5.60930570802864
C            1.19208754369866        0.71421540266195        5.78882868583885
N            1.19428660993148        2.06344359410476        5.62744624321596
C           -2.41361422770794        0.07928500213936        5.25249410304426
C           -2.45851584031083       -1.32662100968547        5.60237876023992
N           -1.29466212405906       -1.98318595734370        5.89916817085159
C           -0.14475655767527       -1.32117560077092        5.98824682881008
C            0.97209270935794       -1.98958449505532        6.53157704134458
C            2.21982707914082       -1.36973967291181        6.68703967237737
C            2.30561929262884       -0.09745313075593        6.26436900324455
C           -3.73018485967715        0.71367583494582        5.25810242262992
C           -4.89964478833448       -0.06184623426677        5.21204641615509
C           -4.82617965800088       -1.39228978090841        5.46901303780036
C           -3.67144193418464       -1.98914944386360        5.67265433266067
O           -3.75568638935321        2.07705011038914        5.52067969627343
O           -2.94192434743730        1.91263938797883        3.01658762327703
C            0.21273512614467        5.50086066357994        2.34765104514621
C           -6.06660304520411       -2.17604633098929        5.80641622556876
H            1.41756699010566        4.38133362238595        4.66974005703471
H           -1.82880610647429        4.11982501512100        2.06992133318584
H            3.26888037378556        0.32655662585251        6.31721410015598
H            0.87146188387207       -3.08471526305024        6.57830423410869
H           -3.67716811065157       -3.05999292755990        5.83019634570050
H           -5.77379677507622        0.43595144608221        4.71017130754348
O            1.34459852619901        5.82615848916894        2.44941456579099
O           -0.74718748219123        6.07961784856304        1.59848183464284
C           -0.21473095568964        7.24015934882472        1.05753806029483
C            3.53228080814219       -2.00967610361154        7.02506769044485
O            3.64093082622715       -3.14437803815732        7.50071391725347
O            4.56565258381079       -1.22937033368332        6.69086985080897
C            5.72579357310716       -1.80692399125161        7.22246151275881
O           -7.04801223588612       -1.95726935745904        5.14194115322235
O           -6.01514389321278       -2.93743591896022        6.94765316328794
C           -7.21292732384718       -3.62681918543340        7.15115816329978
C           -4.95459780685163        2.65960679932188        5.86868674392943
C           -3.68284113682406        2.59129188358641        2.05479246020704
H           -7.43119628931628       -4.22607794725959        6.20622607140901
H           -8.06548455146707       -2.91765848248592        7.29781126410398
H           -7.07314693247270       -4.33087306029711        7.91223421050944
H            6.57332189837178       -1.29353136199234        6.78341268688262
H            5.74663761932316       -2.84282155125561        6.88089468184451
H            5.69426191474290       -1.72781984964892        8.29460302186842
H           -4.10481209541493        3.44288266176275        2.60483747673152
H           -4.49244774344916        1.87419893016926        1.82433103764650
H           -3.18901540870812        2.85154642679373        1.06781919454921
H           -5.55414326821421        2.76698137191684        4.93950725322359
H           -4.78658370641210        3.62090640967288        6.25983200635257
H           -5.43485580473958        1.97242995129449        6.65265772412460
H            0.89164886030839        7.38838561720231        1.13776105146914
H           -0.62894889903848        8.04195665205089        1.64837664327952
H           -0.59282546386754        7.45699159724320        0.03719083132488
116
 energy: -22.587018971677 gnorm: 0.565513889351 xtb: 6.6.1 (8d0f1dd)
C           -2.46019934863432       -0.46949914377108       -1.64941329258762
C           -1.65667361902818       -1.20488282311673       -0.73986347418049
C           -0.71674945209054       -0.49335536251710        0.12805872111870
C           -0.74109280020220        0.96233160554953        0.25024756390685
C           -1.56846387042325        1.66850342128277       -0.59529478560716
C           -2.32986756517704        1.03540617517468       -1.55352585674242
C            0.22606565459598       -1.13132107613662        1.07214469204871
C            1.47471334839467       -0.63162727647772        1.27139862444982
C            1.44400999979102        0.74085105132708        1.19253170643065
N            0.23708431799142        1.50870866194340        0.99091070657790
C           -0.26350280629255       -2.29345118365672        1.77622537310258
C            0.75994386212623       -3.12047017702404        2.43195401640671
N            2.13692524980309       -2.62003578035568        2.55114180115783
C            2.34651085894251       -1.30651790135684        2.15564240916484
C            3.52275491482897       -0.66887605938374        2.71169240594745
C            3.65738682333368        0.72456534294552        2.34650213184331
C            2.61654963307501        1.43575202774464        1.61209161192340
C           -1.59832147224706       -2.63086066512674        1.81852929016556
C           -1.95426790952841       -3.92862054599328        2.03649091183539
C           -1.01333507746813       -4.82496417283211        2.53734296958243
C            0.30403930943583       -4.40888288734103        2.57472563738626
O           -2.60657090400449       -1.68883573754497        1.63209694356714
O           -1.84245605297233       -2.63960105093632       -0.75111326798901
C           -3.02232160671416        1.74722335098845       -2.49111631748157
C           -1.30713087079644       -6.19268406399614        2.77023783875903
H           -1.32805212880603        2.75482539461511       -0.57769103789943
H           -3.27049551984739       -0.76490781968454       -2.39595378756055
H            2.71246278660986        2.54309262659093        1.52292232813570
H            4.24372723587373       -1.08418169292872        3.41955747749713
H            0.98760959312970       -5.09676609436561        2.98175343509082
H           -2.86438253900411       -4.23867421999269        1.99171393475576
O           -2.78212227245058        2.88909393592539       -2.74321775718139
O           -4.22958629907402        1.21684717853302       -3.02629541869362
C           -4.95490898179261        2.14083371509073       -3.50261820404932
C            4.96739268586364        1.56413024932197        2.66582445891334
O            5.84475085475115        1.24050388450538        3.44619687696575
O            4.92855356238215        2.78439737322717        1.97558215984549
C            5.79265006321182        3.86311386212853        2.45587698356750
O           -2.45611050368738       -6.43544367191720        2.45662264960161
O           -0.35962519008033       -7.03044659589433        3.18908342855717
C           -0.88971024776523       -8.11001423710185        3.72997503170532
C           -3.40321518605354       -1.39014895082068        2.75356737138899
C           -1.26366864224892       -3.08986223641542       -2.00460692578408
H           -1.74815484285894       -8.37010522321098        2.99745911237405
H           -1.20967413102211       -8.17233494865974        4.82698462934330
H           -0.17566004704322       -8.89439254921598        3.43793205058568
H            6.51641093766708        3.52164387464753        3.23041460639629
H            5.16279855435610        4.69393826591077        2.71522241075697
H            6.64781948751901        4.18979927783522        1.62520117335392
H           -1.87945006951753       -3.02895462373563       -2.82562969477945
H           -1.15352925907561       -4.18577199582137       -1.92676639641938
H           -0.21853196463624       -2.75927635946271       -1.88024752152683
H           -3.51267568096812       -2.30632812237088        3.25607815685975
H           -4.45674449213980       -1.33760763787133        2.40311413741834
H           -3.18381615482539       -0.55843236691288        3.42102889209455
H           -5.17785441683257        2.58503236645492       -2.46628522616381
H           -6.01247938209510        1.76672393173600       -3.73873995201184
H           -4.28910827375380        2.60871677182176       -4.22956793498298
C           -2.25383615239184        5.01083449323142        4.35252687135029
C           -2.70131105952408        3.83585287418454        4.79460087199941
C           -1.79741274900659        2.95561039268030        5.55366829455631
C           -0.43318972084712        3.37013267434832        5.59227763782573
C           -0.02912678130551        4.53460099034190        5.06280404735132
C           -0.90620267362019        5.33080056536484        4.38355903795747
C           -2.10760073629417        1.69056526293441        5.94788403819830
C           -1.08148580305548        0.74024849955231        5.98915427193771
C            0.21239258247456        1.23290705967185        5.78683053920715
N            0.58306727921554        2.49893177202967        5.76165105004635
C           -3.40721614266643        1.01816502197636        6.34148171714792
C           -3.50585719960985       -0.38198785274689        6.52045985006908
N           -2.47510246102605       -1.13695150842277        6.23947884909752
C           -1.24319212813694       -0.69414289294694        6.07388146593781
C           -0.15127228592446       -1.54483249955203        5.90107845207347
C            1.03728653153808       -1.11020184637913        5.77432825582349
C            1.25140810651205        0.29797543399482        5.76649310385387
C           -4.52119677856497        1.79656931504931        6.70670329486387
C           -5.66860314163557        1.06050485975564        6.91266305925989
C           -5.87875278399371       -0.29714973898744        6.88245793404217
C           -4.76971336068744       -1.09154353981051        6.67067579991742
O           -4.36702618849317        3.13531107507692        7.24525182147152
O           -3.99030994487222        3.21862303116484        4.59533202707185
C           -0.05663395800161        6.22406130435183        3.44584830286843
C           -7.14944135207859       -0.82451847583078        7.45752191626438
H            0.93930927612213        4.90970282742184        5.15257555064770
H           -2.80883096150619        5.48736080394116        3.51320040267075
H            2.30426571675835        0.72035500937725        5.72648713643981
H           -0.09151370554299       -2.67357042800274        6.00180474219697
H           -5.02369935474131       -2.13924487070932        6.54635298273056
H           -6.48056838771896        1.56399282075070        7.42866949642436
O            0.63184682632597        7.02214329216395        4.04961251622318
O           -0.39334550677978        6.43742220959691        2.09792797427300
C            0.05288117547671        7.82748029964972        1.83674002798081
C            2.14495705415144       -2.01742796705111        5.97573721474202
O            2.05160613445402       -3.21759536283856        5.87372739544146
O            3.34636569844057       -1.31896582636634        6.38245426824011
C            3.98658378929027       -2.21768731686523        7.15340956191206
O           -7.91160677237706       -0.00351823049985        8.05833460486544
O           -7.41214203799102       -1.95461068692486        6.96740670875030
C           -8.78052345891538       -2.06615489337267        7.28260111069466
C           -4.45609283832742        3.35375613989334        8.59607396522380
C           -4.32120725300090        3.07526344406748        3.17252539988752
H           -8.44619244667307       -2.27878747899467        8.36751703767563
H           -9.44241237009958       -2.99152956245162        7.02350378440004
H           -9.32004736053048       -1.03632761036327        7.29244092139635
H            3.35465677727185       -2.67264975847506        7.85776825542211
H            4.79191241717490       -1.65113245266974        7.52258365895925
H            4.50228000082147       -2.80549871696636        6.36345704532116
H           -5.03903632471136        2.38225974166356        3.04914033724368
H           -3.45604796040505        2.53809889507099        2.64480780143159
H           -4.41417060532808        4.06531703456452        2.74254539252409
H           -4.80013632086725        2.40866973823695        8.94413464393836
H           -5.35446240617285        4.03750453570085        8.53319519748855
H           -3.40215944286670        3.45345580499743        8.89926008799026
H           -0.39535084945726        8.44550287097424        2.58543315833391
H           -0.21263452890237        8.44998921635450        0.89344828461311
H            1.13841631946398        7.87763534089092        2.20062406434542
116
 energy: -22.596315277584 gnorm: 0.542419591332 xtb: 6.6.1 (8d0f1dd)
C           -1.96698260010736       -0.58219624250830       -1.60862389568668
C           -1.24557037682285       -1.32336165347545       -0.70233197644318
C           -0.46530965968757       -0.64778946542182        0.43735454213615
C           -0.21351693520410        0.76472446227310        0.11540470285515
C           -1.09872822481581        1.44074723489919       -0.59505264484460
C           -1.92588616030546        0.75765565742858       -1.52810034930825
C            0.41767599535671       -1.37600381151198        1.32711521081881
C            1.66291992724104       -0.73765946402313        1.64686279611742
C            1.75465011798799        0.63589390863949        1.41300589486067
N            0.76826117187761        1.34446069672233        0.85961802946576
C            0.41649835551989       -2.79831383166405        1.54970824671300
C            1.69130301287959       -3.44621733152878        1.34348316879291
N            2.88641200929098       -2.83438051476328        1.34044272146551
C            2.76361992235778       -1.48431976018780        1.71752845544518
C            3.99183685267194       -0.80994800515082        1.86771936191862
C            4.03850146370576        0.62252173507857        1.96967341093201
C            2.95767182834745        1.31154199095388        1.53829917956051
C           -0.61604625817206       -3.52567117952105        2.19959991057888
C           -0.59797618135291       -4.93291600118636        2.26459551893515
C            0.57080774279160       -5.72530286228021        1.89006019454428
C            1.83508758150476       -4.98682438747586        1.59379901766647
O           -1.63841275119024       -2.73037043602198        2.78304978796813
O           -1.35876273052186       -2.62917472881581       -0.56784282940897
C           -2.71290119078296        1.59511164522521       -2.50814957295878
C            0.91430728243654       -6.87365237567414        2.85405798057901
H           -0.81853789241069        2.49000837107224       -1.01779500553147
H           -2.59312791207245       -1.08485875570241       -2.33348660455095
H            3.10670355555867        2.34229400968431        1.27853075995739
H            5.01516568282589       -1.16052193628773        1.99252563047388
H            2.68369878455650       -5.48952015877554        1.09390326374933
H           -1.35078291759987       -5.52184803366549        2.75770840386572
O           -2.98476297863549        2.77951739344885       -2.49884197162209
O           -3.24822714406902        0.81353568196313       -3.49827630610870
C           -4.36796727279599        1.50088684544865       -3.99963685275172
C            5.30875523768216        1.30056817450887        2.08977463917082
O            6.31802138868647        0.93299445377067        2.71922711463605
O            5.23156381502465        2.36614512100431        1.22797882301705
C            6.40617871726592        3.07964134353029        1.58317356927824
O           -0.09213728448031       -7.19202987150468        3.53585679722223
O            2.19014216946120       -7.34322085476584        2.86387831960968
C            2.15791880365481       -8.65080284048337        3.40603049111198
C           -2.76258814238482       -3.28510338309262        3.38680750947426
C           -2.80605941082369       -2.90955226682412       -0.76154222563814
H            1.17045006648083       -8.99169924876090        3.64496209617512
H            2.94719448722432       -8.56253858479400        4.11390657766139
H            2.54017617545367       -9.31327781913074        2.61951001974989
H            6.52915980352747        3.36426185238409        2.58006533589436
H            6.34123367338320        4.04603767376590        1.14623678123713
H            7.26121560316757        2.47039700480719        1.32335321157241
H           -3.42484548318940       -2.03717363434490       -0.30554861188134
H           -3.11701329000300       -3.73694239149899       -0.17480289649220
H           -3.23588488013042       -3.01903175982821       -1.72992880954334
H           -2.68786693808554       -4.36866055674728        3.59444653872095
H           -3.59836193020422       -3.01490828677907        2.77295011034134
H           -2.98098333106423       -2.77823361738869        4.39025450816687
H           -4.99267852833285        1.62054938545826       -3.17315020719126
H           -4.71436231134021        0.95091201657464       -4.90960463595475
H           -4.07517122487866        2.43474456028775       -4.57401618394806
C           -2.60920496042949        5.38355580300015        4.83832463426412
C           -3.26240207461540        4.08243075699182        4.87232937779744
C           -2.44050341273059        2.88325601391854        5.04905728188014
C           -1.09043329321500        3.09917204098080        4.73702725042261
C           -0.48249606784001        4.36951598988156        4.71509215950877
C           -1.22379676901674        5.58974749138449        4.84689350927709
C           -2.77234312628730        1.53153917691692        5.67914592994260
C           -1.95213717965861        0.39100549217825        5.48062322215856
C           -0.77739190080649        0.62244361447927        4.73369261403252
N           -0.39208813728431        1.95056891590898        4.36152027710098
C           -3.76243716957784        1.27231021714055        6.56229837071063
C           -4.07061932651971       -0.02147772803837        7.09594929025552
N           -3.36406673689638       -1.13317465392894        6.59169072265682
C           -2.30501928463975       -0.87905238535441        5.87969565521390
C           -1.26862235340285       -1.87159975810608        5.94949759656697
C           -0.15139559800530       -1.55212313653136        5.12556614263380
C            0.01477140811463       -0.42607615652592        4.40598193007047
C           -4.53959139280841        2.37280011046602        7.01951392121703
C           -5.80983196103512        2.20948518477664        7.49881624320909
C           -6.24123719475021        0.88031207428444        7.50663418100198
C           -5.41278017453074       -0.25615004307086        7.65484226544199
O           -3.93473313873359        3.62698148468723        7.22431355618438
O           -4.46525004540775        3.54856772849603        4.30346482701805
C           -0.65846210591482        6.87717143404910        4.99233868402444
C           -7.67725941219956        0.53662079692691        7.54222946900280
H            0.52851390180185        4.60022063369705        4.42834625603331
H           -3.19688668275516        6.35192162958499        5.11512123998138
H            0.67091952703953       -0.16373679074054        3.65364893089444
H           -1.54864711023147       -2.75211041165392        6.40982918436311
H           -5.69206035894894       -1.17643608172363        8.16514770995142
H           -6.49343125195860        3.02278571066660        7.44233517546938
O            0.60343646964497        6.91351006949620        4.89530429640284
O           -1.60695311126660        7.90147512673915        5.00101234017941
C           -0.97569016465445        9.01328680882510        5.47285516189865
C            0.87242512215672       -2.57690713440383        5.37375326262957
O            0.63669376579113       -3.64438412143077        5.98417754298917
O            2.18905240973587       -2.20336331549159        5.16325281591210
C            3.14430080838605       -3.00338654926632        5.80100919900257
O           -8.11643928787730       -0.29655613933665        8.37568814673739
O           -8.55593709094147        1.21474385201581        6.79887648630420
C           -9.99234671731432        0.80342235078962        7.10035365757458
C           -4.94429431694466        4.70471603896094        7.36158055730903
C           -5.54009209447292        4.34444153805849        3.91357945280178
H          -10.11891879991739       -0.32540953242216        6.90126607332998
H          -10.39277641944494        1.68596909028401        6.58360077465533
H           -9.92335513406769        0.83471851178052        8.19988154376655
H            4.09308373221748       -2.39616376609265        5.77286296848885
H            3.15017459266872       -4.01003198973651        5.13690365322535
H            2.97547053224096       -3.34793949607830        6.88443060738853
H           -5.54256139003354        5.36723682524345        4.13795008586975
H           -6.45269719819026        3.93424008418009        4.16150901759483
H           -5.34013953747498        4.24160313869209        2.76058863407347
H           -4.40999260428281        5.72583111096363        7.29470747815822
H           -5.36020842131399        4.45940787989423        8.42370029944085
H           -5.55242222859426        4.59893203283775        6.46107490783497
H           -0.24830611781430        8.65607980444551        6.20386985278308
H           -1.75574391605880        9.62422037600759        5.91039767424575
H           -0.31028862294061        9.41790329626410        4.83417742808688
116
 energy: -22.562172256727 gnorm: 0.548719713275 xtb: 6.6.1 (8d0f1dd)
C           -2.10782598369328       -0.65461900146698       -0.80638573501265
C           -1.18518501188452       -1.57801520221612       -0.41967103744907
C           -0.12086056444744       -1.09842927651584        0.41475416226484
C           -0.24712366881736        0.34718054386362        0.88022816555946
C           -1.51157821699555        1.03071760429227        0.74665990517487
C           -2.29209628216698        0.54029787404488       -0.29858659180215
C            0.97450391396417       -1.76917084341374        1.14342340090113
C            2.02820432156545       -0.87562262370364        1.50372750776533
C            1.85254851216460        0.58578751697240        1.46121583280659
N            0.81406375551277        1.18987750621877        0.96335084814743
C            1.07045656185716       -3.19340702378942        1.56844658255757
C            2.32909660915291       -3.78432882883133        1.51751085692210
N            3.39738658795167       -2.94049719090633        1.73825409107563
C            3.21246557491981       -1.50270920274454        1.51853294053248
C            4.37752694582415       -0.63343017587085        1.50763782270120
C            4.34615660786902        0.68219421958303        1.51371985252082
C            3.13106336818253        1.27925262977120        1.37478633135360
C           -0.02992596830862       -3.91241595009092        2.26318691311640
C            0.31511702208196       -5.28213024176511        2.68329728063383
C            1.53855830726371       -5.90109766489956        2.37856334202092
C            2.62506829873075       -5.20679400651105        1.81324865235076
O           -1.34444055954407       -3.38069586812792        2.08150323055610
O           -0.77311472515983       -2.87716964108541       -0.85979714554359
C           -3.50829719731249        1.09524076632814       -0.82666802979773
C            1.55536116090973       -7.35288541068666        2.54890879447654
H           -1.89396403765401        1.79200556377680        1.43945961922649
H           -2.69263097384256       -0.97731116284231       -1.61279051932910
H            3.16110081252102        2.29664095328060        1.05565194738634
H            5.36156614102121       -1.16144017042116        1.69721269310546
H            3.47372918578884       -5.77532920905688        1.62015191817499
H           -0.32426103333273       -5.73370126763743        3.44199699100238
O           -4.32302570180473        1.68750714209593       -0.14586875866520