116
 energy: -22.928061455056 gnorm: 0.329736929581 xtb: 6.6.1 (8d0f1dd)
C           -3.31122850772930        0.79849766164622       -0.92477639677520
C           -2.44380812530352       -0.12270372891954       -0.27661132624697
C           -1.41337090092821        0.39579727573559        0.56335275196199
C           -0.89266158675590        1.65801491088749        0.27377586709581
C           -1.72665675402493        2.51431363229076       -0.49448366572522
C           -2.95444148494349        2.13954154133227       -1.01494489940871
C           -0.74098268209890       -0.43411532818871        1.49825021926784
C            0.56872586496315        0.03782116815119        1.86248088067890
C            1.03782416582094        1.29402317993033        1.50887470833621
N            0.31238977034758        2.07067427098208        0.65193736800696
C           -1.29695700510141       -1.39996043042223        2.41574187746061
C           -0.38243517664656       -2.18060797534842        3.13232615520648
N            0.91308504082021       -1.90366887689689        3.30325166013478
C            1.37712470144904       -0.74872102533751        2.81811050966982
C            2.52149331701875       -0.17739833758153        3.39379298866852
C            2.95849061756259        1.02681208890480        2.95105897606587
C            2.24288949469137        1.78498308775960        2.03503020483770
C           -2.74860936222260       -1.74497937691422        2.38401158947411
C           -3.09416315450955       -2.91614440870436        3.00571134491758
C           -2.16786021984049       -3.77788778654213        3.63251872101904
C           -0.85708937311598       -3.40495313382985        3.68547234358092
O           -3.71994433332149       -0.94984598373544        1.67726658385724
O           -2.55702603277562       -1.47241711578389       -0.57241635275616
C           -3.84297843593025        3.13357444054366       -1.60938954875544
C           -2.68769581069131       -5.03867041417370        4.30484659386931
H           -1.39666850744143        3.51251503834900       -0.76806311868865
H           -4.27662633836220        0.55105838579656       -1.33106614114542
H            2.66329581305412        2.73912661909249        1.72562431984580
H            3.05775395548473       -0.69369546277216        4.16536137542516
H           -0.24710966264510       -4.12034095424229        4.22946223699121
H           -4.11477991332403       -3.04712728052358        3.03244694615357
O           -4.21824883374556        4.03433712717988       -0.87713382485991
O           -4.44510595673734        2.90643496899600       -2.81853501752979
C           -5.44216520282800        3.83300025693726       -3.02488532025093
C            4.23586651889298        1.50004220933226        3.59165660008449
O            5.05927614697201        0.66079890002952        3.91714215179376
O            4.47001334453535        2.86385149488593        3.72605651435371
C            5.79457498613219        3.08584475587818        4.15829123132174
O           -3.82227255313510       -5.27347675879771        4.16636005494405
O           -1.85023202017753       -5.79767454267276        5.06656077253571
C           -2.55119635829503       -6.86252441382958        5.62930343183426
C           -5.07197156564436       -1.42399175670916        1.58830531863830
C           -1.33089900128490       -2.23622472573986       -0.99264499351172
H           -2.54510546830388       -7.76426885143998        4.99136022291012
H           -3.57194749219491       -6.44405511486021        5.74196173723541
H           -2.09133598235598       -7.02043774843818        6.64022264233588
H            5.72707967266424        3.46798026205549        5.10135971236643
H            6.34060091246885        3.78468702308830        3.50069950143490
H            6.17933064298187        2.03010500085905        4.19342358084693
H           -0.91862729772622       -2.57650129080332       -0.01361370304871
H           -0.49769766914251       -1.60651221708571       -1.34094446550576
H           -1.52632419730509       -2.94569707152159       -1.75361447637286
H           -5.11788846557077       -2.41810833635233        1.17520213188926
H           -5.67929807973498       -0.69619639428435        1.04301666067831
H           -5.57598832326623       -1.42383358739762        2.57928294206544
H           -6.13050215934830        3.76035386975488       -2.23272855695873
H           -5.86615610071888        3.45938329385866       -4.02668959924245
H           -5.13479557532099        4.87790991548477       -2.98314551356402
C           -1.38192942069774        3.73616555005018        2.91232598411686
C           -1.84821468128685        2.59982427735607        3.49755545445181
C           -1.05946531454833        2.05730632010638        4.60922730982276
C            0.19893954712228        2.69376791964407        4.86302140881997
C            0.50425395911860        3.94630308659851        4.28768785650746
C           -0.26031777722226        4.46998310053134        3.25072669343212
C           -1.20488993561782        0.74454293276906        5.14851520323437
C           -0.06287609782692        0.02744069315890        5.60930570802864
C            1.19208754369866        0.71421540266195        5.78882868583885
N            1.19428660993148        2.06344359410476        5.62744624321596
C           -2.41361422770794        0.07928500213936        5.25249410304426
C           -2.45851584031083       -1.32662100968547        5.60237876023992
N           -1.29466212405906       -1.98318595734370        5.89916817085159
C           -0.14475655767527       -1.32117560077092        5.98824682881008
C            0.97209270935794       -1.98958449505532        6.53157704134458
C            2.21982707914082       -1.36973967291181        6.68703967237737
C            2.30561929262884       -0.09745313075593        6.26436900324455
C           -3.73018485967715        0.71367583494582        5.25810242262992
C           -4.89964478833448       -0.06184623426677        5.21204641615509
C           -4.82617965800088       -1.39228978090841        5.46901303780036
C           -3.67144193418464       -1.98914944386360        5.67265433266067
O           -3.75568638935321        2.07705011038914        5.52067969627343
O           -2.94192434743730        1.91263938797883        3.01658762327703
C            0.21273512614467        5.50086066357994        2.34765104514621
C           -6.06660304520411       -2.17604633098929        5.80641622556876
H            1.41756699010566        4.38133362238595        4.66974005703471
H           -1.82880610647429        4.11982501512100        2.06992133318584
H            3.26888037378556        0.32655662585251        6.31721410015598
H            0.87146188387207       -3.08471526305024        6.57830423410869
H           -3.67716811065157       -3.05999292755990        5.83019634570050
H           -5.77379677507622        0.43595144608221        4.71017130754348
O            1.34459852619901        5.82615848916894        2.44941456579099
O           -0.74718748219123        6.07961784856304        1.59848183464284
C           -0.21473095568964        7.24015934882472        1.05753806029483
C            3.53228080814219       -2.00967610361154        7.02506769044485
O            3.64093082622715       -3.14437803815732        7.50071391725347
O            4.56565258381079       -1.22937033368332        6.69086985080897
C            5.72579357310716       -1.80692399125161        7.22246151275881
O           -7.04801223588612       -1.95726935745904        5.14194115322235
O           -6.01514389321278       -2.93743591896022        6.94765316328794
C           -7.21292732384718       -3.62681918543340        7.15115816329978
C           -4.95459780685163        2.65960679932188        5.86868674392943
C           -3.68284113682406        2.59129188358641        2.05479246020704
H           -7.43119628931628       -4.22607794725959        6.20622607140901
H           -8.06548455146707       -2.91765848248592        7.29781126410398
H           -7.07314693247270       -4.33087306029711        7.91223421050944
H            6.57332189837178       -1.29353136199234        6.78341268688262
H            5.74663761932316       -2.84282155125561        6.88089468184451
H            5.69426191474290       -1.72781984964892        8.29460302186842
H           -4.10481209541493        3.44288266176275        2.60483747673152
H           -4.49244774344916        1.87419893016926        1.82433103764650
H           -3.18901540870812        2.85154642679373        1.06781919454921
H           -5.55414326821421        2.76698137191684        4.93950725322359
H           -4.78658370641210        3.62090640967288        6.25983200635257
H           -5.43485580473958        1.97242995129449        6.65265772412460
H            0.89164886030839        7.38838561720231        1.13776105146914
H           -0.62894889903848        8.04195665205089        1.64837664327952
H           -0.59282546386754        7.45699159724320        0.03719083132488
116
 energy: -22.622515321213 gnorm: 0.522267820328 xtb: 6.6.1 (8d0f1dd)
C           -3.11020468299260        0.12564264673599       -2.31603662202075
C           -2.47977705937660       -0.62350160683369       -1.22970276178435
C           -1.58919328270781        0.11388941343745       -0.16961695578477
C           -1.14926474657338        1.29603334279087       -0.60931840064962
C           -1.69082759371840        2.03119297172320       -1.79063104986393
C           -2.69142097775922        1.48569202721328       -2.58812157480031
C           -0.96631026759558       -0.45007730412627        1.08441346600299
C            0.11114013429141        0.19773266801556        1.58072922789479
C            0.61017886277782        1.29101433916703        0.92636116398833
N           -0.06584156613006        1.85038404444774       -0.12004491542411
C           -1.56526544891214       -1.58966202680856        1.70596771115553
C           -1.03558498378789       -1.98539973797963        3.00071129720785
N           -0.08685605345634       -1.17625843867427        3.65082828120181
C            0.48263037626680       -0.26917361740595        2.86527224448326
C            1.67122091122803        0.27390060004095        3.43511109206161
C            2.33351138012123        1.15261150524707        2.62256079607486
C            1.82435906458351        1.72430488269441        1.42710581036813
C           -2.82401768928855       -2.14536578202869        1.39584284817587
C           -3.25438112884270       -3.30053704454510        2.08977330541132
C           -2.42185089307235       -3.91310147733857        3.15732786723015
C           -1.27841451696188       -3.17983693991648        3.61052549789969
O           -3.82535925571687       -1.50513754156358        0.57633467811470
O           -2.47610148854405       -2.01839105625016       -1.75726161414046
C           -3.63610519626466        2.36759005117458       -3.48851064841910
C           -3.03593495664615       -5.09480128189717        3.92373707336229
H           -1.45403218803771        3.03294334262420       -2.04469069431292
H           -3.84521936724079       -0.34146382706539       -2.83533919321342
H            2.32737031006010        2.36959768960982        0.82783717291465
H            2.28759075613980       -0.07664645165527        4.32964351068714
H           -0.64886824065730       -3.72909721379925        4.31050746217370
H           -4.11661074349093       -3.93298392971196        2.08295257645066
O           -3.17157458515658        3.37011719119077       -4.05607517063717
O           -4.92301688193662        2.04169172208644       -3.76564611516533
C           -5.60754650687697        3.32995127899636       -4.06545059478531
C            3.67698680236323        1.84675231500293        3.04555049229441
O            4.40608099502375        1.29907306884289        3.84362378941195
O            4.09326595356057        2.99870174336240        2.47041825353384
C            5.42933526503898        3.65130258061513        2.86810823200327
O           -3.67318159686421       -6.00217374223300        3.42625542834537
O           -2.80426362351825       -4.90171084176530        5.24488144606901
C           -3.33582816039711       -5.84871502028830        6.11394562083809
C           -4.95993910128406       -1.03403014892698        1.27523602236127
C           -1.46671375627460       -2.83890341800177       -1.28778572736141
H           -2.88853847228906       -5.66759268648858        7.04973593758209
H           -2.83771487732567       -6.66686976353356        5.57040416035028
H           -4.51838948175525       -5.93612736829439        6.35267011207572
H            6.23646340673057        3.21308012937879        2.21242800454798
H            5.56406929230860        3.33033483754448        3.94095615495052
H            5.30575552323033        4.76068107580182        2.97091925004836
H           -1.27803171887323       -2.48008538767612       -0.29428711148584
H           -0.53946245380714       -2.84002725092385       -1.94178283592175
H           -1.95225441535065       -3.72772662749306       -1.10812888285387
H           -5.80242004617141       -1.80442658229436        1.05754818656128
H           -5.17290237489931        0.08437181691399        1.00200466365770
H           -4.88265145857552       -1.13850554584642        2.36193113034592
H           -5.53556433288505        3.90736462595939       -3.12757495343692
H           -6.68953294431200        2.99006328375946       -3.96844700839982
H           -5.45650087992533        3.69877418252332       -5.14709386367134
C           -1.66769623240430        3.85955821906143        4.23091442753383
C           -1.89975473976150        2.69579898328344        4.95776889970429
C           -0.77504362600794        2.07015772784921        5.57681986157101
C            0.48053593548384        2.67671254114233        5.54793682211142
C            0.68669356960551        3.92606542684451        4.80410562404452
C           -0.41401098283762        4.32180613615219        4.02473045941320
C           -0.77909407544249        0.82110058732309        6.22387795172224
C            0.37049049265134        0.01153897190595        6.31162507122003
C            1.51077273897904        0.82677313933229        6.58580868438979
N            1.54747633376247        2.18733169832969        6.36950103494751
C           -2.02074180644671        0.13456933850563        6.57014879446237
C           -1.98803872799338       -1.27329498898727        6.21915226177097
N           -0.88926771198577       -2.04002367062236        6.53417445103296
C            0.19211107488860       -1.28801715611452        6.74281155216526
C            1.38024372062033       -1.85369553309634        7.02877700556370
C            2.57199334099436       -1.28769908639079        6.99147814017236
C            2.64311520606219        0.07656016562975        6.65826741685183
C           -3.28641919062116        0.71086967436718        6.94525227032413
C           -4.45998927474873        0.04696195074317        6.51681904503273
C           -4.45174963509425       -1.15605047220732        5.86501968135143
C           -3.21282013299904       -1.81781156086455        5.80677345583772
O           -3.34810055859123        1.81071624907233        7.79353605379833
O           -3.17420626869392        2.21603709192496        5.07695588244832
C           -0.12909964753150        5.32784451330450        3.00463129967537
C           -5.79253686558116       -1.65985856562319        5.58129213138644
H            1.57412316328009        4.40275613724740        4.74462584933055
H           -2.49808180386556        4.07318239064950        3.63253445846143
H            3.68648479038491        0.31389857944839        6.45696468323732
H            1.34507903970863       -2.88942106288003        7.39464113919958
H           -3.41631939487706       -2.93052548669481        5.69483914137644
H           -5.42786146705351        0.48319678436619        6.61750017552565
O            0.84641503758225        6.08782901137866        2.97346876394855
O           -1.02749395977264        5.34261737617305        2.03378706335227
C           -0.89671690288998        6.61699017115059        1.20520104859738
C            3.82827392972987       -2.10352668348371        7.46082221030981
O            4.17477190860800       -3.29199745272778        7.56594183108799
O            4.89953671394116       -1.23425543234000        7.68584916936673
C            6.01208654068790       -2.00015428453051        8.27599844641872
O           -6.79216125206538       -1.04043513932622        5.88385059898155
O           -5.68966438853407       -2.61830105711917        4.48160390546748
C           -6.89804322150514       -2.57893645794626        3.86054281098677
C           -2.06471137583954        2.15054039371770        8.37756991620407
C           -4.20491422165863        3.09287295345442        5.03240340678427
H           -7.15035298386218       -1.44994589401008        3.82141892394758
H           -7.58816436060822       -3.33901645515008        4.36712451017032
H           -6.93423495659624       -2.51406467876612        2.76419528461451
H            6.83314230485447       -1.34992855492801        8.47798854831709
H            6.36630042865247       -2.64347782409022        7.36251674219159
H            5.82134422927617       -2.51921952432753        9.16805823513697
H           -3.98082738758403        3.78021568891080        4.08715020707644
H           -4.39799115450933        3.74316392938278        5.91511434887685
H           -5.21066727692041        2.62865406170825        5.03462711691375
H           -1.58422994379581        3.02050741517471        7.68280483744463
H           -1.46328109146458        1.21190970435855        8.39695117424603
H           -2.30803292372419        2.73353163814903        9.22824890715374
H           -0.63174448783751        7.25782880530085        2.08129464553754
H           -1.87112737136705        6.96873823876307        0.92580704236203
H           -0.10134623222219        6.61391260440078        0.44758545640085
116
 energy: -22.619572580803 gnorm: 0.538417686505 xtb: 6.6.1 (8d0f1dd)
C           -2.94505973472875        0.22006566469258       -2.47129338411202
C           -2.78013123746204       -0.24649148123628       -1.11212600727632
C           -1.80345788441032        0.45391814338492       -0.32405581929242
C           -1.11347700550810        1.61258001885463       -0.88422238014447
C           -1.47250929442346        2.11516190391728       -2.22704228513177
C           -2.42362401939732        1.50696765819543       -2.95146393080037
C           -1.29700324659715       -0.01412970586406        0.96176331633365
C           -0.18665064537291        0.63280997658509        1.35026214282817
C            0.49961539254460        1.58988696266167        0.66384927067385
N            0.15782406366020        2.06795259257340       -0.48942301808225
C           -2.00722572996201       -0.86363109461115        1.97398190560003
C           -1.10862033659313       -1.53990745366582        2.79333127734738
N           -0.04679400306689       -0.96877534789603        3.28351832916526
C            0.43067965088457        0.05870798213995        2.58520761036363
C            1.56740436428594        0.80018623651717        3.19768509687978
C            2.15122137074921        1.84092650775997        2.43771294713340
C            1.60761460699366        2.16445241210883        1.11048586487391
C           -3.38810261138815       -1.30237224543485        1.89713798067392
C           -3.84433833157994       -2.39957956011585        2.59150708186325
C           -2.96060501658319       -3.09649766072166        3.38430694050449
C           -1.59167220416349       -2.73243396801550        3.46833964652213
O           -4.14879630762543       -0.51554545899513        1.13099625288214
O           -3.32446596490677       -1.49464615087849       -1.06472257167370
C           -2.95746959049522        2.06131932966779       -4.30459636879765
C           -3.28777499944843       -4.37532785986003        3.95557235618272
H           -0.83308892999056        3.01049477494085       -2.46731091136800
H           -3.43583065358096       -0.36401745502206       -3.14784345305751
H            2.12353307225259        2.89402608914153        0.62055325937551
H            1.73369923689426        0.88131573309871        4.26677295232040
H           -0.91177283101988       -3.50834802312882        3.93048554277347
H           -4.78909954418464       -2.88147633941839        2.45018739963513
O           -2.84672558406164        3.16287602400496       -4.87489284999473
O           -3.90327781167283        1.03140215879071       -4.75329067362017
C           -4.32375274149715        1.19802218251611       -6.08690757715459
C            3.35697410265041        2.62728042640947        2.97426394349582
O            4.35712053657869        1.97330561927672        3.17913592963290
O            3.23667832396742        3.93400000474928        3.07318294549598
C            4.37820776063266        4.51884921157534        3.40355616009083
O           -4.27032470976425       -4.28498964691437        4.63143351682144
O           -2.50219194325539       -5.50740907200730        3.75915758545709
C           -3.02791127225540       -6.70192098429048        4.40959831455281
C           -5.54729748032138       -0.52374655910697        1.38522885498645
C           -2.32897081865198       -2.58534930644515       -0.74096311961827
H           -2.58124700799743       -7.58875863479440        3.98018939728944
H           -4.10257274483399       -6.45167816055523        4.09710426636576
H           -3.10594962218491       -6.46799918734513        5.45447226633375
H            4.49815679450607        5.60619331470342        3.27400521125163
H            5.07787228148368        4.14950697262208        2.61541938145696
H            4.39000102287520        4.35760603347714        4.49535877041545
H           -2.44011172869609       -3.12570036876062        0.17684668440082
H           -1.31436885087482       -2.09358345082964       -0.90836859586704
H           -2.67141511846628       -3.35902778040039       -1.45574658299469
H           -6.16444020957932       -1.40844697900260        1.16465504989585
H           -6.08855763703777        0.15840381346329        0.77399765550205
H           -5.58294629282794       -0.30018335051490        2.42852848621586
H           -4.08748433609713        2.14781802977013       -6.44159859191409
H           -5.44088548931825        1.07588787670370       -6.05687715519056
H           -3.81882038248424        0.65738994777749       -6.86115037971356
C           -1.04899390953753        3.64804704190370        3.94779316515084
C           -1.44656368061509        2.38257781667242        4.44721758406810
C           -0.68491765626793        1.76391882238469        5.43847143683028
C            0.52693370609417        2.42434554988271        5.82639909500691
C            0.80154552992450        3.84331260315499        5.48431641350723
C            0.09878658167645        4.48616770422011        4.45365706637806
C           -0.90259798398560        0.39697861941012        5.99807984503919
C            0.17162647637961       -0.21718827485951        6.71807013600597
C            1.41429396981287        0.44735101910556        6.68837364007019
N            1.57678196942226        1.63776738346791        6.10133388359323
C           -2.17781078874151       -0.36648651384771        6.07288214582473
C           -2.01435676623591       -1.78370938836404        6.28714648348287
N           -0.85343964152596       -2.39200875195657        6.55218983460027
C            0.14036467585720       -1.60654480575282        7.07496545794537
C            1.43008455043058       -2.35278184567277        7.25831287564064
C            2.58689448669187       -1.64535755683054        7.22621579676029
C            2.57900322982718       -0.18717877221592        7.09241131415201
C           -3.41771577430970        0.34152686804635        6.37258850840083
C           -4.55746336967273       -0.35139691914778        6.62716608427996
C           -4.39557253735300       -1.73411229223665        6.82615959179723
C           -3.18070945528798       -2.37642564505268        6.64703486389382
O           -3.60985848534864        1.73727518227419        6.61201026222193
O           -2.41240643128359        1.88908948592727        3.72718985226691
C            0.69176164463592        5.70230658505566        3.78692648423685
C           -5.58667528741650       -2.53229134819126        7.13173844280872
H            1.69315586013426        4.20541237711747        5.78347565506673
H           -1.77014389697387        3.93133828349725        3.17572144544744
H            3.46795275216595        0.43243339773345        6.93483916922212
H            1.47261671685295       -3.45407405499280        7.60532694263435
H           -3.21923401005401       -3.41055566791471        7.03831468117036
H           -5.38142882837494        0.15694600274427        6.97128455091292
O            1.62290199137610        6.24907741290683        4.35788167255592
O            0.09890942650514        6.12726910269939        2.56820603879076
C            0.37426490081453        7.29700101740781        2.07629363032740
C            3.95169597029481       -2.26651355123656        7.10995006010006
O            3.96488061621980       -3.35703242405605        6.57952034151544
O            4.99889272298616       -1.54839274465657        7.48408898672345
C            6.19410537615801       -2.31149402475931        7.21459751706112
O           -5.44782341569180       -3.54974198470140        7.80201360181686
O           -6.73409135394416       -1.98672219768782        6.67108010799142
C           -7.68688207875138       -3.02913430118366        6.96128104205010
C           -2.84098909470977        2.57621728940131        7.44273292703791
C           -3.77453548963206        2.21546516400843        3.96867817867666
H           -8.48158274986668       -2.58547141116483        6.27575854429613
H           -8.18576903252409       -3.15678447369005        7.91535583287589
H           -7.26623388790032       -4.00416149117220        7.07614974135273
H            6.97809644435999       -1.52037516396255        7.01713504169314
H            6.10478153359837       -2.98420800906213        6.43230021452138
H            6.81001645243904       -2.67544464135752        8.15653236759037
H           -4.66421579861069        1.70826478458062        3.78584985301052
H           -4.14950563333606        3.15585889513873        3.33900112783974
H           -3.72050087297969        2.60321452163848        4.91741421270836
H           -1.87534579352163        2.33772429201609        7.39750808230596
H           -3.04223910390950        2.32882974437961        8.55689439759217
H           -3.02719554397954        3.60648073202631        7.20564180804496
H           -0.55188002546263        8.08142623143875        2.07579468462592
H            0.71217974309004        6.90028428590170        1.05167454968993
H            1.20476181052240        7.57328624485349        2.74199585315489
116
 energy: -22.696277465234 gnorm: 0.459496875607 xtb: 6.6.1 (8d0f1dd)
C           -2.45180981097158       -0.29015280293600       -2.78219642219434
C           -2.20783962599748       -0.79528133954197       -1.44093915528641
C           -1.94312037238693        0.27826068049717       -0.49115304171026
C           -1.57316339942121        1.54250463474497       -0.99129326512468
C           -2.06962703349399        1.96164960299065       -2.28680555372858
C           -2.59107900453661        1.03320451374595       -3.14771193141320
C           -1.43131248993361       -0.13190746196723        0.87304281014797
C           -0.47275202244038        0.72805131204797        1.49335463547385
C           -0.09223935886322        1.90328729910588        0.78019266814100
N           -0.76031653017212        2.35319977380435       -0.31723816621865
C           -1.70548959030843       -1.35229370222217        1.53897312955271
C           -0.93035115431475       -1.71880558734893        2.69718888443921
N           -0.04696197531044       -0.90183219841159        3.41799224776531
C            0.31448620712777        0.16756405328388        2.63399764553904
C            1.44845238851423        0.95258927605340        2.99084156935095
C            1.79734108049182        2.12852161060249        2.34676150002890
C            0.95697853543280        2.74985867292994        1.35773379720293
C           -3.08570465739871       -1.87444224558785        1.35630731128649
C           -3.25329744631592       -3.13212664135371        1.80515089952496
C           -2.30136488428300       -3.71599895672584        2.72406426821560
C           -1.25109163779798       -2.96709595269269        3.21929908721810
O           -4.01893410851299       -1.01690488240808        0.88213036429231
O           -2.42741202224528       -2.16657104520740       -1.28919101649377
C           -2.97793627353772        1.66976778296801       -4.39752594984936
C           -3.00798342255662       -4.74901428541411        3.68101437889154
H           -1.91665057346812        3.04752806568953       -2.65019587468427
H           -3.13941839025447       -0.99577293038658       -3.33099351715497
H            1.27611368287191        3.71586497903741        1.03306470847032
H            2.18578580357650        0.60677581655319        3.74518518253805
H           -0.77161097348642       -3.33921538771595        4.12018578076612
H           -4.20652397358996       -3.53674792701053        1.68161095872588
O           -2.87062789596670        2.89580912913396       -4.39486479585640