116
 energy: -22.928061455056 gnorm: 0.329736929581 xtb: 6.6.1 (8d0f1dd)
C           -3.31122850772930        0.79849766164622       -0.92477639677520
C           -2.44380812530352       -0.12270372891954       -0.27661132624697
C           -1.41337090092821        0.39579727573559        0.56335275196199
C           -0.89266158675590        1.65801491088749        0.27377586709581
C           -1.72665675402493        2.51431363229076       -0.49448366572522
C           -2.95444148494349        2.13954154133227       -1.01494489940871
C           -0.74098268209890       -0.43411532818871        1.49825021926784
C            0.56872586496315        0.03782116815119        1.86248088067890
C            1.03782416582094        1.29402317993033        1.50887470833621
N            0.31238977034758        2.07067427098208        0.65193736800696
C           -1.29695700510141       -1.39996043042223        2.41574187746061
C           -0.38243517664656       -2.18060797534842        3.13232615520648
N            0.91308504082021       -1.90366887689689        3.30325166013478
C            1.37712470144904       -0.74872102533751        2.81811050966982
C            2.52149331701875       -0.17739833758153        3.39379298866852
C            2.95849061756259        1.02681208890480        2.95105897606587
C            2.24288949469137        1.78498308775960        2.03503020483770
C           -2.74860936222260       -1.74497937691422        2.38401158947411
C           -3.09416315450955       -2.91614440870436        3.00571134491758
C           -2.16786021984049       -3.77788778654213        3.63251872101904
C           -0.85708937311598       -3.40495313382985        3.68547234358092
O           -3.71994433332149       -0.94984598373544        1.67726658385724
O           -2.55702603277562       -1.47241711578389       -0.57241635275616
C           -3.84297843593025        3.13357444054366       -1.60938954875544
C           -2.68769581069131       -5.03867041417370        4.30484659386931
H           -1.39666850744143        3.51251503834900       -0.76806311868865
H           -4.27662633836220        0.55105838579656       -1.33106614114542
H            2.66329581305412        2.73912661909249        1.72562431984580
H            3.05775395548473       -0.69369546277216        4.16536137542516
H           -0.24710966264510       -4.12034095424229        4.22946223699121
H           -4.11477991332403       -3.04712728052358        3.03244694615357
O           -4.21824883374556        4.03433712717988       -0.87713382485991
O           -4.44510595673734        2.90643496899600       -2.81853501752979
C           -5.44216520282800        3.83300025693726       -3.02488532025093
C            4.23586651889298        1.50004220933226        3.59165660008449
O            5.05927614697201        0.66079890002952        3.91714215179376
O            4.47001334453535        2.86385149488593        3.72605651435371
C            5.79457498613219        3.08584475587818        4.15829123132174
O           -3.82227255313510       -5.27347675879771        4.16636005494405
O           -1.85023202017753       -5.79767454267276        5.06656077253571
C           -2.55119635829503       -6.86252441382958        5.62930343183426
C           -5.07197156564436       -1.42399175670916        1.58830531863830
C           -1.33089900128490       -2.23622472573986       -0.99264499351172
H           -2.54510546830388       -7.76426885143998        4.99136022291012
H           -3.57194749219491       -6.44405511486021        5.74196173723541
H           -2.09133598235598       -7.02043774843818        6.64022264233588
H            5.72707967266424        3.46798026205549        5.10135971236643
H            6.34060091246885        3.78468702308830        3.50069950143490
H            6.17933064298187        2.03010500085905        4.19342358084693
H           -0.91862729772622       -2.57650129080332       -0.01361370304871
H           -0.49769766914251       -1.60651221708571       -1.34094446550576
H           -1.52632419730509       -2.94569707152159       -1.75361447637286
H           -5.11788846557077       -2.41810833635233        1.17520213188926
H           -5.67929807973498       -0.69619639428435        1.04301666067831
H           -5.57598832326623       -1.42383358739762        2.57928294206544
H           -6.13050215934830        3.76035386975488       -2.23272855695873
H           -5.86615610071888        3.45938329385866       -4.02668959924245
H           -5.13479557532099        4.87790991548477       -2.98314551356402
C           -1.38192942069774        3.73616555005018        2.91232598411686
C           -1.84821468128685        2.59982427735607        3.49755545445181
C           -1.05946531454833        2.05730632010638        4.60922730982276
C            0.19893954712228        2.69376791964407        4.86302140881997
C            0.50425395911860        3.94630308659851        4.28768785650746
C           -0.26031777722226        4.46998310053134        3.25072669343212
C           -1.20488993561782        0.74454293276906        5.14851520323437
C           -0.06287609782692        0.02744069315890        5.60930570802864
C            1.19208754369866        0.71421540266195        5.78882868583885
N            1.19428660993148        2.06344359410476        5.62744624321596
C           -2.41361422770794        0.07928500213936        5.25249410304426
C           -2.45851584031083       -1.32662100968547        5.60237876023992
N           -1.29466212405906       -1.98318595734370        5.89916817085159
C           -0.14475655767527       -1.32117560077092        5.98824682881008
C            0.97209270935794       -1.98958449505532        6.53157704134458
C            2.21982707914082       -1.36973967291181        6.68703967237737
C            2.30561929262884       -0.09745313075593        6.26436900324455
C           -3.73018485967715        0.71367583494582        5.25810242262992
C           -4.89964478833448       -0.06184623426677        5.21204641615509
C           -4.82617965800088       -1.39228978090841        5.46901303780036
C           -3.67144193418464       -1.98914944386360        5.67265433266067
O           -3.75568638935321        2.07705011038914        5.52067969627343
O           -2.94192434743730        1.91263938797883        3.01658762327703
C            0.21273512614467        5.50086066357994        2.34765104514621
C           -6.06660304520411       -2.17604633098929        5.80641622556876
H            1.41756699010566        4.38133362238595        4.66974005703471
H           -1.82880610647429        4.11982501512100        2.06992133318584
H            3.26888037378556        0.32655662585251        6.31721410015598
H            0.87146188387207       -3.08471526305024        6.57830423410869
H           -3.67716811065157       -3.05999292755990        5.83019634570050
H           -5.77379677507622        0.43595144608221        4.71017130754348
O            1.34459852619901        5.82615848916894        2.44941456579099
O           -0.74718748219123        6.07961784856304        1.59848183464284
C           -0.21473095568964        7.24015934882472        1.05753806029483
C            3.53228080814219       -2.00967610361154        7.02506769044485
O            3.64093082622715       -3.14437803815732        7.50071391725347
O            4.56565258381079       -1.22937033368332        6.69086985080897
C            5.72579357310716       -1.80692399125161        7.22246151275881
O           -7.04801223588612       -1.95726935745904        5.14194115322235
O           -6.01514389321278       -2.93743591896022        6.94765316328794
C           -7.21292732384718       -3.62681918543340        7.15115816329978
C           -4.95459780685163        2.65960679932188        5.86868674392943
C           -3.68284113682406        2.59129188358641        2.05479246020704
H           -7.43119628931628       -4.22607794725959        6.20622607140901
H           -8.06548455146707       -2.91765848248592        7.29781126410398
H           -7.07314693247270       -4.33087306029711        7.91223421050944
H            6.57332189837178       -1.29353136199234        6.78341268688262
H            5.74663761932316       -2.84282155125561        6.88089468184451
H            5.69426191474290       -1.72781984964892        8.29460302186842
H           -4.10481209541493        3.44288266176275        2.60483747673152
H           -4.49244774344916        1.87419893016926        1.82433103764650
H           -3.18901540870812        2.85154642679373        1.06781919454921
H           -5.55414326821421        2.76698137191684        4.93950725322359
H           -4.78658370641210        3.62090640967288        6.25983200635257
H           -5.43485580473958        1.97242995129449        6.65265772412460
H            0.89164886030839        7.38838561720231        1.13776105146914
H           -0.62894889903848        8.04195665205089        1.64837664327952
H           -0.59282546386754        7.45699159724320        0.03719083132488
116
 energy: -22.848306146564 gnorm: 0.382545270958 xtb: 6.6.1 (8d0f1dd)
C           -2.96147395523111        0.63140624918590       -0.98729840613920
C           -2.35829814958728       -0.41066330713562       -0.21206179691970
C           -1.43217029165586       -0.07530789795168        0.76113831930574
C           -0.90509899628262        1.23735664900023        0.74241043426020
C           -1.38247089729362        2.18700147433809       -0.18212736634398
C           -2.42071801098466        1.97306580752422       -1.01239995332718
C           -0.85232564206508       -0.84231280630248        1.87257031786060
C            0.41782867715095       -0.44345386823584        2.34583543447382
C            1.00354654402702        0.80903146674700        1.86559273396234
N            0.32948271644714        1.70225501075434        1.14544062004095
C           -1.49006140719038       -1.87167469861000        2.64607389854613
C           -0.58211969156028       -2.86804055004356        3.32486986616047
N            0.69210690626386       -2.39826332601868        3.64118298145283
C            1.16319076012294       -1.31855761484405        3.12818323107813
C            2.48163380721324       -0.84197530214383        3.37425224226489
C            3.00443957212185        0.28667872485555        2.84291148558340
C            2.21527731380161        1.25062766143423        2.33383529414798
C           -2.87523557744183       -2.29505574290905        2.46607214329443
C           -3.36264098293064       -3.46335034666858        3.03747994009176
C           -2.49746073276191       -4.33620788253300        3.62990293005077
C           -1.13533170130230       -4.08215069806126        3.74594511612583
O           -3.79073113119765       -1.39180603079448        1.94602084112626
O           -2.70142956803829       -1.74750200395202       -0.48133989805424
C           -3.15414460470622        3.10918851110167       -1.57566748481125
C           -3.14928660643006       -5.61306005228909        4.19599144329024
H           -0.90042220294391        3.13730246113997       -0.18932939555692
H           -3.71530902611729        0.20410851514052       -1.65385058734117
H            2.63009396148582        2.15675611245193        1.98831162439667
H            3.21055967406619       -1.50959312929476        3.81676344645626
H           -0.63126082467196       -4.74418492787422        4.40276207122007
H           -4.38969007255445       -3.55269754790146        3.05488734842198
O           -2.70516430793584        4.24793116083273       -1.55693072059414
O           -4.42964374040479        2.72073308644646       -2.01485551285085
C           -5.24761005984954        3.81977823323903       -2.36735452979987
C            4.46302921928621        0.58655394573288        3.18021805241742
O            5.41912481675915       -0.13691254049457        2.87018265381379
O            4.62744911695963        1.82819643638864        3.76970166768327
C            5.90432962216739        1.93010506639795        4.12381641399975
O           -4.35332086947026       -5.73636245244567        4.45172680439806
O           -2.16362444647825       -6.41531791287262        4.64599723135399
C           -2.47842305974866       -7.38344177796933        5.52035619304349
C           -5.02270444694242       -1.82750870675605        1.39366663038077
C           -1.60002807032663       -2.52113771591757       -0.86094123156495
H           -3.09917482626844       -7.05786462299161        6.29795393247767
H           -1.58082617838043       -7.88338979905249        5.80876541673583
H           -3.18069990951448       -8.17069908614662        4.98684273077440
H            6.05500750830293        2.94974063358506        4.35996518564271
H            6.52146516213119        1.77708089187585        3.25700703966184
H            6.07966714674666        1.11578646801477        4.91045949447922
H           -0.89845821684305       -1.92391375797832       -1.47683663567097
H           -1.84431542711102       -3.47610666212669       -1.44192277764736
H           -1.14843924501138       -2.86618138522301        0.01726430637270
H           -4.77004139779066       -2.57542858608303        0.72459181843632
H           -5.57049962578561       -1.04381427583679        0.77822170091360
H           -5.65288398945417       -2.14146998831095        2.22938636146071
H           -4.62801467667890        4.72663429788134       -2.20441919387380
H           -6.21841795674200        3.92412102867104       -1.76720859483888
H           -5.34664864230270        3.74029455905802       -3.52422851071131
C           -1.80944573133467        4.07231028919383        2.97800922301158
C           -2.06713021918047        2.79815023152997        3.59492242853182
C           -0.95075574132967        2.41943363676820        4.46035441763652
C            0.27360171211317        3.11716948577053        4.58100251501418
C            0.30201187083334        4.44084051988239        4.17542672865640
C           -0.66867866701134        4.88237316818894        3.24596265509461
C           -1.11260678795158        1.29573499185129        5.32309004006340
C            0.05971771206848        0.63675464559951        5.66900087580277
C            1.27159538833278        1.31825806489394        5.58816271900405
N            1.40959379589767        2.60439723014829        5.15558643219032
C           -2.35891211718494        0.57487343424033        5.73337810573580
C           -2.21931662886803       -0.82288272005126        5.92182062750001
N           -1.08644075252705       -1.54833718981802        6.09138438243890
C            0.02748787389389       -0.73190952149609        6.17901208258529
C            1.20488793009474       -1.20742277570806        6.68697234231403
C            2.42621917119297       -0.57021994597962        6.68275723849140
C            2.36665080566950        0.70119587333700        6.15456190009331
C           -3.61204011403109        1.33404115213360        5.72180470740121
C           -4.77781721863144        0.58289410238308        5.47904621292879
C           -4.69867642730026       -0.82383018697490        5.42073457267605
C           -3.50415684800269       -1.47882054084127        5.65049976050674
O           -3.72224081043637        2.83248378386730        5.95037189401753
O           -3.28592366994112        2.15643994212300        3.27893930343716
C           -0.57651449357802        6.20194488954924        2.59719869062303
C           -5.89662073033112       -1.61733511537662        5.03724728209939
H            1.14193385269933        5.06939601617361        4.48671431901155
H           -2.47000838074367        4.47319615348566        2.20522492463130
H            3.36607557256883        1.21837103754143        6.15345205491758
H            1.18773336119724       -2.19639286454304        7.09514202479277
H           -3.45906167459186       -2.49875802712363        5.20766888729807
H           -5.67648770808024        1.12097227965049        5.33593774002700
O            0.37407435817919        6.98961535061612        2.72053868890033
O           -1.66518088766707        6.41019846515631        1.78721792589596
C           -1.33769349920749        7.22201128557156        0.69541143005950
C            3.66797688383017       -1.14186254707917        7.21598044236979
O            3.64978030934306       -2.14623004957336        7.89595335915382
O            4.87551223795254       -0.56346151355500        6.74975221644994
C            5.99376514951092       -1.39511188521142        7.07738591429382
O           -6.88565493402003       -1.27219807036437        4.33968729235713
O           -5.74591272820770       -2.92541366188417        5.40267847180687
C           -6.49560049422236       -3.91312680434357        4.68961031659956
C           -4.60223957182582        3.21112105230610        7.02900746901331
C           -4.19930120910008        2.67104037192556        2.29224305025807
H           -6.92427103292764       -3.55575788097688        3.70095798877445
H           -7.36349349514776       -4.22069667812371        5.22470678011330
H           -5.82441423009920       -4.70210909721563        4.44559048196994
H            6.97358656107177       -0.85619824682942        7.04534994998745
H            5.98472968721534       -2.37421017405643        6.51180608718939
H            5.83449934350223       -1.64033579822972        8.16792051288875
H           -4.48492738788083        3.71401097561364        2.45108775080713
H           -4.96447602807040        1.91441007863162        2.04601128249979
H           -3.49531988796759        2.63306464814668        1.39622332743025
H           -5.38852489533193        3.88049007722121        6.62589324998244
H           -4.04056718903722        3.55241651208696        7.90207522408200
H           -5.02969069686987        2.24544874956296        7.27913210985310
H           -1.42447930437721        6.58168835267017       -0.11525369849411
H           -0.36336368668686        7.60837895877890        0.79659087736073
H           -2.01912691009291        8.00944221474603        0.32481123716513
116
 energy: -22.817926558866 gnorm: 0.396754032086 xtb: 6.6.1 (8d0f1dd)
C           -2.76523619001733        0.57450312613563       -0.75442362413633
C           -2.05707870055374       -0.51842249985466       -0.19317391273820
C           -0.88494980603140       -0.24265261161026        0.62202836576528
C           -0.38332683145144        1.06600787308905        0.74468378044760
C           -1.03872813801435        2.05375387902270        0.03235849582075
C           -2.28536851438979        1.86278532032713       -0.54233066623421
C           -0.42853406505077       -1.15217978226771        1.67096335404635
C            0.86662526878479       -0.94504620326346        2.16447521259776
C            1.40056623352244        0.35478197506508        1.96951377489802
N            0.66825288810384        1.37214549771542        1.45209005319612
C           -1.04227704628640       -2.30156167991399        2.32170242805166
C           -0.23988026607973       -3.35464938943622        2.92386421159679
N            1.07981645959361       -3.16274474406198        3.04948516604324
C            1.56460998361701       -1.94998209285763        2.93668782189544
C            2.80885784478446       -1.63447277989430        3.38345838768064
C            3.42582591490271       -0.37280147687515        3.14133857923418
C            2.59975199672832        0.66466246244998        2.57613351076260
C           -2.41611964253577       -2.20392107119370        2.57095256174905
C           -3.01556641889527       -3.35705045889586        3.02209160896742
C           -2.33103207717230       -4.44380216946088        3.51788905568963
C           -0.92721115534925       -4.44461321714945        3.47201311643894
O           -3.25782076963685       -1.15699749230174        2.23828116290779
O           -2.60127041398030       -1.78509449790365       -0.61341597179081
C           -3.10985300695271        3.07679232670317       -0.99656592318891
C           -3.15961700004079       -5.64189965170318        3.95294528439600
H           -0.75537787094986        3.07133528827778        0.18500803262027
H           -3.69871751675538        0.54087651518977       -1.34651830721001
H            2.96616157513247        1.64591048401466        2.45190128411347
H            3.37303750311440       -2.51911353995954        3.68152464805902
H           -0.30782098394044       -5.02427135529237        4.08855329767185
H           -4.03065937253875       -3.55916255194365        2.94915988981716
O           -3.18558410843286        4.12386145958307       -0.34323685261565
O           -3.94499556896714        2.81660296976653       -2.07857682832267
C           -4.27590754676789        4.01272756597585       -2.66756178875326
C            4.80020515049327        0.01232308661133        3.62893391512305
O            5.72009452311126       -0.78390269757400        3.58660250596961
O            4.89570125656077        1.36459317626340        3.81769050842758
C            6.24567783578702        1.77532898067693        3.68009665028408
O           -4.34831577331394       -5.58237055208019        3.84114987342172
O           -2.56598413775679       -6.85148799421914        4.24325187726344
C           -3.29604431087068       -8.07284652271169        4.24908364899803
C           -4.59192644641750       -1.40715471581448        2.68448841786117
C           -1.79695980033996       -2.51485275957368       -1.53145001303323
H           -4.16762807084961       -8.01796117620127        5.01499810217642
H           -2.67777268267561       -8.89425553917264        4.60345479895524
H           -3.65008703673856       -8.39170527484432        3.25856563246705
H            6.97257355239159        1.02421389067902        4.26231208231615
H            6.52036179160944        2.85548944333275        3.97145011325590
H            6.57124325290189        1.55814713387092        2.63230984088436
H           -1.27913730018057       -3.34950999103047       -1.04564146266616
H           -1.19363160292794       -1.65944280412450       -2.11211524279958
H           -2.59142277648238       -2.82084881081366       -2.24692997070820
H           -5.07154362772059       -1.96908668773555        1.88010488162241
H           -5.22381365750644       -0.51081277036263        2.92312529102636
H           -4.71563970466104       -2.27179480195610        3.37675630691045
H           -4.98339524579777        4.63152398728665       -2.11745041568624
H           -4.64953703304888        3.95968962566265       -3.62718737160762
H           -3.41387498932900        4.57970936779101       -2.53588644277207
C           -2.39695309898784        4.56139465534546        2.93788044982573
C           -2.46497546435939        3.23427337896598        3.42820300006769
C           -1.35422756684308        2.71213811020729        4.27944552756777
C           -0.14590014825636        3.40975165789730        4.32758298617033
C           -0.07372680919581        4.57937428640331        3.56946544484634
C           -1.15157103004686        5.23197883743018        2.98404824440269
C           -1.50499904574470        1.57540273859036        5.13481961949591
C           -0.35138301932143        1.04180802752514        5.60756623025047
C            0.88928729894742        1.79935210260662        5.54365247170869
N            1.02047473773141        2.95423540442795        4.89467640231086
C           -2.56822750724526        0.72120932871540        5.50937202301004
C           -2.39161123529278       -0.65063863116951        5.95294446578570
N           -1.23933446970879       -1.24154562511520        6.20338556582066
C           -0.21026312978876       -0.39079508718439        5.98441510242843
C            1.02398271279281       -0.88032707935290        6.25496355376921
C            2.16773976871649       -0.04513545222512        6.46261056564843
C            2.09424937548483        1.24784430940419        6.05204380522183
C           -3.93497008257831        1.20681315420531        5.48145979462227
C           -5.01210621977154        0.31263204386259        5.50800844249290
C           -4.82119764782939       -0.94483306371063        5.98257254859628
C           -3.52259591841690       -1.44082104101746        6.24285161692446
O           -4.42583002310672        2.47726632661448        5.35103405339261
O           -3.45685531688922        2.17189990783316        3.09047810637553
C           -0.84605799597423        6.33172791884806        2.02281429735818
C           -5.94435707564239       -1.95634558568969        6.04300576673026
H            0.86976918144125        4.87960816267484        3.15005702697053
H           -3.14203924060806        5.14707656638401        2.40495237481403
H            3.08686927180702        1.82016686507564        6.02802521618632
H            1.15986504374711       -1.80200926620022        6.83221562170364
H           -3.51049743575875       -2.44042577942568        6.34766144513787
H           -6.04560997254903        0.65802000760134        5.33646452649371
O            0.14141193002648        6.35154872698552        1.31678220504588
O           -1.78339760395669        7.30776151667927        1.97318591931497
C           -1.46907619758595        8.11537523659689        0.85931625495955
C            3.34413710840400       -0.66784069485467        7.05950974485199
O            3.20475534043211       -1.59588983905761        7.86228335488149
O            4.52149557359569        0.01814146742031        6.97594983803134
C            5.49492255680630       -0.86552663531791        7.57272479197373
O           -7.09319963918150       -1.74882863007311        6.43191602068159
O           -5.52312433654499       -3.14110282882582        5.54385614044027
C           -6.45720008695172       -4.04952563779587        5.69185861867887
C           -3.98474705675085        3.39555718778906        6.44779164371954
C           -4.44134178296901        2.77745433093024        2.29831992601393
H           -7.45666743036764       -3.64421971223362        5.19530978176420
H           -6.71968589778051       -4.01938319484461        6.72508044810909
H           -6.16184982674216       -4.89482460233311        5.16609605654789
H            6.46264842943797       -0.42450862142242        7.69364791096938
H            5.64682512008381       -1.72924757522700        6.92431787601944
H            5.05301454950081       -1.12740776289158        8.48224605178007
H           -5.28761150501659        2.04932437603097        2.07669400225628
H           -4.20816098353891        3.16839600528689        1.28948792871539
H           -4.98780837122497        3.52997544651299        2.83248824284499
H           -4.78804605658258        3.59207509015826        7.06770054654578
H           -3.60299892560224        4.28262534368343        5.93309264408615
H           -3.11299821560513        3.05507812087941        6.95421219085943
H           -2.38923553917358        8.78386255047287        0.59588246141829
H           -1.03875787490474        7.61366042559417       -0.10520364792073
H           -0.73122661302697        8.81736229623895        1.26498371131688
116
 energy: -22.844725036726 gnorm: 0.423195783041 xtb: 6.6.1 (8d0f1dd)
C           -2.83743167179047        0.54771368213268       -0.40253378000750
C           -2.36688032702772       -0.42902103376817        0.46107744480329
C           -1.13897946698903       -0.08611160672026        1.20939128863993
C           -0.52270346787043        1.17818126121392        0.93767125336875
C           -1.17348068280239        2.09741203612922        0.10831767188043
C           -2.38673960934541        1.80056064636986       -0.40287999588671
C           -0.53991974243758       -0.88445106358983        2.20125718724366
C            0.81031772078145       -0.67622701912637        2.51618145176299
C            1.37701842354123        0.45041068119135        2.06540909967828
N            0.76801791627023        1.45632392056258        1.33653226003078
C           -1.25853952535957       -1.98806083857278        2.72894707890765
C           -0.37549279823785       -2.98983539319945        3.29866170631099
N            0.90507901263764       -2.86127986003198        3.53857166551545
C            1.49202852471509       -1.67618235113527        3.16546908525456
C            2.78269100164967       -1.37141521891733        3.43482790916295
C            3.46379835954488       -0.29782800136338        2.92179634494961
C            2.74624319225069        0.63245541298737        2.27353548372381
C           -2.76914359589424       -2.18647805375819        2.71783830166534
C           -3.16407807470411       -3.45058986336356        3.10390283136693
C           -2.27857799301499       -4.50835126838497        3.40392815644010
C           -0.91857377678755       -4.27234989256825        3.56660398845346
O           -3.61600057762296       -1.17084318125580        2.45729033494829
O           -2.67975236040942       -1.76674803415472        0.19303083582877
C           -3.04608836527813        2.92723341041552       -1.05542510433034
C           -2.76452196608521       -5.91592417696398        3.41843767129116
H           -0.78951334938747        3.09409275327808        0.03521867567404
H           -3.63254287111015        0.29552516613228       -1.10490798157600
H            3.12068050497477        1.46739947019458        1.77445878601536
H            3.33183805036091       -1.98409206008118        4.18048753886684
H           -0.26988028479101       -5.04917403112554        3.92096188841989
H           -4.20210685956121       -3.65119891089681        2.98443879478158
O           -3.18369618845314        3.94464076395661       -0.37651872831502