      -----------------------------------------------------------      
     |                   =====================                   |     
     |                           x T B                           |     
     |                   =====================                   |     
     |                         S. Grimme                         |     
     |          Mulliken Center for Theoretical Chemistry        |     
     |                    University of Bonn                     |     
      -----------------------------------------------------------      

   * xtb version 6.6.1 (8d0f1dd) compiled by 'runner@Mac-1690902418499.local' on 2023-08-01

   xtb is free software: you can redistribute it and/or modify it under
   the terms of the GNU Lesser General Public License as published by
   the Free Software Foundation, either version 3 of the License, or
   (at your option) any later version.
   
   xtb is distributed in the hope that it will be useful,
   but WITHOUT ANY WARRANTY; without even the implied warranty of
   MERCHANTABILITY or FITNESS FOR A PARTICULAR PURPOSE.  See the
   GNU Lesser General Public License for more details.
   
   Cite this work as:
   * C. Bannwarth, E. Caldeweyher, S. Ehlert, A. Hansen, P. Pracht,
     J. Seibert, S. Spicher, S. Grimme, WIREs Comput. Mol. Sci., 2020, 11,
     e01493. DOI: 10.1002/wcms.1493
   
   for GFN2-xTB:
   * C. Bannwarth, S. Ehlert and S. Grimme., J. Chem. Theory Comput., 2019,
     15, 1652-1671. DOI: 10.1021/acs.jctc.8b01176
   for GFN1-xTB:
   * S. Grimme, C. Bannwarth, P. Shushkov, J. Chem. Theory Comput., 2017,
     13, 1989-2009. DOI: 10.1021/acs.jctc.7b00118
   for GFN0-xTB:
   * P. Pracht, E. Caldeweyher, S. Ehlert, S. Grimme, ChemRxiv, 2019, preprint.
     DOI: 10.26434/chemrxiv.8326202.v1
   for GFN-FF:
   * S. Spicher and S. Grimme, Angew. Chem. Int. Ed., 2020, 59, 15665-15673.
     DOI: 10.1002/anie.202004239
   
   for ALPB and GBSA implicit solvation:
   * S. Ehlert, M. Stahn, S. Spicher, S. Grimme, J. Chem. Theory Comput.,
     2021, 17, 4250-4261. DOI: 10.1021/acs.jctc.1c00471
   
   for DFT-D4:
   * E. Caldeweyher, C. Bannwarth and S. Grimme, J. Chem. Phys., 2017,
     147, 034112. DOI: 10.1063/1.4993215
   * E. Caldeweyher, S. Ehlert, A. Hansen, H. Neugebauer, S. Spicher,
     C. Bannwarth and S. Grimme, J. Chem. Phys., 2019, 150, 154122.
     DOI: 10.1063/1.5090222
   * E. Caldeweyher, J.-M. Mewes, S. Ehlert and S. Grimme, Phys. Chem. Chem. Phys.
     2020, 22, 8499-8512. DOI: 10.1039/D0CP00502A
   
   for sTDA-xTB:
   * S. Grimme and C. Bannwarth, J. Chem. Phys., 2016, 145, 054103.
     DOI: 10.1063/1.4959605
   
   in the mass-spec context:
   * V. Asgeirsson, C. Bauer and S. Grimme, Chem. Sci., 2017, 8, 4879.
     DOI: 10.1039/c7sc00601b
   * J. Koopman and S. Grimme, ACS Omega 2019, 4, 12, 15120-15133.
     DOI: 10.1021/acsomega.9b02011
   
   for metadynamics refer to:
   * S. Grimme, J. Chem. Theory Comput., 2019, 155, 2847-2862
     DOI: 10.1021/acs.jctc.9b00143
   
   for SPH calculations refer to:
   * S. Spicher and S. Grimme, J. Chem. Theory Comput., 2021, 17, 1701-1714
     DOI: 10.1021/acs.jctc.0c01306
   
   with help from (in alphabetical order)
   P. Atkinson, C. Bannwarth, F. Bohle, G. Brandenburg, E. Caldeweyher
   M. Checinski, S. Dohm, S. Ehlert, S. Ehrlich, I. Gerasimov, C. Hölzer
   A. Katbashev, J. Koopman, C. Lavigne, S. Lehtola, F. März, M. Müller,
   F. Musil, H. Neugebauer, J. Pisarek, C. Plett, P. Pracht, F. Pultar,
   J. Seibert, P. Shushkov, S. Spicher, M. Stahn, M. Steiner, T. Strunk,
   J. Stückrath, T. Rose, and J. Unsleber
   
 * started run on 2025/03/14 at 12:41:16.631     

           -------------------------------------------------
          |                Calculation Setup                |
           -------------------------------------------------

          program call               : xtb scoord.19 --md --gfnff --input md_settings.inp
          coordinate file            : scoord.19
          omp threads                :                     8

   ID    Z sym.   atoms
    1    6 C      1-9, 11, 12, 14-21, 24, 25, 34, 35, 38, 41-43, 59-67, 69,
                  70, 72-79, 82, 83, 92, 93, 96, 99-101
    2    7 N      10, 13, 68, 71
    3    8 O      22, 23, 32, 33, 36, 37, 39, 40, 80, 81, 90, 91, 94, 95, 97,
                  98
    4    1 H      26-31, 44-58, 84-89, 102-116

molecular fragmentation (1/2 indicates fragments):
111111111111111111111111111111111111111111111111111111111122222222222222
22222222222222222222222222222222222222222222
# atoms in fragment 1/2:    58    58
 fragment masses (1/2) :      501.47      501.47
CMA distance (Bohr)    :  11.842
constraining FC (au)   :  0.0500

          ==================== Thresholds ====================
          CN  :   150.00000
          rep :   500.00000
          disp:  2500.00000
          HB1 :   250.00000
          HB2 :   450.00000

          Pauling EN used:
          Z : 1  EN :  2.20
          Z : 6  EN :  2.55
          Z : 7  EN :  3.04
          Z : 8  EN :  3.44
          electric field strengths (au): 0.000

           ------------------------------------------------- 
          |           Force Field Initialization            |
           ------------------------------------------------- 

          distances ...
          ----------------------------------------
          generating topology and atomic info file ...
          pair mat ...
          computing topology distances matrix with Floyd-Warshall algo ...
          making topology EEQ charges ...
          #fragments for EEQ constrain: 2
          ----------------------------------------
          generating topology and atomic info file ...
          pair mat ...
          computing topology distances matrix with Floyd-Warshall algo ...
          making topology EEQ charges ...
          rings ...
          # BATM   1140
          # H in HB   42
          doing iterative Hueckel for 2 subsystem(s) ...

  atom   neighbors  erfCN metchar sp-hybrid imet pi  qest     coordinates
    1  C       3    2.82   0.00         2    0    1  -0.013   -5.573840    0.075329    0.299822
    2  C       3    2.81   0.00         2    0    1   0.104   -3.364073   -1.335581    0.439207
    3  C       3    2.85   0.00         2    0    1   0.014   -1.399382   -0.457169    2.102546
    4  C       3    2.83   0.00         2    0    1   0.068   -1.679083    1.815368    3.593676
    5  C       3    2.85   0.00         2    0    1  -0.010   -3.988386    2.958637    3.323576
    6  C       3    2.80   0.00         2    0    1   0.024   -6.090279    2.070421    1.885619
    7  C       3    2.83   0.00         2    0    1   0.003    0.970815   -1.619423    2.303248
    8  C       3    2.85   0.00         2    0    1   0.018    2.947011   -0.214964    3.145410
    9  C       3    2.84   0.00         2    0    1   0.069    2.701649    2.330593    4.106898
   10  N       2    1.95   0.00         2    0    1  -0.182    0.434325    3.325635    4.325641
   11  C       3    2.82   0.00         2    0    1   0.014    1.478310   -4.061575    1.423592
   12  C       3    2.83   0.00         2    0    1   0.068    4.123626   -4.722276    0.810592
   13  N       2    1.94   0.00         2    0    1  -0.182    6.038703   -3.098081    1.254377
   14  C       3    2.85   0.00         2    0    1   0.069    5.485245   -0.945593    2.791093
   15  C       3    2.84   0.00         2    0    1  -0.009    7.568585    0.345385    3.723610
   16  C       3    2.81   0.00         2    0    1   0.024    7.305613    2.696446    4.762072
   17  C       3    2.84   0.00         2    0    1  -0.009    4.850283    3.615660    4.824699
   18  C       3    2.80   0.00         2    0    1   0.104   -0.367304   -6.202046    1.382437
   19  C       3    2.81   0.00         2    0    1  -0.013    0.450741   -8.577696    0.454575
   20  C       3    2.81   0.00         2    0    1   0.024    2.987596   -8.930994   -0.278485
   21  C       3    2.82   0.00         2    0    1  -0.010    4.647586   -7.114558   -0.344643
   22  O       2    1.90   0.00         3    0    1  -0.326   -2.487538   -5.948262    2.980344
   23  O       2    1.89   0.00         3    0    1  -0.326   -2.752861   -3.127203   -1.229735
   24  C       3    2.87   0.00         2    0    1   0.224   -7.998556    4.095763    1.435205
   25  C       3    2.85   0.00         2    0    1   0.224    3.992093  -11.470543   -1.246329
   26  H       1    0.98   0.00         0    0    0   0.083   -3.990333    4.830825    3.985882
   27  H       1    0.97   0.00         0    0    0   0.084   -7.052447   -0.524726   -1.006397
   28  H       1    0.97   0.01         0    0    0   0.084    4.844182    5.568542    5.594336
   29  H       1    0.98   0.00         0    0    0   0.084    9.303914   -0.542343    3.456979
   30  H       1    0.97   0.01         0    0    0   0.083    6.690378   -7.258680   -0.946187
   31  H       1    0.98   0.00         0    0    0   0.084   -0.476339  -10.342731    0.495688
   32  O       1    0.98   0.00         2    0    1  -0.364   -8.045703    6.209293    2.510733
   33  O       2    1.91   0.00         3    0    1  -0.315   -9.728557    3.311931   -0.275131
   34  C       4    3.52   0.00         3    0    0   0.037  -11.039525    5.534794   -1.191620
   35  C       3    2.86   0.00         2    0    1   0.223    9.255173    3.677408    6.451364
   36  O       1    0.98   0.00         2    0    1  -0.365    8.943715    5.592917    7.634435
   37  O       2    1.92   0.00         3    0    1  -0.315   11.528643    2.489557    6.190788
   38  C       4    3.52   0.00         3    0    0   0.039   13.368571    3.598750    7.639924
   39  O       1    0.98   0.00         2    0    1  -0.364    2.556021  -13.196569   -1.688161
   40  O       2    1.92   0.00         3    0    1  -0.315    6.578756  -11.683806   -1.596039
   41  C       4    3.48   0.00         3    0    0   0.037    7.264460  -14.224627   -1.959440
   42  C       4    3.48   0.00         3    0    0   0.033   -4.934320   -7.030439    2.207394
   43  C       4    3.44   0.00         3    0    0   0.033   -4.696924   -4.291977   -3.053774
   44  H       1    0.93   0.03         0    0    0   0.079    6.628555  -15.688426   -0.315648
   45  H       1    0.97   0.01         0    0    0   0.079    9.359767  -14.474601   -2.281817
   46  H       1    0.96   0.01         0    0    0   0.079    6.372386  -14.891003   -3.794294
   47  H       1    0.98   0.00         0    0    0   0.078   13.501785    5.477514    7.690722
   48  H       1    0.95   0.02         0    0    0   0.078   15.385437    3.008491    6.935068
   49  H       1    0.97   0.00         0    0    0   0.078   13.190857    3.096518    9.618493
   50  H       1    0.97   0.01         0    0    0   0.076   -5.482059   -5.887980   -1.946957
   51  H       1    0.94   0.02         0    0    0   0.076   -3.351329   -4.481002   -4.857731
   52  H       1    0.97   0.01         0    0    0   0.076   -6.472237   -3.198590   -3.465138
   53  H       1    0.97   0.01         0    0    0   0.076   -6.121984   -5.361625    1.643836
   54  H       1    0.97   0.00         0    0    0   0.076   -5.794600   -8.298094    3.564432
   55  H       1    0.97   0.00         0    0    0   0.076   -4.714787   -8.351416    0.662512
   56  H       1    0.97   0.00         0    0    0   0.079  -11.880897    7.003489    0.005125
   57  H       1    0.96   0.01         0    0    0   0.079  -12.018972    4.850890   -2.976525
   58  H       1    0.97   0.01         0    0    0   0.079   -9.732930    6.713710   -2.367808
   59  C       3    2.82   0.00         2    0    1  -0.013   -7.497631    9.381952   11.746150
   60  C       3    2.86   0.00         2    0    1   0.104   -7.287523    7.105517   10.543802
   61  C       3    2.83   0.00         2    0    1   0.014   -5.591412    5.296815   11.374498
   62  C       3    2.99   0.00         2    0    1   0.068   -3.209648    6.166777   12.450032
   63  C       3    2.95   0.00         2    0    1  -0.010   -3.421326    8.567286   13.586006
   64  C       3    2.81   0.00         2    0    1   0.024   -5.524826   10.020096   13.543945
   65  C       3    2.83   0.00         2    0    1   0.003   -5.294295    2.767537   10.219887
   66  C       3    2.84   0.00         2    0    1   0.018   -2.957303    1.583767   10.351015
   67  C       3    2.99   0.00         2    0    1   0.069   -0.904154    2.970588   11.529315
   68  N       2    2.02   0.00         2    0    1  -0.182   -1.101093    5.189096   12.849341
   69  C       3    2.89   0.00         2    0    1   0.014   -7.218088    1.140168    9.423824
   70  C       3    2.86   0.00         2    0    1   0.068   -6.498480   -1.016151    7.903162
   71  N       2    1.94   0.00         2    0    1  -0.182   -4.204447   -2.034673    7.790431
   72  C       3    2.85   0.00         2    0    1   0.069   -2.377834   -0.903735    9.197403
   73  C       3    2.82   0.00         2    0    1  -0.009    0.117853   -1.901111    9.413934
   74  C       3    2.80   0.00         2    0    1   0.024    2.097955   -0.321555   10.472837
   75  C       3    2.81   0.00         2    0    1  -0.009    1.558998    2.038439   11.321832
   76  C       3    2.81   0.00         2    0    1   0.104   -9.352818    0.883941   11.219153
   77  C       3    2.86   0.00         2    0    1  -0.013  -11.184375   -0.483500   10.260379
   78  C       3    2.81   0.00         2    0    1   0.024  -11.038811   -2.046497    8.166148
   79  C       3    2.83   0.00         2    0    1  -0.010   -8.749452   -2.333708    7.052687
   80  O       2    1.91   0.00         3    0    1  -0.326   -9.796467    1.890868   13.683342
   81  O       2    1.91   0.00         3    0    1  -0.326   -9.019464    6.347065    8.514181
   82  C       3    2.94   0.00         2    0    1   0.224   -4.743961   12.523359   14.342491
   83  C       3    2.81   0.00         2    0    1   0.224  -12.885933   -4.176560    7.774025
   84  H       1    0.97   0.01         0    0    0   0.083   -2.012371    9.401685   14.870331
   85  H       1    0.98   0.00         0    0    0   0.084   -9.087836   10.584226   11.483257
   86  H       1    0.97   0.01         0    0    0   0.084    3.156100    2.722648   12.507974
   87  H       1    0.98   0.00         0    0    0   0.084    0.248985   -3.548925    8.418584
   88  H       1    0.96   0.01         0    0    0   0.083   -8.683125   -3.968156    5.629883
   89  H       1    0.97   0.00         0    0    0   0.084  -12.891158   -0.195592   11.402517
   90  O       1    0.98   0.00         2    0    1  -0.364   -2.554826   13.078019   14.787767
   91  O       2    1.92   0.00         3    0    1  -0.315   -6.795887   14.080239   14.808830
   92  C       4    3.53   0.00         3    0    0   0.037   -6.216995   15.750942   16.682543
   93  C       3    2.90   0.00         2    0    1   0.223    4.562436   -1.741294   10.230292
   94  O       1    0.98   0.00         2    0    1  -0.365    4.846760   -2.970605    8.445623
   95  O       2    1.91   0.00         3    0    1  -0.315    6.189931   -1.669791   12.363689
   96  C       4    3.55   0.00         3    0    0   0.039    8.000164   -3.493680   11.826941
   97  O       1    0.98   0.00         2    0    1  -0.364  -12.001301   -6.105252    7.025409
   98  O       2    1.91   0.00         3    0    1  -0.315  -15.385951   -3.903349    8.649996
   99  C       4    3.49   0.00         3    0    0   0.037  -16.546422   -6.195935    9.412094
  100  C       4    3.47   0.00         3    0    0   0.033  -10.982361    4.269265   14.033921
  101  C       4    3.53   0.00         3    0    0   0.033   -8.961538    8.264694    6.748885
  102  H       1    0.97   0.00         0    0    0   0.079  -18.583682   -5.934802    9.290867
  103  H       1    0.98   0.00         0    0    0   0.079  -15.993461   -6.741211   11.171356
  104  H       1    0.95   0.02         0    0    0   0.079  -16.103260   -7.888812    8.056326
  105  H       1    0.96   0.01         0    0    0   0.078    8.019582   -3.946088    9.712821
  106  H       1    0.97   0.01         0    0    0   0.078    7.963644   -5.017324   13.318526
  107  H       1    0.97   0.00         0    0    0   0.078    9.865189   -2.634417   11.878392
  108  H       1    0.97   0.00         0    0    0   0.076   -7.003419    8.515083    6.194688
  109  H       1    0.97   0.00         0    0    0   0.076   -9.438337    9.990862    7.782776
  110  H       1    0.98   0.00         0    0    0   0.076  -10.050658    7.642608    5.181638
  111  H       1    0.95   0.02         0    0    0   0.076  -12.630903    4.186792   15.525513
  112  H       1    0.98   0.00         0    0    0   0.076  -11.735083    5.050668   12.356861
  113  H       1    0.97   0.00         0    0    0   0.076   -9.589767    5.640448   14.616775
  114  H       1    0.97   0.00         0    0    0   0.079   -7.422834   17.383063   16.465365
  115  H       1    0.97   0.00         0    0    0   0.079   -4.163944   15.932101   16.471423
  116  H       1    0.96   0.01         0    0    0   0.079   -6.479252   15.391871   18.803047

          #atoms :   116
          #bonds :   124
          #angl  :   206
          #tors  :   302
          #nmol  :   2
          #optfrag :   2
           ------------------------------------------------- 
          |                   G F N - F F                   |
          |          A general generic force-field          |
          |                  Version 1.0.3                  | 
           ------------------------------------------------- 
          Number of HB bonds (bound hydrogen)     14911
          Number of HB bonds (unbound hydrogen)   466
          Number of XB bonds                      0

 E+G (total)                   0 d,  0 h,  0 min,  0.002 sec
 distance/D3 list               ...        0 min,  0.000 sec (  1.027%)
 non bonded repulsion           ...        0 min,  0.000 sec (  5.089%)
 dCN                            ...        0 min,  0.000 sec (  5.579%)
 EEQ energy and q               ...        0 min,  0.000 sec ( 11.310%)
 D3                             ...        0 min,  0.000 sec ( 16.515%)
 EEQ gradient                   ...        0 min,  0.000 sec (  2.930%)
 bonds                          ...        0 min,  0.000 sec (  5.345%)
 bend and torsion               ...        0 min,  0.000 sec (  5.042%)
 bonded ATM                     ...        0 min,  0.000 sec (  2.789%)
 HB/XB (incl list setup)        ...        0 min,  0.001 sec ( 44.013%)

         :::::::::::::::::::::::::::::::::::::::::::::::::::::
         ::                     SUMMARY                     ::
         :::::::::::::::::::::::::::::::::::::::::::::::::::::
         :: total energy             -22.716553279188 Eh    ::
         :: gradient norm              0.506600672181 Eh/a0 ::
         ::.................................................::
         :: bond energy              -23.506277092820 Eh    ::
         :: angle energy               0.155801543579 Eh    ::
         :: torsion energy             0.120017859933 Eh    ::
         :: repulsion energy           1.636212620423 Eh    ::
         :: electrostat energy        -0.947324563442 Eh    ::
         :: dispersion energy         -0.139334335205 Eh    ::
         :: HB energy                 -0.006404765977 Eh    ::
         :: XB energy                  0.000000000000 Eh    ::
         :: bonded atm energy         -0.029244545678 Eh    ::
         :: external energy            0.000000000000 Eh    ::
         :: add. restraining           0.000000000000 Eh    ::
         :: total charge              -0.000000000000 e     ::
         :::::::::::::::::::::::::::::::::::::::::::::::::::::

           -------------------------------------------------
          |                Property Printout                |
           -------------------------------------------------

           -------------------------------------------------
          | TOTAL ENERGY              -22.716553279188 Eh   |
          | GRADIENT NORM               0.506600672181 Eh/α |
           -------------------------------------------------
           ------------------------------------------------- 
          |               Molecular Dynamics                |
           ------------------------------------------------- 
 trajectories on xtb.trj or xtb.trj.<n>

 MD time /ps        :   20.00
 dt /fs             :    2.00
 SCC accuracy       :    2.00
 temperature /K     :  650.00
 max steps          : 10000
 block length (av.) :  2500
 dumpstep(trj) /fs  :  500.00   250
 dumpstep(coords)/fs: 1000.00   500
 H atoms mass (amu) :     4
 # deg. of freedom  :   348
 SHAKE off
 Berendsen THERMOSTAT on
         time (ps)    <Epot>      Ekin   <T>   T     Etot
      0    0.00      0.00000   0.7472    0.    0.   -21.96934
est. speed in wall clock h for 100 ps :  0.02
    200    0.40    -22.44650   0.4843  952.  879.   -22.12634
    400    0.80    -22.52236   0.4234  893.  768.   -22.20063
    600    1.20    -22.56417   0.4058  860.  736.   -22.25250
    800    1.60    -22.59092   0.3996  830.  725.   -22.28579
   1000    2.00    -22.61012   0.3876  805.  703.   -22.29730
   1200    2.40    -22.62283   0.3662  784.  665.   -22.31837
   1400    2.80    -22.63471   0.4087  770.  742.   -22.33082
   1600    3.20    -22.64408   0.3726  757.  676.   -22.34271
   1800    3.60    -22.65106   0.3570  746.  648.   -22.33336
   2000    4.00    -22.65677   0.3443  737.  625.   -22.36948
   2200    4.40    -22.66137   0.3635  729.  660.   -22.33681
   2400    4.80    -22.66510   0.3686  722.  669.   -22.36180
block <Epot> / <T> :     -22.67589  720.     drift:  0.99D+02   Tbath : 650.
   2600    5.20    -22.66875   0.3480  717.  632.   -22.37632
   2800    5.60    -22.67204   0.3449  713.  626.   -22.35849
   3000    6.00    -22.67451   0.3586  708.  651.   -22.34952
   3200    6.40    -22.67712   0.3505  705.  636.   -22.35579
   3400    6.80    -22.67921   0.3458  702.  628.   -22.37617
   3600    7.20    -22.68138   0.3624  699.  658.   -22.34892
   3800    7.60    -22.68319   0.3507  697.  636.   -22.37357
   4000    8.00    -22.68512   0.3946  695.  716.   -22.36504
   4200    8.40    -22.68702   0.3190  693.  579.   -22.36508
   4400    8.80    -22.68830   0.3253  691.  590.   -22.37160
   4600    9.20    -22.68954   0.3596  689.  653.   -22.34527
   4800    9.60    -22.69073   0.3436  687.  624.   -22.38234
   5000   10.00    -22.69213   0.3949  686.  717.   -22.35449
block <Epot> / <T> :     -22.71748  653.     drift:  0.99D+02   Tbath : 650.
   5200   10.40    -22.69319   0.3693  685.  670.   -22.35951
   5400   10.80    -22.69410   0.3917  683.  711.   -22.37210
   5600   11.20    -22.69518   0.3540  682.  642.   -22.35554
   5800   11.60    -22.69589   0.3830  681.  695.   -22.37599
   6000   12.00    -22.69676   0.3599  680.  653.   -22.36265
   6200   12.40    -22.69765   0.3564  679.  647.   -22.34659
   6400   12.80    -22.69825   0.3342  678.  607.   -22.34873
   6600   13.20    -22.69889   0.3891  677.  706.   -22.34806
   6800   13.60    -22.69931   0.3737  676.  678.   -22.34895
   7000   14.00    -22.69993   0.3488  676.  633.   -22.36226
   7200   14.40    -22.70055   0.3358  675.  609.   -22.36598
   7400   14.80    -22.70110   0.3693  674.  670.   -22.35679
block <Epot> / <T> :     -22.71980  650.     drift:  0.99D+02   Tbath : 650.
   7600   15.20    -22.70155   0.3493  674.  634.   -22.38099
   7800   15.60    -22.70236   0.3636  673.  660.   -22.36039
   8000   16.00    -22.70295   0.3329  673.  604.   -22.36587
   8200   16.40    -22.70334   0.3430  672.  623.   -22.38764
   8400   16.80    -22.70367   0.3472  671.  630.   -22.36892
   8600   17.20    -22.70389   0.3604  671.  654.   -22.35349
   8800   17.60    -22.70401   0.3528  670.  640.   -22.34172
   9000   18.00    -22.70428   0.3807  670.  691.   -22.36931
   9200   18.40    -22.70458   0.3557  669.  645.   -22.36410
   9400   18.80    -22.70486   0.3492  669.  634.   -22.33844
   9600   19.20    -22.70497   0.3929  668.  713.   -22.34043
   9800   19.60    -22.70509   0.3280  668.  595.   -22.36811
 average properties 
 Epot               :  -22.705153555465603     
 Epot (accurate SCC):  -22.707500366889327     
 Ekin               :  0.36781475135480096     
 Etot               :  -22.337338804110800     
 T                  :   667.51046958467680     
 thermostating problem
 normal exit of md()
########################################################################
[WARNING] Runtime exception occurred
-1- gfnff_setup: Could not read topology file.
########################################################################
Note: The following floating-point exceptions are signalling: IEEE_UNDERFLOW_FLAG
normal termination of xtb

------------------------------------------------------------------------
 * finished run on 2025/03/14 at 12:41:33.391     
------------------------------------------------------------------------
 total:
 * wall-time:     0 d,  0 h,  0 min, 16.760 sec
 *  cpu-time:     0 d,  0 h,  0 min, 32.039 sec
 * ratio c/w:     1.912 speedup
 SCF:
 * wall-time:     0 d,  0 h,  0 min,  0.003 sec
 *  cpu-time:     0 d,  0 h,  0 min,  0.005 sec
 * ratio c/w:     1.750 speedup
 MD:
 * wall-time:     0 d,  0 h,  0 min, 16.744 sec
 *  cpu-time:     0 d,  0 h,  0 min, 32.024 sec
 * ratio c/w:     1.913 speedup

