116
 energy: -22.928061455056 gnorm: 0.329736929581 xtb: 6.6.1 (8d0f1dd)
C           -3.31122850772930        0.79849766164622       -0.92477639677520
C           -2.44380812530352       -0.12270372891954       -0.27661132624697
C           -1.41337090092821        0.39579727573559        0.56335275196199
C           -0.89266158675590        1.65801491088749        0.27377586709581
C           -1.72665675402493        2.51431363229076       -0.49448366572522
C           -2.95444148494349        2.13954154133227       -1.01494489940871
C           -0.74098268209890       -0.43411532818871        1.49825021926784
C            0.56872586496315        0.03782116815119        1.86248088067890
C            1.03782416582094        1.29402317993033        1.50887470833621
N            0.31238977034758        2.07067427098208        0.65193736800696
C           -1.29695700510141       -1.39996043042223        2.41574187746061
C           -0.38243517664656       -2.18060797534842        3.13232615520648
N            0.91308504082021       -1.90366887689689        3.30325166013478
C            1.37712470144904       -0.74872102533751        2.81811050966982
C            2.52149331701875       -0.17739833758153        3.39379298866852
C            2.95849061756259        1.02681208890480        2.95105897606587
C            2.24288949469137        1.78498308775960        2.03503020483770
C           -2.74860936222260       -1.74497937691422        2.38401158947411
C           -3.09416315450955       -2.91614440870436        3.00571134491758
C           -2.16786021984049       -3.77788778654213        3.63251872101904
C           -0.85708937311598       -3.40495313382985        3.68547234358092
O           -3.71994433332149       -0.94984598373544        1.67726658385724
O           -2.55702603277562       -1.47241711578389       -0.57241635275616
C           -3.84297843593025        3.13357444054366       -1.60938954875544
C           -2.68769581069131       -5.03867041417370        4.30484659386931
H           -1.39666850744143        3.51251503834900       -0.76806311868865
H           -4.27662633836220        0.55105838579656       -1.33106614114542
H            2.66329581305412        2.73912661909249        1.72562431984580
H            3.05775395548473       -0.69369546277216        4.16536137542516
H           -0.24710966264510       -4.12034095424229        4.22946223699121
H           -4.11477991332403       -3.04712728052358        3.03244694615357
O           -4.21824883374556        4.03433712717988       -0.87713382485991
O           -4.44510595673734        2.90643496899600       -2.81853501752979
C           -5.44216520282800        3.83300025693726       -3.02488532025093
C            4.23586651889298        1.50004220933226        3.59165660008449
O            5.05927614697201        0.66079890002952        3.91714215179376
O            4.47001334453535        2.86385149488593        3.72605651435371
C            5.79457498613219        3.08584475587818        4.15829123132174
O           -3.82227255313510       -5.27347675879771        4.16636005494405
O           -1.85023202017753       -5.79767454267276        5.06656077253571
C           -2.55119635829503       -6.86252441382958        5.62930343183426
C           -5.07197156564436       -1.42399175670916        1.58830531863830
C           -1.33089900128490       -2.23622472573986       -0.99264499351172
H           -2.54510546830388       -7.76426885143998        4.99136022291012
H           -3.57194749219491       -6.44405511486021        5.74196173723541
H           -2.09133598235598       -7.02043774843818        6.64022264233588
H            5.72707967266424        3.46798026205549        5.10135971236643
H            6.34060091246885        3.78468702308830        3.50069950143490
H            6.17933064298187        2.03010500085905        4.19342358084693
H           -0.91862729772622       -2.57650129080332       -0.01361370304871
H           -0.49769766914251       -1.60651221708571       -1.34094446550576
H           -1.52632419730509       -2.94569707152159       -1.75361447637286
H           -5.11788846557077       -2.41810833635233        1.17520213188926
H           -5.67929807973498       -0.69619639428435        1.04301666067831
H           -5.57598832326623       -1.42383358739762        2.57928294206544
H           -6.13050215934830        3.76035386975488       -2.23272855695873
H           -5.86615610071888        3.45938329385866       -4.02668959924245
H           -5.13479557532099        4.87790991548477       -2.98314551356402
C           -1.38192942069774        3.73616555005018        2.91232598411686
C           -1.84821468128685        2.59982427735607        3.49755545445181
C           -1.05946531454833        2.05730632010638        4.60922730982276
C            0.19893954712228        2.69376791964407        4.86302140881997
C            0.50425395911860        3.94630308659851        4.28768785650746
C           -0.26031777722226        4.46998310053134        3.25072669343212
C           -1.20488993561782        0.74454293276906        5.14851520323437
C           -0.06287609782692        0.02744069315890        5.60930570802864
C            1.19208754369866        0.71421540266195        5.78882868583885
N            1.19428660993148        2.06344359410476        5.62744624321596
C           -2.41361422770794        0.07928500213936        5.25249410304426
C           -2.45851584031083       -1.32662100968547        5.60237876023992
N           -1.29466212405906       -1.98318595734370        5.89916817085159
C           -0.14475655767527       -1.32117560077092        5.98824682881008
C            0.97209270935794       -1.98958449505532        6.53157704134458
C            2.21982707914082       -1.36973967291181        6.68703967237737
C            2.30561929262884       -0.09745313075593        6.26436900324455
C           -3.73018485967715        0.71367583494582        5.25810242262992
C           -4.89964478833448       -0.06184623426677        5.21204641615509
C           -4.82617965800088       -1.39228978090841        5.46901303780036
C           -3.67144193418464       -1.98914944386360        5.67265433266067
O           -3.75568638935321        2.07705011038914        5.52067969627343
O           -2.94192434743730        1.91263938797883        3.01658762327703
C            0.21273512614467        5.50086066357994        2.34765104514621
C           -6.06660304520411       -2.17604633098929        5.80641622556876
H            1.41756699010566        4.38133362238595        4.66974005703471
H           -1.82880610647429        4.11982501512100        2.06992133318584
H            3.26888037378556        0.32655662585251        6.31721410015598
H            0.87146188387207       -3.08471526305024        6.57830423410869
H           -3.67716811065157       -3.05999292755990        5.83019634570050
H           -5.77379677507622        0.43595144608221        4.71017130754348
O            1.34459852619901        5.82615848916894        2.44941456579099
O           -0.74718748219123        6.07961784856304        1.59848183464284
C           -0.21473095568964        7.24015934882472        1.05753806029483
C            3.53228080814219       -2.00967610361154        7.02506769044485
O            3.64093082622715       -3.14437803815732        7.50071391725347
O            4.56565258381079       -1.22937033368332        6.69086985080897
C            5.72579357310716       -1.80692399125161        7.22246151275881
O           -7.04801223588612       -1.95726935745904        5.14194115322235
O           -6.01514389321278       -2.93743591896022        6.94765316328794
C           -7.21292732384718       -3.62681918543340        7.15115816329978
C           -4.95459780685163        2.65960679932188        5.86868674392943
C           -3.68284113682406        2.59129188358641        2.05479246020704
H           -7.43119628931628       -4.22607794725959        6.20622607140901
H           -8.06548455146707       -2.91765848248592        7.29781126410398
H           -7.07314693247270       -4.33087306029711        7.91223421050944
H            6.57332189837178       -1.29353136199234        6.78341268688262
H            5.74663761932316       -2.84282155125561        6.88089468184451
H            5.69426191474290       -1.72781984964892        8.29460302186842
H           -4.10481209541493        3.44288266176275        2.60483747673152
H           -4.49244774344916        1.87419893016926        1.82433103764650
H           -3.18901540870812        2.85154642679373        1.06781919454921
H           -5.55414326821421        2.76698137191684        4.93950725322359
H           -4.78658370641210        3.62090640967288        6.25983200635257
H           -5.43485580473958        1.97242995129449        6.65265772412460
H            0.89164886030839        7.38838561720231        1.13776105146914
H           -0.62894889903848        8.04195665205089        1.64837664327952
H           -0.59282546386754        7.45699159724320        0.03719083132488
116
 energy: -22.456902479487 gnorm: 0.639230491747 xtb: 6.6.1 (8d0f1dd)
C           -3.20296839276149       -0.28273302646861       -1.92521815927650
C           -2.54229086268812       -0.94416998415735       -0.88630000761418
C           -1.79316426991471       -0.14054261460613        0.02722153436012
C           -1.53715801689457        1.27068982660996       -0.45727170367374
C           -1.98433724951997        1.83765000549294       -1.58718329602137
C           -2.87101379328503        1.04394674050809       -2.25226257695802
C           -1.10275546112452       -0.66960404174417        1.11999082002025
C           -0.09853161119977        0.03336920425127        1.67217916371365
C            0.18207435517503        1.28144753803106        1.04996706352633
N           -0.41792982700566        1.98167851159742        0.06209720808632
C           -1.49817916588012       -1.80488000959185        2.03330667856618
C           -0.47864241710158       -2.56679219815582        2.63549734338833
N            0.69717194768135       -2.07385211458857        2.76124528712382
C            0.91809241527444       -0.68023845220081        2.46315560552410
C            2.21202339547950       -0.15216246408787        2.81847869592050
C            2.30600000247961        1.33166509905768        2.48567602021940
C            1.33974950712896        1.95944005543713        1.74642637559247
C           -2.88453759149416       -2.23827807769962        2.39745360205410
C           -3.00130492906594       -3.43009701668182        3.11963137734659
C           -1.95389472839313       -4.11287261080029        3.52930300888426
C           -0.69253210437985       -3.70988349365552        3.22144777295611
O           -3.83105197332142       -1.58592273259439        1.72016609826483
O           -2.60847834704931       -2.33694088241685       -0.86011289040712
C           -3.95427123959038        1.60841301018484       -2.98010617931344
C           -2.08868478871820       -5.57325009207314        3.80156263015782
H           -1.56659424951886        2.70444834716159       -2.11846890587979
H           -3.61683781136720       -1.15549033601410       -2.46261738119370
H            1.57805347922389        2.88964264995656        1.56693895063825
H            2.95919365270628       -0.74761478297269        3.31217749025996
H            0.15237733266460       -4.36145855036457        3.44924448631810
H           -3.94330528959555       -4.05518065374025        3.03091890329565
O           -4.90021204648052        2.02593987002924       -2.33300155803049
O           -3.95944337067208        1.61508687648774       -4.34002691290005
C           -4.68506224196552        2.81461963087245       -4.98424205300846
C            3.43343378856819        2.14667589186254        3.22301607071992
O            3.71444126764980        1.81564983794283        4.31708866302482
O            3.88757333087552        3.16112797825442        2.38005969462368
C            4.81565893825659        3.85245639463519        3.09362995547291
O           -3.13159579744259       -6.23632935691577        3.68755453724940
O           -0.91699966545026       -6.21653011685371        4.27910082355346
C           -0.97653495276642       -6.41496444125522        5.66713003205623
C           -5.04826305902457       -1.47241935556481        2.42556007392526
C           -1.41131248598566       -2.94203136239787       -1.25620865122442
H           -0.89615640553753       -5.56766722623011        6.37190127511938
H           -0.25812408681566       -7.32602043536853        6.11209120070080
H           -1.60271510243863       -7.16830267193372        5.78874353640219
H            4.92035332941293        4.81756193299929        2.70465571517249
H            5.85667979240249        3.44622821367407        2.93269874525601
H            4.72240782167630        3.56156411683061        4.09211944940753
H           -0.64786686996018       -2.60459936561484       -0.53903674979580
H           -1.60114910214586       -2.97177336050771       -2.28189258617471
H           -1.66144433569589       -4.03354178606288       -0.86219495322024
H           -4.71761401347787       -1.26106534855901        3.47227976943005
H           -5.61265398696510       -2.36230626100380        2.45008165627101
H           -5.84912161622715       -0.83022912187358        2.13078044035022
H           -5.54304647924688        2.86916085330127       -4.34871117235681
H           -5.17760200928825        2.88797164755305       -5.87480560580215
H           -4.03741463280411        3.71012982210280       -4.88299266690337
C           -1.22467490749040        4.25090713735180        3.83151256309524
C           -1.43362739757021        2.99717938029741        4.33779045877857
C           -0.70392993078403        2.21188121678310        5.27651239779248
C            0.58383768971194        2.78752632520375        5.61226434037623
C            0.89875191075036        4.08989934651293        5.05940191442798
C           -0.01816524778013        4.86897145440512        4.33345153972408
C           -1.02413628140479        0.95157907355766        5.74885842282888
C            0.09290211035268        0.34392560258745        6.36118337544557
C            1.35464473400315        0.96983460037482        6.48275825726077
N            1.48396018874486        2.24819217979926        6.47129100874025
C           -2.30849967137963        0.43094609519346        5.93654391346675
C           -2.36517361505165       -0.97948417573809        6.12166232796011
N           -1.21316188946650       -1.63013805276365        6.45181577239187
C           -0.03552599016362       -1.02063562878697        6.54707833912247
C            1.18195212626829       -1.73809661981005        6.54650639860432
C            2.46179477963737       -1.22401044343007        6.81933465695250
C            2.45678816672140        0.15164696637211        6.57332304887276
C           -3.46707365200297        1.24060895797933        5.99040323416066
C           -4.71215171365292        0.41578432922792        6.02016475152096
C           -4.96000339251433       -0.93474232498055        5.98672643318010
C           -3.66635488013880       -1.59487369053013        6.16963497916746
O           -3.37616652103638        2.65502011750428        6.34314592414537
O           -2.21445018509198        2.25402514522166        3.40246822095345
C            0.29354865241436        6.36222381417618        4.10150808655738
C           -6.37229207772838       -1.44751100061672        5.46212569891461
H            1.83192163429705        4.39696403050895        5.38748565468764
H           -1.53731252273490        4.55437990264166        2.93829269012809
H            3.59522126704695        0.47471063986366        6.50067507867608
H            1.19467892545493       -2.56631786876235        5.86573394020996
H           -3.62293248054067       -2.68332185128109        6.48020492242183
H           -5.54021432740737        1.07577059184929        6.22235271116951
O            1.49495869124651        6.52067854996540        3.83675493904802
O           -0.66347555708135        7.27530746342649        4.25216741549906
C           -0.33109832320082        8.54301626452443        3.68487898643369
C            3.52675565511189       -2.23194854475399        7.12444746339302
O            3.49761985095233       -2.91866178865486        8.11750366240253
O            4.42743333743816       -2.71643193233633        5.97982784924518
C            5.34845171060000       -3.80255808205768        5.95849664802269
O           -6.33438606965464       -2.17425063316832        4.52137368766604
O           -7.35865127602272       -1.08123367111944        6.28617661590640
C           -8.52002867620320       -1.65606972820231        5.85665645121433
C           -4.10170261322269        3.19855727892487        7.42690141545769
C           -2.69783916807400        2.86162822957762        2.31955602151262
H           -8.15416987657115       -2.24015729213573        5.05740061053745
H           -9.12673125124379       -0.80581593425250        5.43421076927529
H           -9.02543890552751       -2.36708081177519        6.51225379601019
H            6.41399484551140       -3.64192689183595        5.81173595988359
H            4.85018901884074       -4.73806304472908        5.47207198433324
H            5.39428759985813       -4.13242554577303        6.89472416143227
H           -2.98272818661603        2.06690386616803        1.62822870761384
H           -1.97919638054792        3.41585902419798        1.97298796108419
H           -3.73325781849465        3.47794219023509        2.47139194795167
H           -5.18458048117378        3.23449911229291        7.24567876649976
H           -3.44911501835142        3.98875287343213        7.93503478814475
H           -4.01392966484856        2.35558086403403        8.11773050869905
H            0.45229349978056        8.43898865445660        2.76869571602885
H            0.06430795934345        9.17494295582432        4.49171084678084
H           -1.29859742666300        9.11250602719874        3.12044341571160
116
 energy: -22.519381108911 gnorm: 0.603952753503 xtb: 6.6.1 (8d0f1dd)
C           -3.06329706578965       -1.20094409895447       -2.25223479765069
C           -2.50354432222391       -1.60087316384969       -1.05842011628578
C           -1.83866762865203       -0.63374697867897       -0.12533607439657
C           -1.70478565409951        0.69186785962660       -0.50587056044577
C           -2.31934956328501        1.05364004870396       -1.66303389283430
C           -3.14106550239026        0.11284387336183       -2.44502708224278
C           -1.05460234909685       -0.87157598938425        1.17125419404204
C           -0.00206328062845        0.10176175908866        1.51488187154902
C            0.06109583661286        1.43646271317651        0.91083352351316
N           -0.96592972419883        1.65109969308685        0.08546634770999
C           -1.24550647664393       -1.77815157305901        2.30497706939585
C            0.00128651428244       -2.17615236374404        2.94530891726195
N            1.07120770396809       -1.36977245090150        3.08823144405778
C            1.03836867852603       -0.24535140830918        2.41320375943165
C            2.01747129253103        0.69404198033542        2.66500321997509
C            2.04756335678685        1.97653177666147        2.05400887092651
C            0.99246861090191        2.34330377993473        1.18826424341093
C           -2.52212153151971       -2.39374720279611        2.55458055465848
C           -2.30760798442610       -3.79562566877285        3.13324748609882
C           -1.23530765708731       -4.17698361181923        3.82077157579321
C           -0.06123825200057       -3.42922589553022        3.64372558947164
O           -3.70201024689550       -1.68726644105473        2.34704998772408
O           -2.22753406332792       -3.08862058754081       -0.93998766090104
C           -3.52160013252511        0.64926665602324       -3.82391463670797
C           -1.20815976185599       -5.45178110523079        4.40148928618334
H           -2.46217471105599        2.05438174353618       -1.98778215690569
H           -3.82219285192632       -1.81012383665352       -2.67042023658764
H            0.90163221366382        3.12474076074239        0.51411381363454
H            2.51820942571894        0.70134354771837        3.48893914698373
H            0.81642929293794       -3.96314140737631        4.08076164002546
H           -3.25319132095429       -4.49277463039339        3.02555337024619
O           -2.94466148200759        1.52380843506899       -4.43435497805645
O           -4.62972298153611        0.03422330965906       -4.38287650347645
C           -4.77775944541130        0.27006169180710       -5.73837861308765
C            3.16707003295446        2.89251946669539        2.18217396520672
O            4.29415381387704        2.47656905505361        2.44796690991226
O            2.93685897527853        4.18124455661762        2.00520775199164
C            3.78322304153007        5.12547762811908        2.55404517236101
O           -1.18358508694890       -5.75611797019814        5.58897465256731
O           -1.37369797677253       -6.47828623577772        3.52214940860545
C           -1.23561135123386       -7.66538351403129        4.13324509209846
C           -4.72710711260149       -1.94696714443824        1.53189542574686
C           -0.91936405100571       -3.48211934653955       -1.37983885237658
H           -0.32605827950043       -7.78355032684319        4.69140665713357
H           -1.59926330274098       -8.24210050374050        3.22677872923494
H           -2.06577502091718       -7.66262040447728        4.81175154310736
H            3.65518617736426        5.87913227641168        1.68005522261588
H            4.66764258221252        4.67797344656649        2.84827744511566
H            3.13736656200599        5.62173361138480        3.38601063407364
H           -1.10269250528640       -4.54348655753640       -1.38633444694836
H           -0.08250946943348       -3.37976502890005       -0.67981385700430
H           -0.70141474528931       -3.43982760143710       -2.52940978549996
H           -4.78946074737379       -0.96760218625660        0.97219861929397
H           -5.45732763487925       -2.17858794790106        2.30526657037309
H           -4.46471156667319       -2.79372910832456        0.87225271541393
H           -3.93132670913918       -0.08702156122557       -6.22466984611111
H           -5.19954590741366        1.29862452852994       -5.86338864356275
H           -5.56798376925574       -0.53021145214609       -5.92023613539637
C           -1.15236626302857        4.71312859645043        5.06805841181318
C           -1.64508199189331        3.39160323978956        4.85279911036061
C           -0.72252969012749        2.39030184755393        5.33287301805308
C            0.71533333234350        2.68523654451252        5.26642001991906
C            1.28465517469620        4.02609098937517        4.95982998402320
C            0.28006394222439        4.94887081770470        5.06781674842970
C           -1.05556791503428        1.06499998265211        5.76289559183849
C           -0.11955186071572        0.13521616112546        6.00360550208539
C            1.22782372549860        0.54540105043130        6.30533733664659
N            1.58334600758217        1.85093391161608        6.05002259732594
C           -2.39388649637498        0.72225028569102        6.21389647826486
C           -2.69368970551065       -0.68983927346360        6.43330783130526
N           -1.70368956695974       -1.55453941017684        6.29375497059932
C           -0.41940199961956       -1.19994727110233        6.09329539939812
C            0.61444195112489       -2.19519810678894        6.06261837451521
C            1.90132803723343       -1.70825520568627        6.10011098968520
C            2.15987196519469       -0.37595861733014        6.49325981126750
C           -3.51168434746893        1.60192460216947        6.45747324670950
C           -4.88614335266710        1.27337596638233        6.52956668310404
C           -5.15505597821986       -0.15946513673899        6.54999225950138
C           -4.00408556622812       -1.08666219077072        6.58833246626492
O           -3.58044934349123        3.01752855755389        7.05260471593292
O           -2.89603486691610        3.25908779393315        4.14305095154394
C            0.71704748185697        6.29386381487891        5.22747839420594
C           -6.42745677941668       -0.67487851276107        5.86349894721410
H            2.29733400383953        4.21817492797623        5.04507426798226
H           -1.85134018604144        5.38037510983965        4.91607855059510
H            3.13170817193258       -0.00564638913590        6.31172512266932
H            0.52442205336601       -3.23387866749289        6.30323693133132
H           -4.23890096485336       -2.11670673966312        6.49795647120474
H           -5.46453405883205        1.97614712916378        6.02620036709184
O            1.84571949400627        6.76678857092358        4.94023452138841
O           -0.30132864553995        7.14271607686798        5.46922648465297
C           -0.09920552385619        8.40917214730163        5.89582756033535
C            2.83514876770468       -2.91722658746986        5.88007442770352
O            2.62148480054024       -3.90618028457517        5.23404928905365
O            3.97937707237049       -2.91481623878952        6.68558767726712
C            4.79494019176678       -4.16873024390374        6.58841030651056
O           -6.36482025727011       -1.51905654407254        4.95558465764468
O           -7.68033314168187       -0.40702966236570        6.42735039418386
C           -8.54802784879293       -0.30264865126291        5.48881847203564
C           -2.66258803020187        3.57416940473343        8.06195386985184
C           -3.28336022373560        4.42027308706188        3.51854246648010
H           -8.19638865535566        0.57330033075138        4.87790025909504
H           -9.40146337731439       -0.03517746292000        6.14524163646925
H           -8.59095058191486       -1.40782097342645        5.05621390845697
H            5.74672969581137       -4.02551422779535        6.98790873075449
H            4.75205780369335       -4.42673609836790        5.56325736049749
H            4.32425568147646       -4.91720612432344        7.36647321047696
H           -3.59318200384557        5.31724675849482        4.24754332064155
H           -4.17202343912771        4.38753906574511        2.86628764147170
H           -2.67529599564379        4.52228346174495        2.73797949088141
H           -1.66496538879862        3.03414111216971        8.11963891472993
H           -3.32373944477460        3.39468613354761        8.91884244113347
H           -2.64571261623535        4.68270145399975        7.99230151999635
H            0.20806462151999        9.04571195318205        5.07486307819491
H            0.72647280110076        8.62771402136552        6.36800585978709
H           -0.87904500486383        8.65436556533549        6.50563743094845
116
 energy: -22.506056862467 gnorm: 0.588326611583 xtb: 6.6.1 (8d0f1dd)
C           -2.82340138939358       -1.41614325239000       -2.36225005015978
C           -1.89253064978595       -1.73966225297548       -1.33788427813941
C           -1.35033110122616       -0.64962918767654       -0.67976086470550
C           -1.72053751583319        0.66693052358033       -1.05578680724767
C           -2.60769785422093        0.96772586562003       -2.16542664705961
C           -3.05047686158537       -0.09940800137754       -2.83773615586234
C           -0.37194605174509       -0.86075125239837        0.37811303070134
C            0.20100130311343        0.32799882314241        0.86537593487147
C           -0.16203202387315        1.74160985316317        0.39946941412914
N           -1.00007612656851        1.87995296646762       -0.74283915396962
C           -0.57469210914691       -1.80221791899468        1.41157784949461
C            0.63306603455017       -2.07386100589907        2.23708755678852
N            1.59961997085665       -1.02811329756238        2.40783218446493
C            1.27740312231278        0.28884113837560        1.86776595017987
C            2.03075076461303        1.46268668495272        2.25275652068130
C            1.70910597477919        2.69029126264851        1.71728303610956
C            0.63637579132405        2.86165447744655        0.77640735612600
C           -1.61382239208183       -2.66041553027097        1.60773089374773
C           -1.47887100956067       -3.75158729575733        2.39291824970516
C           -0.31084694139400       -4.25737801830158        2.95490987807988
C            0.66794536630257       -3.27601633076530        2.84046375842005
O           -2.83579400843704       -2.12882533455361        0.95366978511703
O           -1.20142085459260       -3.01716861073802       -1.23671103779125
C           -4.19185918421125        0.05846774347846       -3.85072492570586
C            0.00374897003248       -5.53144803676759        3.82969661184063
H           -2.50145971895741        1.98663336685514       -2.55668025875212
H           -3.59044771388612       -2.06625330952943       -2.75137108279489
H            0.36101677274048        3.95620533642572        0.46985714554152
H            2.96087679008189        1.46069664415592        2.80273839925663
H            1.50155807745766       -3.59927840284360        3.29852480777361
H           -2.46853419226115       -4.34509210396156        2.52927290739563
O           -4.61902815243223        1.09900056842319       -4.29554665270076