116
 energy: -22.928061455056 gnorm: 0.329736929581 xtb: 6.6.1 (8d0f1dd)
C           -3.31122850772930        0.79849766164622       -0.92477639677520
C           -2.44380812530352       -0.12270372891954       -0.27661132624697
C           -1.41337090092821        0.39579727573559        0.56335275196199
C           -0.89266158675590        1.65801491088749        0.27377586709581
C           -1.72665675402493        2.51431363229076       -0.49448366572522
C           -2.95444148494349        2.13954154133227       -1.01494489940871
C           -0.74098268209890       -0.43411532818871        1.49825021926784
C            0.56872586496315        0.03782116815119        1.86248088067890
C            1.03782416582094        1.29402317993033        1.50887470833621
N            0.31238977034758        2.07067427098208        0.65193736800696
C           -1.29695700510141       -1.39996043042223        2.41574187746061
C           -0.38243517664656       -2.18060797534842        3.13232615520648
N            0.91308504082021       -1.90366887689689        3.30325166013478
C            1.37712470144904       -0.74872102533751        2.81811050966982
C            2.52149331701875       -0.17739833758153        3.39379298866852
C            2.95849061756259        1.02681208890480        2.95105897606587
C            2.24288949469137        1.78498308775960        2.03503020483770
C           -2.74860936222260       -1.74497937691422        2.38401158947411
C           -3.09416315450955       -2.91614440870436        3.00571134491758
C           -2.16786021984049       -3.77788778654213        3.63251872101904
C           -0.85708937311598       -3.40495313382985        3.68547234358092
O           -3.71994433332149       -0.94984598373544        1.67726658385724
O           -2.55702603277562       -1.47241711578389       -0.57241635275616
C           -3.84297843593025        3.13357444054366       -1.60938954875544
C           -2.68769581069131       -5.03867041417370        4.30484659386931
H           -1.39666850744143        3.51251503834900       -0.76806311868865
H           -4.27662633836220        0.55105838579656       -1.33106614114542
H            2.66329581305412        2.73912661909249        1.72562431984580
H            3.05775395548473       -0.69369546277216        4.16536137542516
H           -0.24710966264510       -4.12034095424229        4.22946223699121
H           -4.11477991332403       -3.04712728052358        3.03244694615357
O           -4.21824883374556        4.03433712717988       -0.87713382485991
O           -4.44510595673734        2.90643496899600       -2.81853501752979
C           -5.44216520282800        3.83300025693726       -3.02488532025093
C            4.23586651889298        1.50004220933226        3.59165660008449
O            5.05927614697201        0.66079890002952        3.91714215179376
O            4.47001334453535        2.86385149488593        3.72605651435371
C            5.79457498613219        3.08584475587818        4.15829123132174
O           -3.82227255313510       -5.27347675879771        4.16636005494405
O           -1.85023202017753       -5.79767454267276        5.06656077253571
C           -2.55119635829503       -6.86252441382958        5.62930343183426
C           -5.07197156564436       -1.42399175670916        1.58830531863830
C           -1.33089900128490       -2.23622472573986       -0.99264499351172
H           -2.54510546830388       -7.76426885143998        4.99136022291012
H           -3.57194749219491       -6.44405511486021        5.74196173723541
H           -2.09133598235598       -7.02043774843818        6.64022264233588
H            5.72707967266424        3.46798026205549        5.10135971236643
H            6.34060091246885        3.78468702308830        3.50069950143490
H            6.17933064298187        2.03010500085905        4.19342358084693
H           -0.91862729772622       -2.57650129080332       -0.01361370304871
H           -0.49769766914251       -1.60651221708571       -1.34094446550576
H           -1.52632419730509       -2.94569707152159       -1.75361447637286
H           -5.11788846557077       -2.41810833635233        1.17520213188926
H           -5.67929807973498       -0.69619639428435        1.04301666067831
H           -5.57598832326623       -1.42383358739762        2.57928294206544
H           -6.13050215934830        3.76035386975488       -2.23272855695873
H           -5.86615610071888        3.45938329385866       -4.02668959924245
H           -5.13479557532099        4.87790991548477       -2.98314551356402
C           -1.38192942069774        3.73616555005018        2.91232598411686
C           -1.84821468128685        2.59982427735607        3.49755545445181
C           -1.05946531454833        2.05730632010638        4.60922730982276
C            0.19893954712228        2.69376791964407        4.86302140881997
C            0.50425395911860        3.94630308659851        4.28768785650746
C           -0.26031777722226        4.46998310053134        3.25072669343212
C           -1.20488993561782        0.74454293276906        5.14851520323437
C           -0.06287609782692        0.02744069315890        5.60930570802864
C            1.19208754369866        0.71421540266195        5.78882868583885
N            1.19428660993148        2.06344359410476        5.62744624321596
C           -2.41361422770794        0.07928500213936        5.25249410304426
C           -2.45851584031083       -1.32662100968547        5.60237876023992
N           -1.29466212405906       -1.98318595734370        5.89916817085159
C           -0.14475655767527       -1.32117560077092        5.98824682881008
C            0.97209270935794       -1.98958449505532        6.53157704134458
C            2.21982707914082       -1.36973967291181        6.68703967237737
C            2.30561929262884       -0.09745313075593        6.26436900324455
C           -3.73018485967715        0.71367583494582        5.25810242262992
C           -4.89964478833448       -0.06184623426677        5.21204641615509
C           -4.82617965800088       -1.39228978090841        5.46901303780036
C           -3.67144193418464       -1.98914944386360        5.67265433266067
O           -3.75568638935321        2.07705011038914        5.52067969627343
O           -2.94192434743730        1.91263938797883        3.01658762327703
C            0.21273512614467        5.50086066357994        2.34765104514621
C           -6.06660304520411       -2.17604633098929        5.80641622556876
H            1.41756699010566        4.38133362238595        4.66974005703471
H           -1.82880610647429        4.11982501512100        2.06992133318584
H            3.26888037378556        0.32655662585251        6.31721410015598
H            0.87146188387207       -3.08471526305024        6.57830423410869
H           -3.67716811065157       -3.05999292755990        5.83019634570050
H           -5.77379677507622        0.43595144608221        4.71017130754348
O            1.34459852619901        5.82615848916894        2.44941456579099
O           -0.74718748219123        6.07961784856304        1.59848183464284
C           -0.21473095568964        7.24015934882472        1.05753806029483
C            3.53228080814219       -2.00967610361154        7.02506769044485
O            3.64093082622715       -3.14437803815732        7.50071391725347
O            4.56565258381079       -1.22937033368332        6.69086985080897
C            5.72579357310716       -1.80692399125161        7.22246151275881
O           -7.04801223588612       -1.95726935745904        5.14194115322235
O           -6.01514389321278       -2.93743591896022        6.94765316328794
C           -7.21292732384718       -3.62681918543340        7.15115816329978
C           -4.95459780685163        2.65960679932188        5.86868674392943
C           -3.68284113682406        2.59129188358641        2.05479246020704
H           -7.43119628931628       -4.22607794725959        6.20622607140901
H           -8.06548455146707       -2.91765848248592        7.29781126410398
H           -7.07314693247270       -4.33087306029711        7.91223421050944
H            6.57332189837178       -1.29353136199234        6.78341268688262
H            5.74663761932316       -2.84282155125561        6.88089468184451
H            5.69426191474290       -1.72781984964892        8.29460302186842
H           -4.10481209541493        3.44288266176275        2.60483747673152
H           -4.49244774344916        1.87419893016926        1.82433103764650
H           -3.18901540870812        2.85154642679373        1.06781919454921
H           -5.55414326821421        2.76698137191684        4.93950725322359
H           -4.78658370641210        3.62090640967288        6.25983200635257
H           -5.43485580473958        1.97242995129449        6.65265772412460
H            0.89164886030839        7.38838561720231        1.13776105146914
H           -0.62894889903848        8.04195665205089        1.64837664327952
H           -0.59282546386754        7.45699159724320        0.03719083132488
116
 energy: -22.624971703172 gnorm: 0.527583247079 xtb: 6.6.1 (8d0f1dd)
C           -2.88455674452554        0.76551723869650       -1.90399022321592
C           -2.34699958579874       -0.08145115872263       -0.85273320867630
C           -1.71051933384936        0.47780886037110        0.26192824841215
C           -1.27418378450439        1.85989764080933        0.09681392731361
C           -1.94543842121336        2.68199783622047       -0.79601230680256
C           -2.78023473847101        2.15930400629929       -1.81049269715168
C           -1.07067170475581       -0.11683268098835        1.41517118941870
C            0.08154328524343        0.40660573726128        1.95283954192479
C            0.55165313089637        1.64452961717526        1.50611184500027
N           -0.07060774879944        2.32743494057941        0.61951235221028
C           -1.55307559088289       -1.24759065416561        2.04074569599880
C           -0.70252785732061       -1.98963901131582        3.02064751704515
N            0.59313202267564       -1.51426420804264        3.25641287977144
C            0.97416495208323       -0.39862733443906        2.74385250988027
C            2.20668504709344        0.08866152806035        3.09530335525027
C            2.55762471209514        1.34977893136230        2.69230813693176
C            1.72029653173350        2.13831734469812        1.97668175265212
C           -2.85254710543203       -1.59229571490223        1.84871332138075
C           -3.30018468406964       -2.88349613088813        2.24467640561114
C           -2.34178519158367       -3.81959657142387        2.84270815770402
C           -1.04152887260826       -3.32634999879362        3.19444978313171
O           -3.81453893898835       -0.80919320415266        1.34346661593764
O           -2.34065906064354       -1.52380879354427       -1.06235614534682
C           -3.30660901043429        3.08769294874147       -2.83259162119283
C           -2.63029113476513       -5.28442004588198        3.31816700713756
H           -1.65619892371693        3.81372810797727       -0.96422500271660
H           -3.36471156043002        0.19783835659550       -2.70478876901472
H            1.94241906254139        3.13159672607263        1.57480652818232
H            2.99016592831155       -0.47427139247307        3.57848084817229
H           -0.28826066411470       -3.81905392520911        3.76993577188951
H           -4.34837523017877       -3.01249561616497        2.27207175402384
O           -3.15400474266715        4.27034060988858       -2.48162592717760
O           -3.89309972338097        2.66680255012557       -4.00723622514488
C           -5.05349956926965        3.46778480476310       -4.42243258438214
C            3.85486134728115        1.58612740892855        3.48292457037632
O            4.44051892913670        0.84749676979029        4.30097693982388
O            4.53736101094452        2.73728201831702        3.14303621803981
C            5.81039465085866        2.69527459883017        3.71072032057051
O           -2.74587516076399       -6.14619689539470        2.40922454086080
O           -2.38075324392617       -5.46211516610890        4.67904428985576
C           -3.12069093882356       -6.48566355054171        5.28301768117024
C           -4.78864416918571       -1.27792456450018        0.49163064855864
C           -1.25729882733598       -2.03668338975158       -1.72756461667491
H           -2.61450797179283       -6.55284242145586        6.26342044649981
H           -3.21752483461431       -7.55271711784382        4.95340442128319
H           -4.22745909800625       -6.12185053247035        5.44267361269957
H            6.13187812630051        3.33930696035536        4.53847965471541
H            6.56565252972530        2.98731554200181        3.10128248253627
H            6.01917783986498        1.73497045060196        3.84804099497451
H           -0.80478413584775       -2.55016043261501       -0.80385538664184
H           -0.79050821812150       -1.36788256183856       -2.45016433635276
H           -1.54203416069888       -2.95010120093283       -2.16361536944553
H           -4.20685985652729       -1.65276279866359       -0.34590452659785
H           -5.31124331076248       -0.48582240435981        0.22453697693298
H           -5.32149147631516       -2.05735531211575        0.95425344381151
H           -5.10905835965791        4.15355681043742       -3.67399762092938
H           -6.03811379059070        2.95912323151270       -4.60291742992310
H           -5.06809855525133        3.75127927607236       -5.46862867414174
C           -1.85724706996352        3.71113065769860        3.49142857425721
C           -2.01814087584587        2.41728676578300        4.05602673268051
C           -0.99677804195059        1.88770902148551        4.95685588840212
C            0.22319121020243        2.62532026163649        5.11972262531707
C            0.29350176566696        3.83154889025412        4.53190305752354
C           -0.67431409725756        4.37056590648430        3.76171113809008
C           -1.18794282062042        0.78729221871964        5.90162261947652
C           -0.03311632278559       -0.05583871007439        6.42035018330633
C            1.08925558822329        0.60570228565821        6.11177624130329
N            1.31033406399644        1.91591575384221        5.72064610575777
C           -2.45101909823493        0.16775579233250        6.38096900144148
C           -2.39484021626871       -1.29481248717553        6.72617819168654
N           -1.31059694382266       -1.80321008570847        7.44398355215003
C           -0.06501439591185       -1.29590059102741        7.21698221685767
C            1.20633958364539       -1.76387730386377        7.70245079895742
C            2.34987893675836       -1.33597184608347        7.08674612630994
C            2.37240975511730       -0.02465182553361        6.41979195015963
C           -3.62491142852161        0.93556547347954        6.40515135298798
C           -4.80108950769372        0.18712860916421        6.51434549173933
C           -4.80292225436800       -1.17570203436974        6.61412617123607
C           -3.67623459795966       -1.96275968421393        6.92765571388013
O           -3.55335993335580        2.48365878157867        6.54328433404124
O           -3.07312743817464        1.55587165931507        3.81377031042068
C           -0.36472446553890        5.51878960000294        2.96662501615894
C           -6.04859185955807       -1.98163997256071        6.62107471335823
H            1.12969612824464        4.58742472316330        4.63632283699722
H           -2.55237273247198        4.12921951024024        2.81013389367485
H            3.35653975192258        0.37488212354809        6.07866317352179
H            1.36287955103908       -2.34519016015345        8.66378330216971
H           -3.78236416781639       -3.04662065472080        6.99745812915216
H           -5.72408998927622        0.71386317103973        6.19401589539476
O            0.13204726623257        6.47646007131127        3.49075929177632
O           -0.99228312592505        5.46692195961494        1.72341097700887
C           -0.37924936842837        6.46877454352677        0.77287551388748
C            3.57646666568762       -2.25032348438603        7.17790300595920
O            3.51574533126787       -3.05582490808732        8.07206312870225
O            4.60628216719828       -1.99019351543470        6.33591871845089
C            5.81808631270704       -1.78780983029540        6.97799416542034
O           -7.14201168096598       -1.42837715152465        6.61087453242191
O           -5.76626220015072       -3.32983048299152        6.38749399167814
C           -7.02607355169798       -4.06534577487966        6.25362368435137
C           -2.64292026621727        2.85263046758590        7.53288400968255
C           -3.80428602285100        1.72770761596330        2.63684299162177
H           -7.70873195966229       -3.85102325272916        5.45606192220144
H           -7.66233282022722       -3.88130707287410        7.23923212660779
H           -6.72032584295057       -5.14448982273706        6.13711788098171
H            5.83265210636980       -0.78009187408914        7.08128020747684
H            6.77435177739255       -2.11327600314502        6.40026898320177
H            5.75897185736914       -2.31100787645833        7.95042742061027
H           -4.65321564011003        2.33963909146629        2.90785139452890
H           -4.10496189259169        0.86978886445864        2.24657434362855
H           -3.18649720781116        2.31102801941673        1.87069616171436
H           -1.93645854496156        2.09493772136050        7.89640646621452
H           -2.96461252729624        3.60374767719016        8.29753594924821
H           -1.90346920089950        3.31302401931888        6.95341842612798
H            0.11318732568501        7.37851578196696        1.32187697327824
H           -1.07726126883268        6.93405860920815        0.02298660779268
H            0.04551234181162        5.89744606431476       -0.14981784709141
116
 energy: -22.643547007783 gnorm: 0.541030552035 xtb: 6.6.1 (8d0f1dd)
C           -2.09139737964903        0.40325554710402       -2.53090546681015
C           -2.03868905816989       -0.21352202411464       -1.30185176880132
C           -1.48977971366474        0.71042010407635       -0.19087416668434
C           -0.88726841842499        1.99656324709884       -0.46692130883955
C           -1.27884814838983        2.48861768626467       -1.73972666635840
C           -1.88037791355275        1.78567414450133       -2.71419673699947
C           -1.14611166588269        0.18845274052470        1.08650035562417
C            0.07655902403749        0.66746903059211        1.66957100677298
C            0.75317307291506        1.74821250441635        1.00467188897416
N            0.21512954199452        2.49637771247158        0.11979500704453
C           -1.72273673307493       -0.92699878858280        1.76643386708714
C           -0.97210646217300       -1.65736553102962        2.76151430224718
N            0.30882557732454       -1.30174829595770        3.03704415531732
C            0.80770375379989       -0.19068636489960        2.52084908933197
C            2.13608140942393        0.30155781478305        2.92649797542265
C            2.58912889651023        1.55851904049219        2.59703296837977
C            1.80372991122884        2.32661384503481        1.73543705896843
C           -3.11958052983438       -1.50529632485384        1.63648401956263
C           -3.55237618335615       -2.66434470860917        2.26812610233663
C           -2.76985192542360       -3.37992728572774        3.14931532666827
C           -1.49069971998443       -2.97529820570571        3.18376530774463
O           -3.97906382558809       -0.74614015748554        0.93501426644203
O           -2.39978353246484       -1.47958845707991       -1.02503431172031
C           -2.40181249606917        2.57977032062514       -3.95306543483835
C           -3.30879661437357       -4.57487895499069        3.86240320273698
H           -1.15998368447566        3.67143123141054       -1.73372382382589
H           -2.52309827986181       -0.03193168436455       -3.44548405617591
H            2.22517510227626        3.31814477040553        1.35422080588097
H            2.90553717552803       -0.12278715975496        3.61401087602629
H           -0.83549620946770       -3.58163756532260        3.85092243668274
H           -4.53714987338606       -2.99297616630824        2.15080387431208
O           -1.68098074871525        3.44591418112372       -4.38857739804612
O           -3.74238761611728        2.33740676801288       -4.33459498904778
C           -4.44277016356337        3.42261156676927       -4.53398298588771
C            3.76417960352511        2.05362112435904        3.26135141883968
O            4.86608250041836        1.52451538533458        3.42421376731965
O            3.76761334216094        3.39498173261117        3.53750897828174
C            5.08573992539486        3.90833220602763        3.93272039506424
O           -4.49386355572630       -4.73857635865455        3.87916124891489
O           -2.21680376054507       -5.23557482792197        4.53635581903019
C           -2.46816165219910       -6.60370213421104        4.76707835506782
C           -5.42334731419551       -1.09800856704872        1.11547490099292
C           -2.88358522004840       -2.30092577997640       -2.13858295023349
H           -3.29891295618576       -6.62318946022820        5.47925941762323
H           -1.55156753453366       -6.96140771037924        5.16962178389475
H           -2.68605676323796       -7.07271915479197        3.67434778303363
H            5.21978275422872        3.36432997994913        4.94270771320330
H            4.78925828422829        4.93449376412911        4.17576795332606
H            5.66957188897831        3.67650821540960        3.13930322734568
H           -2.23482090929556       -2.65782194756354       -3.01865763184354
H           -3.83745311657216       -1.81213351157820       -2.47709228748294
H           -3.11766783717330       -3.16343255563718       -1.47071481543111
H           -5.82052918994022       -1.95322726701496        0.57299421432176
H           -5.96033766373933       -0.45165603379857        0.58229879651233
H           -5.63694132461211       -1.26202998809291        2.16765968231137
H           -5.28795369434408        3.05800476342848       -5.11045056558492
H           -3.79333945855539        4.29241589169767       -4.65970956249011
H           -4.98784815005529        3.80812359914127       -3.56643587573977
C           -1.84210758816196        3.58646835868416        4.20952842191568
C           -1.96871051169216        2.26958380888006        4.48733086804867
C           -0.77320644837285        1.66249591319208        5.07318275926424
C            0.50563138560319        2.25416564927137        4.96743629643887
C            0.55828687858749        3.58127483754782        4.35948816379757
C           -0.59494323690576        4.21425879416387        3.87038345706011
C           -1.01200861590622        0.40254899406490        5.73621758407730
C            0.21447806708195       -0.22661011549430        6.23951151401777
C            1.48594418280353        0.46948592041122        6.12243383025451
N            1.58243976032594        1.61161615761469        5.42742150956567
C           -2.26396099054478       -0.18142003920348        6.10879209556491
C           -2.24452935038706       -1.63965919784243        6.13963288860822
N           -1.16464766212944       -2.17478605808707        6.73813941832782
C            0.02782893696966       -1.50155533446363        6.79981077079028
C            1.21668143923107       -2.11270442620090        7.33960721092466
C            2.38036982976792       -1.37810983431095        7.37918062823652
C            2.58693997840826       -0.20579204734905        6.74540564408167
C           -3.55166861339425        0.52626586550564        6.39130409176004
C           -4.76010091806318       -0.22642184987173        6.46900992357794
C           -4.75648107892187       -1.58852322523456        6.31132925780416
C           -3.57571246022794       -2.28627162695697        6.13949628804479
O           -3.41903759423874        1.84567792291295        6.81275076036150
O           -3.16532951074953        1.60441996281225        4.22671090712195
C           -0.36425574847393        5.29506690502968        2.89297861949299
C           -6.04118605337606       -2.29524650928664        6.82326891966321
H            1.33181869817625        4.24730277708379        4.11095726094133
H           -2.63466124544765        4.31668942779393        4.30462731663267
H            3.55140884500272        0.41414155707000        6.62484428145216
H            1.22735548794209       -3.21754196102587        7.82348250852920
H           -3.35718833904909       -3.27189311360183        5.95396600435690
H           -5.79209729232387        0.28177238826741        6.66621701651542
O            0.74201764589490        5.28796915594044        2.24324965085107
O           -1.30376577567109        6.31547934526762        2.81488800607444
C           -0.79654728653775        7.10212669097575        1.85027702999073
C            3.63114473221828       -2.13973833634136        7.68940001113844
O            3.62968131442809       -3.29639505374913        8.06823261969217
O            4.88484753582687       -1.48462701506029        7.60477032894236
C            5.98046887456450       -1.96366951793300        8.26404016934790
O           -6.36441514877657       -1.76855255255734        7.84424641061371
O           -6.39344082974960       -3.35140679346664        6.03825780395500
C           -6.96504182063337       -4.31352956959366        6.83488872175864
C           -2.78239651428182        1.93811966050685        8.12630192631834
C           -4.25094528158418        2.33918101692979        3.58522948446224
H           -6.31247553924293       -4.29625536723918        7.63819567716120
H           -7.30782151799228       -5.25936298787635        6.40378503357035
H           -7.91057125004614       -3.71914704999444        7.11374322037681
H            6.81736131142775       -2.14008310857455        7.57862189072206
H            5.66963152139222       -2.83637482043532        8.65879914393431
H            6.44310983120632       -1.10244419355734        8.92486097662053
H           -3.75620049318351        2.85242287536831        2.79704408677571
H           -4.73512281344092        3.02537136738308        4.29171400213432
H           -4.79022636654399        1.44459750031163        3.14838646800092
H           -1.67571765094642        2.21378505344240        8.08017293213184
H           -3.09756031015694        1.07835737677944        8.63319950404203
H           -3.19822525019428        2.77431934523546        8.50290803412974
H           -1.39683236010352        8.02666068560900        2.10230638503813
H           -1.01699601735574        6.68045520763529        0.87894689773452
H            0.19375282275504        7.06196160694341        1.67886503236360
116
 energy: -22.688119434374 gnorm: 0.512201463069 xtb: 6.6.1 (8d0f1dd)
C           -2.51747784924329        0.22359427292964       -2.48676438533493
C           -2.05536990443393       -0.50051037416731       -1.38535306121372
C           -1.50514080956431        0.22952376355058       -0.30235412297707
C           -1.39284516455754        1.66348687391594       -0.39971509091972
C           -1.86587314229723        2.29887910601379       -1.44277584728166
C           -2.58020984362848        1.60786743439978       -2.39626651784390
C           -0.98376463378039       -0.26331905214076        0.98175418380443
C           -0.11262572663664        0.50776683690877        1.73899238646297
C            0.10219538317648        1.88515861198920        1.41050268109527
N           -0.71271339842169        2.51983458439271        0.51449303117995
C           -1.36609547115866       -1.55120045248659        1.56255968352262
C           -0.33844297556276       -2.07868763299900        2.41371943168538
N            0.82915549989216       -1.45595031564241        2.82803815585534
C            0.85028326836952       -0.15905961833427        2.58470436690335
C            1.97830668782860        0.73209745279630        3.02786568756663
C            2.20009505931517        1.93314136705904        2.40492267442624
C            1.27655738873522        2.53307615100123        1.66819145877741
C           -2.75473132993281       -1.95317378059356        1.45153965175283
C           -2.96718811971842       -3.13423241340020        2.10327542383398
C           -1.95498067503724       -3.80824628222808        2.88341239040299
C           -0.67760758900253       -3.28355077371545        3.07202140031333
O           -3.75895380490398       -1.17321242671037        0.85754758066514
O           -1.83473083499096       -1.87187318044742       -1.33179117154981
C           -3.22764265491041        2.37094419658650       -3.54791359925230
C           -2.44256363859565       -4.99834385653603        3.51323716510446
H           -1.82830417778997        3.45132332624176       -1.48199365126302
H           -2.89946652940101       -0.36393387253542       -3.35990017520771
H            1.55924723097244        3.29863808772570        0.91899820888054
H            2.77744632005582        0.38735130605550        3.67529334724178
H           -0.07954499657847       -3.89437307342155        3.84597949408104
H           -3.73154781625245       -3.75649909922137        1.75295691851388
O           -3.67150105067987        3.54523883410958       -3.34914514607891