156
 energy: -222.320729768758 gnorm: 0.087102408510 xtb: 6.7.1 (edcfbbe)
C            0.81370000000000        1.14340000000000       -0.38470000000000
C            0.77190000000000       -0.24170000000000       -0.58560000000000
C            1.62620000000000       -1.06770000000000        0.22270000000000
C            2.69270000000000       -0.43000000000000        0.90290000000000
C            2.69940000000000        0.94470000000000        1.04900000000000
C            1.72510000000000        1.74440000000000        0.46660000000000
C            1.51550000000000       -2.50630000000000        0.27520000000000
C            2.71700000000000       -3.25430000000000        0.52140000000000
C            3.87370000000000       -2.62210000000000        1.02710000000000
C            3.83030000000000       -1.20750000000000        1.39020000000000
C            0.27760000000000       -3.22940000000000        0.13160000000000
C            0.31520000000000       -4.61640000000000       -0.14900000000000
C            1.58110000000000       -5.34990000000000       -0.17390000000000
C            2.77480000000000       -4.64160000000000        0.27350000000000
C            3.95510000000000       -5.33610000000000        0.47640000000000
C            5.10050000000000       -4.71200000000000        0.95160000000000
C            5.03030000000000       -3.35490000000000        1.23040000000000
C           -1.00770000000000       -2.63340000000000        0.36260000000000
C           -2.15410000000000       -3.40190000000000        0.13280000000000
C           -2.10200000000000       -4.73470000000000       -0.22480000000000
C           -0.85440000000000       -5.32840000000000       -0.34200000000000
O           -1.09050000000000       -1.35080000000000        0.87640000000000
O            0.00960000000000       -0.84850000000000       -1.56890000000000
O            4.72190000000000       -0.69530000000000        2.05060000000000
O            1.63000000000000       -6.52450000000000       -0.50810000000000
C           -2.34700000000000       -0.73080000000000        0.72950000000000
C           -0.70810000000000        0.03310000000000       -2.39860000000000
C           -3.40610000000000       -5.52760000000000       -0.37670000000000
C           -3.14050000000000       -6.98780000000000       -0.78910000000000
C           -4.28520000000000       -4.86790000000000       -1.45420000000000
C            1.74220000000000        3.26590000000000        0.65730000000000
C            0.30930000000000        3.83000000000000        0.61800000000000
C            2.36560000000000        3.63420000000000        2.01970000000000
C            2.57160000000000        3.90050000000000       -0.46970000000000
C            6.41300000000000       -5.46980000000000        1.19240000000000
C            6.77520000000000       -5.40040000000000        2.68660000000000
C            7.53220000000000       -4.82220000000000        0.35730000000000
C            6.29650000000000       -6.95120000000000        0.78640000000000
H            7.69300000000000       -3.78500000000000        0.64700000000000
H            7.27910000000000       -4.83830000000000       -0.70220000000000
H            8.47380000000000       -5.35440000000000        0.48800000000000
H            7.71460000000000       -5.91560000000000        2.88380000000000
H            6.00200000000000       -5.87080000000000        3.29220000000000
H            6.88300000000000       -4.36940000000000        3.02060000000000
H            7.23860000000000       -7.47280000000000        0.95210000000000
H            6.04550000000000       -7.04920000000000       -0.26920000000000
H            5.53170000000000       -7.45980000000000        1.37230000000000
H            3.95140000000000       -6.38860000000000        0.26270000000000
H            5.88950000000000       -2.84020000000000        1.61970000000000
H           -0.76360000000000       -6.37700000000000       -0.55730000000000
H           -3.11580000000000       -2.95860000000000        0.30170000000000
H           -4.07690000000000       -7.53030000000000       -0.91510000000000
H           -2.55840000000000       -7.50970000000000       -0.03050000000000
H           -2.60050000000000       -7.03540000000000       -1.73410000000000
H           -4.54590000000000       -3.84600000000000       -1.18300000000000
H           -5.21290000000000       -5.42210000000000       -1.59330000000000
H           -3.76300000000000       -4.83720000000000       -2.40980000000000
H           -2.23080000000000        0.33150000000000        0.94510000000000
H           -3.06100000000000       -1.15600000000000        1.43490000000000
H           -2.70490000000000       -0.84670000000000       -0.29380000000000
H           -1.24020000000000       -0.55430000000000       -3.14750000000000
H           -0.01920000000000        0.71040000000000       -2.90490000000000
H           -1.43430000000000        0.59500000000000       -1.81070000000000
H            0.13080000000000        1.76390000000000       -0.92990000000000
H            3.50070000000000        1.38030000000000        1.61670000000000
H            2.60800000000000        4.98450000000000       -0.36590000000000
H            2.14320000000000        3.66730000000000       -1.44380000000000
H            3.59360000000000        3.52380000000000       -0.45570000000000
H            1.89430000000000        3.07350000000000        2.82530000000000
H            2.24590000000000        4.69640000000000        2.22960000000000
H            3.43250000000000        3.41880000000000        2.04120000000000
H            0.30800000000000        4.89100000000000        0.86390000000000
H           -0.32810000000000        3.31220000000000        1.33270000000000
H           -0.13760000000000        3.72720000000000       -0.36950000000000
C           -4.14390000000000       -5.52440000000000        0.97340000000000
H           -5.04290000000000       -6.13820000000000        0.93060000000000
H           -4.43830000000000       -4.51440000000000        1.25350000000000
H           -3.49930000000000       -5.91220000000000        1.76210000000000
C           -3.08330000000000        3.15600000000000        3.02430000000000
C           -3.10160000000000        1.75670000000000        2.98930000000000
C           -2.01110000000000        1.04980000000000        3.60250000000000
C           -0.84020000000000        1.78440000000000        3.90590000000000
C           -0.86930000000000        3.16870000000000        3.88970000000000
C           -1.99930000000000        3.87460000000000        3.49520000000000
C           -2.04030000000000       -0.36960000000000        3.84580000000000
C           -0.79040000000000       -1.06820000000000        3.93910000000000
C            0.41920000000000       -0.36680000000000        4.13600000000000
C            0.41440000000000        1.09380000000000        4.20890000000000
C           -3.25450000000000       -1.12360000000000        4.03960000000000
C           -3.24300000000000       -2.52450000000000        3.83650000000000
C           -1.97870000000000       -3.23980000000000        3.65970000000000
C           -0.74810000000000       -2.47780000000000        3.87460000000000
C            0.45210000000000       -3.13860000000000        4.06330000000000
C            1.63470000000000       -2.45880000000000        4.32500000000000
C            1.59680000000000       -1.06910000000000        4.33070000000000
C           -4.46280000000000       -0.53520000000000        4.54710000000000
C           -5.63100000000000       -1.30660000000000        4.53460000000000
C           -5.63700000000000       -2.64510000000000        4.18670000000000
C           -4.42230000000000       -3.24650000000000        3.88600000000000
O           -4.40090000000000        0.73080000000000        5.10260000000000
O           -4.07690000000000        1.02590000000000        2.33240000000000
O            1.42630000000000        1.72020000000000        4.48480000000000
O           -1.95820000000000       -4.43410000000000        3.40150000000000
C           -5.61740000000000        1.23100000000000        5.60290000000000
C           -5.10380000000000        1.78820000000000        1.74510000000000
C           -6.95690000000000       -3.42890000000000        4.21050000000000
C           -6.76070000000000       -4.89270000000000        3.77260000000000
C           -7.95590000000000       -2.76480000000000        3.24550000000000
C           -2.08080000000000        5.40570000000000        3.58420000000000
C           -3.10660000000000        5.78070000000000        4.66780000000000
C           -0.72120000000000        6.02650000000000        3.95760000000000
C           -2.52440000000000        5.99090000000000        2.23030000000000
C            2.87990000000000       -3.23840000000000        4.77370000000000
C            4.15590000000000       -2.38140000000000        4.66490000000000
C            3.06100000000000       -4.50230000000000        3.91370000000000
C            2.68920000000000       -3.65230000000000        6.24300000000000
H            3.08800000000000       -4.24630000000000        2.85810000000000
H            2.25120000000000       -5.21380000000000        4.06430000000000
H            3.99040000000000       -5.01150000000000        4.16330000000000
H            5.04090000000000       -2.97080000000000        4.90170000000000
H            4.13020000000000       -1.54150000000000        5.35730000000000
H            4.27920000000000       -1.98610000000000        3.65970000000000
H            3.55070000000000       -4.21080000000000        6.60720000000000
H            1.80600000000000       -4.27940000000000        6.35840000000000
H            2.56070000000000       -2.77550000000000        6.87670000000000
H            0.43250000000000       -4.21260000000000        4.04670000000000
H            2.48810000000000       -0.49650000000000        4.51040000000000
H           -4.36280000000000       -4.30480000000000        3.71440000000000
H           -6.55550000000000       -0.85470000000000        4.83690000000000
H           -7.70910000000000       -5.42890000000000        3.78010000000000
H           -6.08190000000000       -5.41750000000000        4.44370000000000
H           -6.36040000000000       -4.94690000000000        2.76170000000000
H           -8.17360000000000       -1.74020000000000        3.54280000000000
H           -8.89760000000000       -3.31210000000000        3.22150000000000
H           -7.55320000000000       -2.74080000000000        2.23350000000000
H           -5.44000000000000        2.22890000000000        6.00510000000000
H           -5.98370000000000        0.58760000000000        6.40380000000000
H           -6.35020000000000        1.30110000000000        4.79840000000000
H           -5.80450000000000        1.10880000000000        1.25880000000000
H           -4.68720000000000        2.46200000000000        0.99540000000000
H           -5.63530000000000        2.34950000000000        2.51420000000000
H           -3.94140000000000        3.69500000000000        2.67350000000000
H            0.01800000000000        3.68750000000000        4.20050000000000
H           -2.53770000000000        7.07980000000000        2.26440000000000
H           -3.52540000000000        5.65970000000000        1.95910000000000
H           -1.84460000000000        5.68800000000000        1.43600000000000
H           -0.38890000000000        5.68620000000000        4.93740000000000
H           -0.78980000000000        7.11320000000000        3.99440000000000
H            0.04200000000000        5.76800000000000        3.22510000000000
H           -3.19030000000000        6.86210000000000        4.77000000000000
H           -2.81250000000000        5.37070000000000        5.63330000000000
H           -4.09330000000000        5.38790000000000        4.42620000000000
C           -7.52740000000000       -3.42100000000000        5.64000000000000
H           -8.45580000000000       -3.98870000000000        5.69210000000000
H           -7.73710000000000       -2.40740000000000        5.97790000000000
H           -6.81950000000000       -3.86640000000000        6.33810000000000
156
 energy: -222.333251286931 gnorm: 0.035884074562 xtb: 6.7.1 (edcfbbe)
C            0.82196602103055        1.14195459258109       -0.38640905182025
C            0.77562633333973       -0.23594360946600       -0.57086039167741
C            1.62589461386538       -1.07041855622446        0.20855514622885
C            2.68555912484830       -0.43123796080608        0.89183452146374
C            2.70546022424914        0.94698264504701        1.04380598453564
C            1.73443156905997        1.75052148453260        0.46756914109695
C            1.50904145160525       -2.50059368696134        0.27210884373363
C            2.70584306005365       -3.24467185039479        0.51669295251937
C            3.86985710905315       -2.61621483005238        1.01014063104147
C            3.83059043729392       -1.19982470756521        1.38395254696963
C            0.27668158293955       -3.22442723263818        0.14024143643963
C            0.31310963546182       -4.61035485389896       -0.14256973314248
C            1.57991972910250       -5.35182056843684       -0.18682009268086
C            2.76870442499500       -4.63276058733959        0.27522743966802
C            3.95287656140581       -5.33261314741490        0.47501043766968
C            5.10412146365953       -4.71391619509159        0.94818409878947
C            5.03021314693591       -3.35144364606014        1.22101319698155
C           -1.00755931619793       -2.64878707107938        0.35678323728512
C           -2.15050745147327       -3.41077470908513        0.14325205794351
C           -2.10233694390310       -4.75007162463917       -0.21631642019963
C           -0.85311177002934       -5.33598734826826       -0.33554751137541
O           -1.08663228484372       -1.36975209062764        0.84325486761259
O            0.01038419316995       -0.83344658145436       -1.53972133413177
O            4.73518245915490       -0.67883616850868        2.02881039052420
O            1.62954725951547       -6.53031831111792       -0.52155600199433
C           -2.33761189813815       -0.73526658383722        0.71649977380002
C           -0.70542632485215        0.02868546685349       -2.39279642789509
C           -3.40232669829579       -5.53209201136304       -0.37970675464882
C           -3.14261696113696       -6.98614365651743       -0.79021110376507
C           -4.27812908656893       -4.86787671822759       -1.45339889927311
C            1.74167785986329        3.26406155022538        0.66223194818071
C            0.31367501584119        3.82730539420727        0.61629890099440
C            2.36743324355066        3.63555698459858        2.01465693335281
C            2.56946712730254        3.89278434733636       -0.46824283727772
C            6.40876224055687       -5.47146728988883        1.18900280116939
C            6.76959449673744       -5.39725969793098        2.68048433312502
C            7.52516172799273       -4.82139800701991        0.35779208204127
C            6.29641264435418       -6.94786307804447        0.78720255421634
H            7.68691402261457       -3.78632713506785        0.64939357174324
H            7.27144711216291       -4.84133363213801       -0.70056678114849
H            8.46111377487751       -5.36010030993426        0.49514323391730
H            7.70932199606489       -5.91418320802762        2.86792314166692
H            5.99647170976774       -5.87154967329977        3.28200715513335
H            6.87749214411232       -4.36731650929603        3.01293967756894
H            7.24464235432043       -7.45424680195143        0.95852305997885
H            6.04994030000691       -7.04623394052399       -0.26814048430539
H            5.53594244248106       -7.45656251118985        1.37633984711086
H            3.93859405032998       -6.38711563089571        0.25644856978618
H            5.88497942233912       -2.82920023530374        1.62132908124232
H           -0.74760583120049       -6.38348717855064       -0.55921090041883
H           -3.11426180921428       -2.96120714834449        0.30660769190261
H           -4.08708848530075       -7.51332158282391       -0.91322117641016
H           -2.56683308718314       -7.50622703945559       -0.02801208115798
H           -2.60423245081289       -7.03306674977124       -1.73469098087963
H           -4.53991129716329       -3.84762689644930       -1.18053899676266
H           -5.20290646192981       -5.42703377466851       -1.58579212566502
H           -3.75512263313256       -4.84100725324428       -2.40758595273455
H           -2.18267923020283        0.31995972817131        0.93629425238803
H           -3.06314080896336       -1.13461957283129        1.42928848647856
H           -2.72072715386177       -0.84011412237703       -0.30199466525359
H           -1.22059886555052       -0.59133620630792       -3.12720504726588
H           -0.02688622236754        0.70882500804531       -2.91634798716560
H           -1.44703457087463        0.60477695733906       -1.83187171202458
H            0.13611412398012        1.76350238670502       -0.93341715608123
H            3.51090109959497        1.37156684433272        1.61802012029460
H            2.60190765785042        4.97537169290959       -0.35695821583790
H            2.13988600635676        3.66104699078362       -1.44175789210186
H            3.59024942839812        3.51619835973571       -0.45007312200196
H            1.90460219429600        3.07376618886899        2.82191295171335
H            2.23832903443917        4.69830532285805        2.21170563392046
H            3.43423603335441        3.42966031957645        2.02928002405108
H            0.32643939809846        4.88663002227683        0.86530786794019
H           -0.32075154612147        3.31079241698732        1.33392774997987
H           -0.12986930283633        3.73359581549194       -0.37313794395016
C           -4.13925859899242       -5.52330635294596        0.96733329953620
H           -5.03419543371705       -6.14193550332002        0.91482350854556
H           -4.43508724304239       -4.51332422254627        1.24347010737740
H           -3.49220125043827       -5.90823523719351        1.75304366025560
C           -3.08125515175149        3.15751822288765        3.03145763938251
C           -3.10086272302894        1.76819975583557        3.01260886974906
C           -2.01923778557711        1.04640970035518        3.59723444317655
C           -0.85219726357396        1.78017928047328        3.90629685467248
C           -0.86729761055724        3.16924606679517        3.89169728013147
C           -1.99499994807646        3.88084072371822        3.50980876988985
C           -2.04787393895772       -0.36543649808561        3.84683668562267
C           -0.80432576967417       -1.06170614949260        3.93877888582471
C            0.40912831487340       -0.36767055606208        4.12834366295778
C            0.40997377745044        1.09513274695229        4.22052902802199
C           -3.25439284749114       -1.11761808186188        4.05133936533830
C           -3.24396238304248       -2.51579374393025        3.84047997346669
C           -1.97989760107990       -3.24030795826449        3.64326590970069
C           -0.75514031011929       -2.47032092563145        3.88153474097623
C            0.44702735837574       -3.13621257213476        4.07517053636459
C            1.63294657322048       -2.46019769237192        4.34839211597965
C            1.59235235341212       -1.06881589338484        4.33306955377695
C           -4.46586138425055       -0.54723821680062        4.53803151301828
C           -5.62739270574651       -1.31219861763133        4.53787195297526
C           -5.63653240827574       -2.65706350924231        4.18688483727110
C           -4.41978114285530       -3.25223703177354        3.89275744418040
O           -4.41183356033740        0.71482377291358        5.07185488409426
O           -4.08390794975265        1.04846555428721        2.37792296738769
O            1.42528954460304        1.72601065763160        4.49271697981496
O           -1.95779688412810       -4.43940453542924        3.39041686189784
C           -5.61273027967840        1.23094568033123        5.59570716810978
C           -5.10817947673298        1.78869811812758        1.75733811396572
C           -6.95285831149285       -3.43212111332397        4.20859075256971
C           -6.76274835126199       -4.89036729775750        3.77422372956175
C           -7.94915541609253       -2.76442630125371        3.24774949948889
C           -2.07601754416360        5.40465540058465        3.58471844647471
C           -3.10447055689258        5.77430835659057        4.66442859834629
C           -0.72471852900954        6.02679043540611        3.95680348653630
C           -2.52294097807161        5.98665913371684        2.23382080668134
C            2.87945415550558       -3.23610984022169        4.77360082878976
C            4.15366261547452       -2.38768067756201        4.67962315490394
C            3.05553754545873       -4.50027770293362        3.92144134165898
C            2.67853470569079       -3.64719038515606        6.24058571472419
H            3.08230422982812       -4.24515384719495        2.86812553792621
H            2.25066732684903       -5.21415741209341        4.07800944703664
H            3.98906336876397       -4.99666372236541        4.17678845433498
H            5.02634266435722       -2.99238719412880        4.91705751042684
H            4.12972084794400       -1.55462088803717        5.37795611809522
H            4.28760930622464       -1.98942741352971        3.68169643257445
H            3.54506013179465       -4.20390820231378        6.59299040186120
H            1.79748531932820       -4.27641251126509        6.35384431776011
H            2.55560416426128       -2.76935573730943        6.87269470304646
H            0.42321535024174       -4.21348518201455        4.03829959641217
H            2.48280592179004       -0.48792517024244        4.50934795738927
H           -4.34694842822574       -4.31059058065237        3.71398419555340
H           -6.55460143204845       -0.85894587351151        4.84247902916221
H           -7.71875062223125       -5.41058115300504        3.78736638208461
H           -6.08914273697097       -5.41502004341571        4.44796217788703
H           -6.36415268266810       -4.94483814740048        2.76426658400484
H           -8.16905627728248       -1.74160757815980        3.54583286653770
H           -8.88652186586336       -3.31726755091847        3.23055192459261
H           -7.54588808586050       -2.74493297708953        2.23684064662389
H           -5.39631593338463        2.22443429455713        5.98953096197613
H           -5.98690961383059        0.60223475437322        6.40893659418526
H           -6.37101547767736        1.31575928367915        4.81155739889665
H           -5.78269036637390        1.07698864303383        1.28001433945750
H           -4.70095452648472        2.45704469684541        0.99259642537958
H           -5.66568615919536        2.36702971299409        2.49907665380108
H           -3.93757280282493        3.69860377592438        2.66871226476601
H            0.03187794851071        3.67693122281170        4.19421042738175
H           -2.53166636054653        7.07421355877654        2.27743879502257
H           -3.52488053787889        5.66064452354843        1.96436743198423
H           -1.84213242097033        5.68236276145184        1.44218179879422
H           -0.39647758718409        5.69133849998554        4.93789259607207
H           -0.80957354425553        7.11155647999346        3.98723788594026
H            0.03590365978053        5.76766244395445        3.22395306509118
H           -3.18227114668781        6.85586922024854        4.75910412608569
H           -2.80627712616225        5.36638971172096        5.62842719051428
H           -4.09040930241375        5.38287777637025        4.42089514753418
C           -7.52184900591167       -3.41883617376152        5.63589229961959
H           -8.44837916581090       -3.98840526927208        5.67866472947625
H           -7.73434739722319       -2.40675412297643        5.97342991938426
H           -6.81339581013748       -3.86650262695763        6.33036309897705
156
 energy: -222.337553494273 gnorm: 0.012016051930 xtb: 6.7.1 (edcfbbe)
C            0.83056659773793        1.14490270590474       -0.38631969433378
C            0.78165363327990       -0.22680483788204       -0.56303164263299
C            1.62442763464269       -1.07060481115038        0.20162618042900
C            2.68246667164307       -0.43211070250551        0.88313725899879
C            2.71219901577409        0.94833652528251        1.04131568884574
C            1.74335838708011        1.75660398126366        0.47248888231666
C            1.50308076648001       -2.49562948786456        0.26906438801575
C            2.69665599689038       -3.23660688803825        0.51094506696595
C            3.86592978670427       -2.61261150508459        0.99751428977636
C            3.83814372472846       -1.19247583945373        1.36774549142026
C            0.27571278674369       -3.22240498903369        0.14344071601043
C            0.31283910917257       -4.60740105495013       -0.13859960553574
C            1.57923468801378       -5.35455618856693       -0.19154108096435
C            2.76427807973233       -4.62426359219817        0.27286515271528
C            3.94980416103330       -5.32671286492219        0.46885324056811
C            5.10370532715164       -4.71342371912283        0.94286506011020
C            5.02589083107733       -3.34892108760337        1.21418175609205
C           -1.01093715382708       -2.66340098506539        0.35289876204222
C           -2.14880431982656       -3.42286978652418        0.14910369342504
C           -2.10099003366222       -4.76621775873871       -0.21372731746313
C           -0.84969776404517       -5.34392294670465       -0.33313167874955
O           -1.08749915569146       -1.38573491032529        0.81446435362219
O            0.00871438927000       -0.81850693602082       -1.51579875125521
O            4.75110901709656       -0.66710145709352        1.99891929725624
O            1.63355349610493       -6.52808510763147       -0.54250842151248
C           -2.32676350292736       -0.72854113700457        0.70593660864958
C           -0.70619996412842        0.01713919946801       -2.39448443308169
C           -3.39746394845205       -5.53773187744220       -0.38173276748464
C           -3.14854333200433       -6.98901641907188       -0.79204518305033
C           -4.26835883494207       -4.86961974634074       -1.45512476130855
C            1.74591208199430        3.26283444172211        0.66372826329650
C            0.32134755160298        3.82742653370679        0.61692240722845
C            2.37360184394609        3.64200872531157        2.00798621001914
C            2.57216590935866        3.88811960223988       -0.47006316640041
C            6.40182251341345       -5.46827278392816        1.18443606025341
C            6.76184559696660       -5.39344358421448        2.67476686161844
C            7.51891806146037       -4.82001848599132        0.35558232645620
C            6.29718380187626       -6.94270409873539        0.78755462996410
H            7.68038916435984       -3.78654462384633        0.64830376455923
H            7.26565511249375       -4.84198466417969       -0.70215073768184
H            8.45123053524637       -5.36299210753085        0.49785922196150
H            7.70251564239013       -5.91007097317578        2.85608862067463
H            5.98929989264075       -5.87117215137871        3.27343976613807
H            6.86808906099219       -4.36425902125781        3.00583603410132
H            7.25054708725299       -7.43704787343228        0.96395156481129
H            6.05433927490677       -7.04580930640584       -0.26717547765280
H            5.54078416906266       -7.45376707000322        1.37814551948656
H            3.92288705964153       -6.38204434370411        0.24728082124573
H            5.87633298017957       -2.81625167900621        1.61540322270291
H           -0.72671603073223       -6.38970678976753       -0.56179174031818
H           -3.11343280081566       -2.97211790573226        0.31330306734573
H           -4.09924739522961       -7.50411893097479       -0.91500848426312
H           -2.57850819331831       -7.51075048457701       -0.02845981388031
H           -2.61024750332604       -7.03810988108360       -1.73528973473847
H           -4.52899682960631       -3.85025040563458       -1.18137968673880
H           -5.19224811964911       -5.43025029144059       -1.58356719608730
H           -3.74473220785611       -4.84532707182038       -2.40825842206948
H           -2.12846900343657        0.32037100179683        0.92566600678330
H           -3.06044575244433       -1.10319785954806        1.42685960186618
H           -2.73406349704887       -0.82433134470848       -0.30680917269436
H           -1.20176363225112       -0.64110990376316       -3.11004984021885
H           -0.03543343236915        0.69509349712321       -2.93495637260844
H           -1.46276621135458        0.60778382804746       -1.86333377122827
H            0.14509511173184        1.76795525488589       -0.93497754142111
H            3.52363227418420        1.35863571104419        1.61941583572864
H            2.60290155801178        4.97000666634672       -0.35603686080336
H            2.13925246560762        3.65461981914290       -1.44090416114526
H            3.59086824655199        3.50883315053885       -0.44991270408402
H            1.92305105585792        3.07813689495136        2.81961396395897