116
 energy: -22.928061455056 gnorm: 0.329736929581 xtb: 6.6.1 (8d0f1dd)
C           -3.31122850772930        0.79849766164622       -0.92477639677520
C           -2.44380812530352       -0.12270372891954       -0.27661132624697
C           -1.41337090092821        0.39579727573559        0.56335275196199
C           -0.89266158675590        1.65801491088749        0.27377586709581
C           -1.72665675402493        2.51431363229076       -0.49448366572522
C           -2.95444148494349        2.13954154133227       -1.01494489940871
C           -0.74098268209890       -0.43411532818871        1.49825021926784
C            0.56872586496315        0.03782116815119        1.86248088067890
C            1.03782416582094        1.29402317993033        1.50887470833621
N            0.31238977034758        2.07067427098208        0.65193736800696
C           -1.29695700510141       -1.39996043042223        2.41574187746061
C           -0.38243517664656       -2.18060797534842        3.13232615520648
N            0.91308504082021       -1.90366887689689        3.30325166013478
C            1.37712470144904       -0.74872102533751        2.81811050966982
C            2.52149331701875       -0.17739833758153        3.39379298866852
C            2.95849061756259        1.02681208890480        2.95105897606587
C            2.24288949469137        1.78498308775960        2.03503020483770
C           -2.74860936222260       -1.74497937691422        2.38401158947411
C           -3.09416315450955       -2.91614440870436        3.00571134491758
C           -2.16786021984049       -3.77788778654213        3.63251872101904
C           -0.85708937311598       -3.40495313382985        3.68547234358092
O           -3.71994433332149       -0.94984598373544        1.67726658385724
O           -2.55702603277562       -1.47241711578389       -0.57241635275616
C           -3.84297843593025        3.13357444054366       -1.60938954875544
C           -2.68769581069131       -5.03867041417370        4.30484659386931
H           -1.39666850744143        3.51251503834900       -0.76806311868865
H           -4.27662633836220        0.55105838579656       -1.33106614114542
H            2.66329581305412        2.73912661909249        1.72562431984580
H            3.05775395548473       -0.69369546277216        4.16536137542516
H           -0.24710966264510       -4.12034095424229        4.22946223699121
H           -4.11477991332403       -3.04712728052358        3.03244694615357
O           -4.21824883374556        4.03433712717988       -0.87713382485991
O           -4.44510595673734        2.90643496899600       -2.81853501752979
C           -5.44216520282800        3.83300025693726       -3.02488532025093
C            4.23586651889298        1.50004220933226        3.59165660008449
O            5.05927614697201        0.66079890002952        3.91714215179376
O            4.47001334453535        2.86385149488593        3.72605651435371
C            5.79457498613219        3.08584475587818        4.15829123132174
O           -3.82227255313510       -5.27347675879771        4.16636005494405
O           -1.85023202017753       -5.79767454267276        5.06656077253571
C           -2.55119635829503       -6.86252441382958        5.62930343183426
C           -5.07197156564436       -1.42399175670916        1.58830531863830
C           -1.33089900128490       -2.23622472573986       -0.99264499351172
H           -2.54510546830388       -7.76426885143998        4.99136022291012
H           -3.57194749219491       -6.44405511486021        5.74196173723541
H           -2.09133598235598       -7.02043774843818        6.64022264233588
H            5.72707967266424        3.46798026205549        5.10135971236643
H            6.34060091246885        3.78468702308830        3.50069950143490
H            6.17933064298187        2.03010500085905        4.19342358084693
H           -0.91862729772622       -2.57650129080332       -0.01361370304871
H           -0.49769766914251       -1.60651221708571       -1.34094446550576
H           -1.52632419730509       -2.94569707152159       -1.75361447637286
H           -5.11788846557077       -2.41810833635233        1.17520213188926
H           -5.67929807973498       -0.69619639428435        1.04301666067831
H           -5.57598832326623       -1.42383358739762        2.57928294206544
H           -6.13050215934830        3.76035386975488       -2.23272855695873
H           -5.86615610071888        3.45938329385866       -4.02668959924245
H           -5.13479557532099        4.87790991548477       -2.98314551356402
C           -1.38192942069774        3.73616555005018        2.91232598411686
C           -1.84821468128685        2.59982427735607        3.49755545445181
C           -1.05946531454833        2.05730632010638        4.60922730982276
C            0.19893954712228        2.69376791964407        4.86302140881997
C            0.50425395911860        3.94630308659851        4.28768785650746
C           -0.26031777722226        4.46998310053134        3.25072669343212
C           -1.20488993561782        0.74454293276906        5.14851520323437
C           -0.06287609782692        0.02744069315890        5.60930570802864
C            1.19208754369866        0.71421540266195        5.78882868583885
N            1.19428660993148        2.06344359410476        5.62744624321596
C           -2.41361422770794        0.07928500213936        5.25249410304426
C           -2.45851584031083       -1.32662100968547        5.60237876023992
N           -1.29466212405906       -1.98318595734370        5.89916817085159
C           -0.14475655767527       -1.32117560077092        5.98824682881008
C            0.97209270935794       -1.98958449505532        6.53157704134458
C            2.21982707914082       -1.36973967291181        6.68703967237737
C            2.30561929262884       -0.09745313075593        6.26436900324455
C           -3.73018485967715        0.71367583494582        5.25810242262992
C           -4.89964478833448       -0.06184623426677        5.21204641615509
C           -4.82617965800088       -1.39228978090841        5.46901303780036
C           -3.67144193418464       -1.98914944386360        5.67265433266067
O           -3.75568638935321        2.07705011038914        5.52067969627343
O           -2.94192434743730        1.91263938797883        3.01658762327703
C            0.21273512614467        5.50086066357994        2.34765104514621
C           -6.06660304520411       -2.17604633098929        5.80641622556876
H            1.41756699010566        4.38133362238595        4.66974005703471
H           -1.82880610647429        4.11982501512100        2.06992133318584
H            3.26888037378556        0.32655662585251        6.31721410015598
H            0.87146188387207       -3.08471526305024        6.57830423410869
H           -3.67716811065157       -3.05999292755990        5.83019634570050
H           -5.77379677507622        0.43595144608221        4.71017130754348
O            1.34459852619901        5.82615848916894        2.44941456579099
O           -0.74718748219123        6.07961784856304        1.59848183464284
C           -0.21473095568964        7.24015934882472        1.05753806029483
C            3.53228080814219       -2.00967610361154        7.02506769044485
O            3.64093082622715       -3.14437803815732        7.50071391725347
O            4.56565258381079       -1.22937033368332        6.69086985080897
C            5.72579357310716       -1.80692399125161        7.22246151275881
O           -7.04801223588612       -1.95726935745904        5.14194115322235
O           -6.01514389321278       -2.93743591896022        6.94765316328794
C           -7.21292732384718       -3.62681918543340        7.15115816329978
C           -4.95459780685163        2.65960679932188        5.86868674392943
C           -3.68284113682406        2.59129188358641        2.05479246020704
H           -7.43119628931628       -4.22607794725959        6.20622607140901
H           -8.06548455146707       -2.91765848248592        7.29781126410398
H           -7.07314693247270       -4.33087306029711        7.91223421050944
H            6.57332189837178       -1.29353136199234        6.78341268688262
H            5.74663761932316       -2.84282155125561        6.88089468184451
H            5.69426191474290       -1.72781984964892        8.29460302186842
H           -4.10481209541493        3.44288266176275        2.60483747673152
H           -4.49244774344916        1.87419893016926        1.82433103764650
H           -3.18901540870812        2.85154642679373        1.06781919454921
H           -5.55414326821421        2.76698137191684        4.93950725322359
H           -4.78658370641210        3.62090640967288        6.25983200635257
H           -5.43485580473958        1.97242995129449        6.65265772412460
H            0.89164886030839        7.38838561720231        1.13776105146914
H           -0.62894889903848        8.04195665205089        1.64837664327952
H           -0.59282546386754        7.45699159724320        0.03719083132488
116
 energy: -22.762482035417 gnorm: 0.448546216100 xtb: 6.6.1 (8d0f1dd)
C           -2.92862322251941        0.67185457417955       -1.89751394786191
C           -2.17946168157950       -0.29148889057346       -1.13300779028025
C           -1.23280948337016        0.30624252115403       -0.14235176768523
C           -0.83197076353207        1.69637499297437       -0.25393141992145
C           -1.63384636758203        2.55910241471622       -0.96604000343624
C           -2.65006354654436        2.02806576078668       -1.71202733665332
C           -0.61242565980299       -0.38373781488325        1.04235717610684
C            0.63982040173674        0.01595621407175        1.47757432368397
C            1.00522325117042        1.34542495919392        1.07282204546209
N            0.24896582674773        2.22156760964972        0.38689408120502
C           -1.29291300500399       -1.45493019718492        1.67805791148800
C           -0.52427239927670       -2.15235270864853        2.70664862106434
N            0.72176991441980       -1.69478896973730        3.11879140358295
C            1.22650242530890       -0.62950999918595        2.56606138456465
C            2.64663328836706       -0.30885729707019        2.86108670776386
C            3.03937409760623        0.90341313050505        2.26106423408366
C            2.24465586772992        1.83051218564565        1.55075153751897
C           -2.65199928513933       -1.87347717890720        1.55614788536304
C           -3.18411509794279       -3.01291534243799        2.15362418800997
C           -2.32929552951998       -3.78574964733405        2.83866110253892
C           -1.01910756575029       -3.36496079500747        3.09664359475270
O           -3.57727393729613       -0.90754580178559        0.94427696191617
O           -2.16844693263599       -1.67561920827908       -1.39596703269140
C           -3.28076936467782        3.10529045956844       -2.59173639040403
C           -2.85417503978666       -4.92777085662860        3.79370232901894
H           -1.42531792316031        3.64617333935192       -1.04446007602113
H           -3.83482546316573        0.39421126035492       -2.37479323891941
H            2.62864156526349        2.83325503637420        1.18093445638098
H            3.31824665850897       -1.03264737562342        3.15966448292972
H           -0.21101335822335       -4.01541290582235        3.48181983174344
H           -4.16724491930946       -3.31352003610352        1.94884129585557
O           -2.61409081905983        4.04909718772177       -2.74497083725551
O           -4.52878118229251        2.97558259021363       -2.99621315776436
C           -4.99807549519338        3.98220390497036       -3.84573399646953
C            4.32800405223573        1.43102037625083        2.75088730147166
O            4.97534298923026        0.96502298347111        3.65499946076732
O            4.87935115517639        2.43399922783868        1.87413873865343
C            6.16943811139720        2.97708927486500        2.37129372408384
O           -4.01302562999283       -5.32781166418450        3.63965358448785
O           -2.02947885090010       -5.38242759463160        4.77039874920536
C           -2.46663995319247       -6.32570443303369        5.74667172477342
C           -4.92578880425232       -1.07353038570745        1.26605076206329
C           -3.26906078423626       -2.11950537991521       -2.15840222246521
H           -2.56976537075899       -7.25652272736639        5.34724026128774
H           -3.18867032006905       -5.87023175176924        6.32491924085226
H           -1.68852259282103       -6.38026725193345        6.40175832409382
H            6.88285853363620        2.12588740780380        2.41046072087425
H            6.19590555083731        3.42020284656154        3.30831413162670
H            6.45799539986573        3.67911352086789        1.64401453135288
H           -3.16653646548788       -1.77665722232799       -3.13066755840452
H           -4.12188976897542       -1.55390396300160       -1.89653408390302
H           -3.35364135226846       -3.17210017649222       -1.72514519598917
H           -5.59143549539552       -0.54519897259441        0.48989547781423
H           -5.06469388382023       -0.58017435122794        2.25583054228173
H           -5.07155753066405       -2.14337297070630        1.10549067583888
H           -4.93802530682531        4.77668501711062       -3.07606628420083
H           -5.91256836831857        4.13553133138224       -4.40499237947939
H           -4.20312758536835        4.11114106449263       -4.61302549387947
C           -1.80866215264343        3.70110778342269        3.43658597576509
C           -1.97371792659642        2.39013264411352        3.85848457277309
C           -0.92523079908381        1.89100913265079        4.69154297285335
C            0.30714386166934        2.56677561133375        4.87430322248792
C            0.42675817325412        3.89810905899097        4.45049422276432
C           -0.70890179038283        4.47988117492470        3.88802518302595
C           -1.00438927058503        0.64448523835261        5.33070091444690
C            0.13329695755747        0.06838376860302        5.95987004667324
C            1.28555018375013        0.77286312623538        6.10794831380931
N            1.34091365531372        1.97417136817884        5.56240303949369
C           -2.25492304579366       -0.11722538990812        5.38523609983473
C           -2.28627317291982       -1.45012619512926        5.80365760692469
N           -1.10475637218293       -2.04188681747956        6.21785086574993
C           -0.01840226616835       -1.27967223855814        6.41302654683289
C            1.14815921434373       -1.80020998113716        6.99086665726004
C            2.36275363826511       -1.21154066509238        7.19179612770182
C            2.37043934872374        0.13745826119581        6.83729438330389
C           -3.36653246359081        0.56963830861249        5.94878740007057
C           -4.52255720247933       -0.22495441837109        6.28810861530732
C           -4.65999290814397       -1.60387997500463        6.31721825343058
C           -3.48760760842480       -2.19083743952661        6.05282059404348
O           -3.25668653958559        1.97348453118571        6.19804190461501
O           -2.79125821451534        1.52066440531543        3.30843571722623
C           -0.68283055257029        5.77922987091001        3.28865337211296
C           -5.95499643640927       -2.14109276602476        6.85049168447504
H            1.13267346480321        4.61744438474090        4.79181459706163
H           -2.39394411369847        4.07361615250746        2.58875254455704
H            3.14774005010877        0.75608540624930        7.28264566846006
H            1.12127147297226       -2.79493741482575        7.35671348669150
H           -3.38160438658147       -3.28074640621862        5.87789064291476
H           -5.48046835254712        0.29337790021828        6.54247088705040
O            0.10648548551712        6.55917479547225        3.82987375728340
O           -1.50095631647530        6.04444981438800        2.28905727082630
C           -0.97210487054165        7.18149930340720        1.63365690585795
C            3.41490320436514       -1.79711170622583        8.11212266481907
O            3.73628294686835       -2.96296815960452        7.98770948542528
O            4.04363298292073       -1.05251579380996        9.19040071708284
C            4.72363473813086       -1.95673929652735        9.98714473419333
O           -6.71541213567582       -1.46185945528096        7.53612150346133
O           -6.16175714071552       -3.52226377264847        6.69705428941651
C           -7.51589447194094       -3.82651722004240        7.14981466642416
C           -4.23103948615985        2.39481601467948        7.13291375938270
C           -3.06233596098038        1.81320071268499        1.99975937124849
H           -8.05850507283443       -3.04491123059359        6.56142065527526
H           -7.57147145262104       -3.40071853375851        8.10508420858902
H           -7.70848983065426       -4.80565468015644        6.89048731676063
H            5.15281417439990       -1.38580552390662       10.83625803289709
H            5.56916811067515       -2.44995004413107        9.33967134166080
H            3.98741880956002       -2.72236782604430       10.35903794027231
H           -3.25604157976215        0.73369749231644        1.83422063313917
H           -2.23844462421647        2.27621010713279        1.46148507931543
H           -3.83986954923813        2.57912374383626        1.91800178495523
H           -5.22585076374497        2.45125789207400        6.82478928287005
H           -4.08182013064581        3.41208428819081        7.53037230346321
H           -4.17622880815614        1.72268874454604        7.97152386708061
H           -0.72286825838071        7.98462401942827        2.40623969913373
H           -1.54202012413240        7.58179549355435        0.75323522739395
H           -0.06068202670434        6.89776439242998        1.05464460432821
116
 energy: -22.812549040472 gnorm: 0.419189676434 xtb: 6.6.1 (8d0f1dd)
C           -2.81726770040561        0.47513742575588       -1.94909110476781
C           -2.41681169301382       -0.17682965049271       -0.84041304043729
C           -1.76792458997804        0.60584150575758        0.21818771999310
C           -1.22637861621222        1.92076227158724       -0.08952996441901
C           -1.58260210056844        2.50072087056749       -1.38386527929496
C           -2.43458077160177        1.78705589000492       -2.17648117611957
C           -1.12513730054251       -0.00318317032173        1.36770906611411
C            0.09024977593530        0.43725264092679        1.85151548943861
C            0.53265977081157        1.75245653022639        1.44823912270707
N           -0.21658189725507        2.50123886809035        0.62251595599991
C           -1.70857843131856       -1.08097917502092        2.10092293356564
C           -0.97015649286217       -1.78898701510869        3.15214934653554
N            0.40224213554694       -1.42987876564666        3.36377417993235
C            0.89207059741409       -0.33946542929038        2.75872418697310
C            2.12779724858390        0.19481326621770        3.03713782933867
C            2.47357418276889        1.47645343392927        2.68834798536482
C            1.67287978953205        2.28522989941253        1.96943047581540
C           -3.13373795318441       -1.30283563881814        2.16461224803355
C           -3.62459712707332       -2.38583332813149        2.84724983274024
C           -2.81437190567049       -3.27445907286499        3.53571143545547
C           -1.53329460870962       -2.86610711493634        3.82303864627708
O           -3.95365588689490       -0.35375771444941        1.46940034170494
O           -2.41343736428923       -1.57625092812895       -0.72801792778504
C           -2.88566207727710        2.41222053340972       -3.45359957517136
C           -3.34950026903303       -4.56946990875370        3.76162525729214
H           -0.98089077175348        3.16401637363152       -2.00660202269736
H           -3.33788377522134        0.10017295018072       -2.86997407418868
H            2.09472697343560        3.30081193125485        1.76144662773810
H            2.80525809158605       -0.42776324609613        3.53264262963121
H           -0.95513394947675       -3.51213214667900        4.45738701840977
H           -4.71772334442751       -2.51253054785924        2.83427776812870
O           -2.90611094179572        3.63166315369954       -3.62969443731207
O           -3.41905115283617        1.55786251988142       -4.45794400481786
C           -4.15311393392728        2.23746019539284       -5.60740394499518
C            3.84539212161489        1.90136016187701        3.06878086782831
O            4.34137097383124        1.25871670554684        3.98967837820429
O            4.47236503548419        2.81665898235681        2.24915821919284
C            5.53773830734058        3.15896213032391        2.89454671107670
O           -4.45617137652617       -4.80129794059312        3.42072659707577
O           -2.52543380423854       -5.42569065609187        4.50376964238849
C           -3.11303213096254       -6.72140516370092        4.57869916726193
C           -5.27788163371639       -0.63296934526809        1.83111234543404
C           -3.12827315036644       -2.20818614372042       -1.73026501520103
H           -2.99024546957305       -7.02947342219506        3.51628456174065
H           -4.07249495831205       -6.51409271908023        4.99803688969677
H           -2.59411371677296       -7.44949267896134        5.22376668286979
H            6.15600393245664        2.40847831092519        3.16485844736376
H            5.12205375182565        3.27415513207765        3.89275242257767
H            5.95227777022977        4.06102133960113        2.50269969779418
H           -2.64554662370618       -1.76338580310370       -2.63016110006189
H           -4.12215365577017       -1.83414146391231       -1.89288166940545
H           -3.16950228953169       -3.31058252017745       -1.63985582969019
H           -5.95416441294844        0.10904030083411        1.36709289971667
H           -5.32372817636005       -0.40872125051257        2.86298287621565
H           -5.69972446087192       -1.60040220521721        1.52167779623827
H           -4.67500133045950        1.42328725016837       -6.21629033066852
H           -3.32924084965249        2.64933418972843       -6.23273081523596
H           -4.74022310101015        3.17645688790167       -5.45562165500110
C           -1.66416843285423        3.47138659749034        3.51408534887186
C           -1.93245142715077        2.24959335016290        4.10114266894011
C           -0.86071615791655        1.75347170730920        5.01170248211638
C            0.47901743884910        2.18424807081625        4.84351430961852
C            0.57973375913646        3.46303744880159        4.27430050009699
C           -0.47337171394582        4.13677753562497        3.68038158740685
C           -1.02032179612790        0.52831654856213        5.75718342347120
C            0.15285556428009       -0.03421538873880        6.26429935537970
C            1.46141451500998        0.57297986671807        6.14668256638396
N            1.54217254954002        1.75518158120714        5.48093916172628
C           -2.21643196474238       -0.08678688874985        6.14507658774893
C           -2.09138015731150       -1.43637133548177        6.47272353013895
N           -1.01161610100955       -2.00548512544060        6.97226898937719
C            0.14414959442082       -1.27626086432076        7.01250306817000
C            1.34305095216434       -1.63017575262645        7.73824666789762
C            2.56370853327878       -1.04661046804809        7.45100783963718
C            2.59232084400856        0.12552471011032        6.81094164470885
C           -3.49393019614287        0.53138108781473        6.28106479739889
C           -4.63533205843232       -0.33172766291660        6.35574923379744
C           -4.51742764906193       -1.70604515712315        6.11470086201774
C           -3.27165713670716       -2.23888043441671        6.40754990670246
O           -3.64525992670673        1.89226607511411        6.37727502767639
O           -3.19349107382752        1.58242723253320        3.82393429391180
C           -0.09911082067946        5.39019796562789        2.92876312819114
C           -5.65512152805944       -2.54508188668788        5.62634697350471
H            1.58370845361110        3.87799308096942        4.26589910498332
H           -2.33742243818322        3.90111899964969        2.74267495979876
H            3.59706559075666        0.59422774825224        6.62283576715853
H            1.31574533995003       -2.47620320068469        8.46368128320166
H           -3.28207985801963       -3.35053564213424        6.69877154459998
H           -5.66360618403416        0.07274295463889        6.52161427954100
O            0.53041092375931        5.31362585094111        1.93066592459898
O           -0.30812766997424        6.58356197651604        3.64098067690690
C            0.06228801902622        7.64283525440720        2.74773345875454
C            3.72539747825275       -1.61147608070124        8.16412057600130
O            3.60906346285447       -2.38636230023306        9.15072648929837
O            4.88610952868510       -1.15565335177794        7.54605882421558
C            5.90921300946618       -2.00563306754183        7.97542463833656
O           -6.43308257020711       -2.15089691979203        4.77180373435829
O           -5.74554339708515       -3.81757581423696        6.08754319443172
C           -6.55237175765604       -4.42793377462774        5.28653920260835
C           -3.30090914927768        2.52455864475951        7.61410756133752
C           -4.33440409696276        2.42434884673971        3.82907883602423
H           -5.87213986489581       -4.87153605000333        4.53716301849199
H           -7.38962831447248       -3.82746798469202        4.80052092201966
H           -6.77972095778923       -5.34603975653069        5.90264959060888
H            6.82503525918472       -1.75364827006729        7.38047380059564
H            5.61407126164067       -3.00761438363608        7.75615720700853
H            6.02994893592562       -1.80387684065164        9.16683064445828
H           -4.08862613778481        2.96560291235511        4.77515889703936
H           -5.24278480231106        1.85173036755231        3.75916399428698
H           -4.35779493028590        3.01397890783865        2.93367588666594
H           -3.64887196066702        3.56341317580120        7.61179999387449
H           -2.16220651940601        2.51361289992561        7.60176890117418
H           -3.53211266742257        1.99430360983592        8.40938847199721
H            1.13607808837330        7.61690562678775        2.72509298457167
H           -0.28246535155802        8.62671577939368        3.35140561551519
H           -0.53624050878671        7.54016432229086        1.79827495606485
116
 energy: -22.767513159670 gnorm: 0.468906954293 xtb: 6.6.1 (8d0f1dd)
C           -2.77587786333357        0.05978379568361       -2.42853890327317
C           -2.29594337878714       -0.68646931303845       -1.32441063722440
C           -1.89688967284342        0.07282105904349       -0.23556478608012
C           -1.49366967222951        1.44259105583937       -0.41461255971592
C           -1.86068217726328        2.03330342674710       -1.68384563216742
C           -2.61646184479848        1.36142418242999       -2.60548574548192
C           -1.41685161694872       -0.68667527376244        0.90667346788659
C           -0.38691665106080        0.07629512763978        1.60464437528743
C           -0.10161004657094        1.49278002531420        1.41722436773409
N           -0.94741382840691        2.23864737061726        0.56532084527149
C           -1.86139780098206       -1.92541691075514        1.52090917083007
C           -0.97533497971300       -2.38399573822598        2.45492751884012
N            0.24992933430019       -1.94516397111838        2.74871487088579
C            0.52952596908305       -0.60923379978770        2.51218478623751
C            1.52138696889046        0.16318359700319        3.14285146008797
C            1.77944891875382        1.54951429192556        3.05922090808515
C            1.02032724792429        2.12389839176222        2.02440780881277
C           -3.27000887267131       -2.31891094829455        1.32650772250688
C           -3.52856330131730       -3.33958881450299        2.25801354962081
C           -2.65481108189237       -3.97241620535779        3.25122263252307
C           -1.38902833149776       -3.41716256849426        3.41291739147573
O           -4.30228503278089       -1.73263768847766        0.72786385439313
O           -2.26045886981556       -2.05228566081017       -1.14325799067109
C           -3.00706706569186        2.07758895143163       -3.85922839389199
C           -3.13683139237405       -4.91282355512844        4.22464016233636
H           -1.61687478787427        3.08102181788925       -1.89396493162882
H           -3.40095798428436       -0.50879645725599       -3.20159118162598
H            1.09078717464971        3.18183322367461        1.80129221346111
H            2.15291453343507       -0.37539075445915        3.78580155116746
H           -0.75489747167193       -3.87551009355288        4.20199590051628
H           -4.54009689357486       -3.80629384401477        2.11292715119656
O           -3.26732978629486        3.23573478003644       -3.76948948384761