116
 energy: -22.926639438771 gnorm: 0.341488580126 xtb: 6.6.1 (8d0f1dd)
C           -3.52050622537181        1.06694523678330       -0.29830042742131
C           -2.98835352656094        2.00213265674845        0.52333531310537
C           -1.71769238897795        1.76623234897407        1.14500808613493
C           -1.05461504791808        0.55526158981539        0.85940974275192
C           -1.48726480469982       -0.31921003603838       -0.16082328890505
C           -2.75943263290809       -0.06189060710162       -0.69791775516955
C           -1.10433719710411        2.52593807225063        2.15685449125621
C           -0.18890744208478        1.89158277599270        3.06647327140635
C            0.40439162764494        0.65245694059599        2.67870302802668
N           -0.03147444991538       -0.02537068230537        1.57084700588062
C           -1.31761882838326        3.95332583033627        2.37554587222742
C           -0.87539470587672        4.53271956359838        3.57661382460452
N           -0.16698638777159        3.90056021446410        4.44400496766546
C            0.25734420501836        2.62969411325539        4.17179215244856
C            1.16990711724905        2.03669378216869        5.04014661724633
C            1.77380140374276        0.85272830996850        4.67799649476283
C            1.29865332503782        0.09627790292565        3.62139570904549
C           -1.72539190833680        4.88112676450296        1.32115455652895
C           -2.06885598727407        6.21150655780708        1.69642197512222
C           -1.86768411312876        6.75326270772206        2.97096237663509
C           -1.24079235061782        5.88120062866283        3.83001959419479
O           -1.57782846494301        4.51826687803887       -0.07196308456402
O           -3.68763455626765        3.19675239674518        0.78173865135373
C           -3.19566226147170       -1.00480090767547       -1.76470069785476
C           -2.26171511297550        8.15757044758130        3.18392591265086
H           -0.85951148589162       -1.17348819662333       -0.37286571492821
H           -4.30672531986430        1.33962524950695       -0.92877222856963
H            1.73057869474290       -0.84613306900492        3.25882271519390
H            1.60643221741663        2.63396855857320        5.95774500831069
H           -0.75903978752149        6.28769910428032        4.62444606046212
H           -2.65961749632362        6.69005241304393        0.95966134861776
O           -2.71006209234435       -2.09852303755206       -1.94317937875261
O           -4.23956828081362       -0.59073508755764       -2.52432303603933
C           -4.57909058417828       -1.45789267642043       -3.57941297815533
C            2.85258035485476        0.21871163036534        5.50252400406577
O            3.34870702488759       -0.80186059921455        5.08559218307019
O            3.12616026768183        0.85033834669629        6.64589649478869
C            4.23074601754436        0.41499607004347        7.50736701382850
O           -3.16815413814013        8.59086989742839        2.52175192226103
O           -1.60549154245117        8.92625743236298        4.09327193504769
C           -2.14550730852659       10.18156142419750        4.26968552194637
C           -2.48399953992804        5.11007259077515       -0.91853681968621
C           -5.10601509215036        3.15388576842576        0.57506819874243
H           -1.81628601743744       10.80637742232056        3.45588412841738
H           -1.77110607924057       10.72972994992461        5.17379506019072
H           -3.25111606710481       10.11359816089409        4.19172248235409
H            4.17724300742875       -0.63833564491692        7.50142518203360
H            4.03217808823785        0.84288069530692        8.50943549095043
H            5.10889898626044        0.74599737033982        6.97491741391575
H           -5.31031138129540        3.32673624178742       -0.46548331744877
H           -5.62932475025868        3.97451829347036        1.08900721294201
H           -5.50706490823414        2.20877289503234        0.95732913095969
H           -2.87282130198688        4.36153547525930       -1.59491512504847
H           -2.04262692706328        5.91205743964371       -1.56701326348424
H           -3.39476893202545        5.58254011774464       -0.46172968620925
H           -5.50852418253803       -1.11212348747311       -4.00585915845459
H           -4.69166182821738       -2.47686628494187       -3.06649464721795
H           -3.70948760409032       -1.32106941728195       -4.32610348096545
C            0.64238592781102       -4.66797738820357        2.50743162158310
C            0.44245103289247       -3.62492563596023        3.40719896215076
C           -0.93342991326769       -3.05121822428095        3.56089481021406
C           -1.77726342805198       -3.17686800582857        2.35559002726903
C           -1.43520968261465       -4.23802190425570        1.45811673320787
C           -0.30184193400989       -5.03605114149636        1.59292464837106
C           -1.16711719691846       -2.07100788206768        4.53361845125824
C           -2.22848936856818       -1.18424467409686        4.18425615094992
C           -3.07081782573284       -1.45111778900976        3.09659668368171
N           -2.93812012601880       -2.46918960038496        2.28849698876281
C           -0.55970269520031       -1.92494673353161        5.84644835065440
C           -0.80621560665919       -0.73358704387728        6.57476592241918
N           -1.71373720850388        0.18887869844832        6.14239538176879
C           -2.49617232669813       -0.11205901856526        5.09031605854570
C           -3.53610324783773        0.78862228597814        4.80528952357434
C           -4.23501411634772        0.56929275992602        3.63405284901926
C           -4.10559680047320       -0.56146163210714        2.87712347158798
C            0.15755750480335       -2.97796929478986        6.52217759696100
C            1.00199741657991       -2.58329985423114        7.65249337092829
C            0.78392871444673       -1.36845212235050        8.26422273513987
C           -0.19852259926707       -0.47701182573509        7.80055524716264
O            0.14477268491462       -4.35737372891394        6.10480351145013
O            1.46794803291629       -3.13577965614573        4.16468198951244
C           -0.23827535837914       -6.26373073527886        0.73917170784854
C            1.44409025680698       -1.07119042508617        9.60251316712653
H           -2.14335461290429       -4.47688396253585        0.64294054700879
H            1.61697627717330       -5.20591723088489        2.47374716149201
H           -4.72395826165033       -0.75805768338072        2.05489345065171
H           -3.79082448697205        1.66122197685274        5.32994539257356
H           -0.38724906405080        0.48203864810942        8.29140111084772
H            1.69176812784631       -3.26495708527452        8.13395572651499
O            0.83517723982787       -6.69488483891492        0.47303929812776
O           -1.45704659418344       -6.78485077942960        0.31041343779439
C           -1.15632352819409       -7.74860440361329       -0.64037182240747
C           -5.47723045909517        1.20712361893374        3.37866249431171
O           -6.10622147096050        0.97043444821756        2.35950916657407
O           -5.99164351456956        2.14571941840872        4.33173211999542
C           -7.18375812967885        2.53669379470185        3.93082647715073
O            0.70336131487197       -0.61016170643129       10.44441214051782
O            2.70815938023231       -1.42916876157739        9.66719176897972
C            3.13948950113841       -1.30283646288156       10.96312908182617
C            0.73420187550061       -5.23145975892456        6.97652364339015
C            2.76532174657175       -3.53849871831980        3.68251816919485
H            2.73591015694355       -0.36891210165108       11.41842252453029
H            4.20482653512220       -1.02252479134744       10.74771217698062
H            3.06778476636836       -2.23066172097268       11.50753848702281
H           -7.74275603458856        1.62784004215097        3.75345630171810
H           -7.14511193301387        3.17549326603269        2.99382618858568
H           -7.59472127613111        3.15087771270924        4.68288565471766
H            2.72782593863861       -3.50691823655468        2.62509558441722
H            3.00985092908391       -4.57562317604758        3.94147086499036
H            3.41821282575969       -2.77599505682365        4.16842776765357
H            0.29063229748179       -6.24596550566681        6.71694423062378
H            0.32893525685247       -5.00577144458185        7.98832917984406
H            1.80485334483799       -5.12458347863386        6.72603330470373
H           -0.57755544285752       -7.13331549751927       -1.33696722638811
H           -2.15356786834099       -8.09555402145914       -1.04144796430000
H           -0.60574527764208       -8.61325424392759       -0.28703597958899
116
 energy: -22.849044270934 gnorm: 0.431328655811 xtb: 6.6.1 (8d0f1dd)
C           -3.08500707376637        0.98997002528712       -1.03203005002787
C           -2.91949669657017        1.62228749395020        0.21381144638820
C           -1.78093898499510        1.36119682014730        0.99091137726799
C           -0.99734069984303        0.15902145957099        0.75976378563239
C           -1.33831900413428       -0.52980622751372       -0.47404735673686
C           -2.29854649744113       -0.08662242884989       -1.36273205860315
C           -1.40809028132498        2.13511987941837        2.12675574052549
C           -0.40406252898480        1.60682195218496        2.98486098347177
C            0.22513534444414        0.42227746815113        2.68110015574710
N           -0.00590119101133       -0.29886693108490        1.57647048142489
C           -1.77090318526239        3.51716605173657        2.43050287132634
C           -1.50491917945948        4.02355944796819        3.69894307855195
N           -0.72132683136713        3.33790546772554        4.58496323854050
C            0.00481393802335        2.28911984769022        4.18097876497469
C            1.06299381474424        1.75210707495141        4.91060522115410
C            1.84692350542963        0.68399200294811        4.49739828087627
C            1.38596140640675        0.02032121036642        3.34420407816300
C           -1.99519626282115        4.48712256031579        1.39076619923486
C           -2.41779447970695        5.75092685456645        1.79263687159153
C           -2.39237634470639        6.19425214899480        3.17140223500936
C           -1.90697766737994        5.31957687363904        4.13704129888188
O           -1.81817708194029        4.24817721483519        0.09492581407174
O           -3.95489979411926        2.29090543773278        0.77225269405325
C           -2.57032766738473       -0.86865952736874       -2.56881681143995
C           -2.92672952216177        7.59260915625557        3.55088826621665
H           -0.70292994284143       -1.28432506713375       -0.72252007236600
H           -4.01339724655246        1.29305120938100       -1.54703182982644
H            2.00234713918600       -0.85632477193559        3.12362553377693
H            1.26133750944969        2.15398625009422        5.98184010253518
H           -2.09721046718596        5.48751684116187        5.12559115465038
H           -2.69502026068761        6.45476339531893        1.07377042667866
O           -2.10617107249983       -1.97055750364876       -2.75122090983760
O           -3.39414111694715       -0.37915919426202       -3.52567153762858
C           -3.43908711736959       -1.20188485114911       -4.61956132249066
C            2.93050663359987        0.03452105802383        5.28160596327605
O            3.48123631643238       -0.93493758649708        4.82510337708339
O            3.24889778952903        0.57527386096597        6.47059788492410
C            4.45091136355785        0.15963956743536        7.20720110647180
O           -3.51520784630628        8.26139689411833        2.67144777764506
O           -2.65177823182403        8.17460543471639        4.77210537117222
C           -3.19192625709935        9.49834461544724        4.74890324305138
C           -1.57660789021782        5.44991842253990       -0.72070319684038
C           -5.21423813685307        2.08983580001776        0.25766798491248
H           -2.55961345844196       10.25091694665401        4.26180686868148
H           -3.09066989150629        9.90107864543169        5.75829943181046
H           -4.17944878323591        9.37196285881727        4.25290521653813
H            4.37393856953025       -0.88032369331262        7.24494065837088
H            4.29664384729764        0.82811420626983        7.99293418874647
H            5.23681869019647        0.43212840633177        6.63667312988745
H           -5.60714804935639        2.93824520691577       -0.32598188921101
H           -5.88644907768864        1.96574112226265        1.20174804969875
H           -5.23622420897497        1.07238470188066       -0.12786684784908
H           -1.30887040707674        5.00932030580629       -1.75296858911786
H           -0.93736778389202        6.17801424954362       -0.38429273233349
H           -2.54110944221038        6.01451916744798       -1.06119274208446
H           -4.10626172073221       -0.87753299872724       -5.25586727642499
H           -3.78956557928504       -2.17356549396775       -4.27903617169951
H           -2.48370821581293       -1.34316179000492       -5.06833326423601
C            0.12284369704959       -4.72748014655795        2.90668614810369
C            0.10160248657498       -3.65610996700081        3.80347170073972
C           -1.11444784240035       -2.95033217805351        3.85589891312830
C           -2.10262621359193       -3.11563471132796        2.79432717207878
C           -1.90858527315757       -4.11845149478725        1.90507818509924
C           -0.87864592620857       -5.00887058331840        2.00525987458556
C           -1.35313292990170       -1.89093024284385        4.75076730013254
C           -2.37581568757984       -0.95987087710014        4.47428375797465
C           -3.23981813356895       -1.23817454973345        3.38990576649786
N           -3.19304315514074       -2.32145286301197        2.58839475048128
C           -0.66405968014983       -1.72461417826236        5.97795359135123
C           -0.54428775845182       -0.40469485046157        6.44350123753225
N           -1.45353174569679        0.57999908732124        6.16701148483574
C           -2.45060488788632        0.20100340028923        5.25811249270345
C           -3.42266404119009        1.10893228889253        4.85731684740350
C           -4.34306874171588        0.76381024846020        3.88852944698031
C           -4.27255621214717       -0.33517942431416        3.10641963629555
C            0.16324098317227       -2.68363195186006        6.62956627185234
C            1.03668594698522       -2.35942184601700        7.69922412997767
C            1.12781760897827       -0.99636173422429        8.08390540905193
C            0.30705345323175       -0.10189188062754        7.47529126981861
O           -0.08654960079332       -4.04149407202360        6.27907481416490
O            1.30625611176626       -3.18993509082338        4.38963737028025
C           -0.79048668373197       -6.26055003355488        1.14965252542742
C            1.93864072607775       -0.57036007782362        9.20731328045789
H           -2.74840206901294       -4.43694523859492        1.21380746570932
H            0.87717185105148       -5.50326690213187        2.91101174062659
H           -5.13767421127772       -0.31201526119434        2.45339382763587
H           -3.43429774119299        2.08226130789559        5.26569654709972
H            0.50085587048670        0.91078055141732        7.79843505756872
H            1.55459992191676       -3.11368901261584        8.18542358869714
O           -0.00051894184663       -7.14671867091740        1.39325719875953
O           -1.50430576824209       -6.06577997355345        0.04123218394476
C           -1.28648292733624       -7.08957011167400       -0.80656603853423
C           -5.47736836927935        1.80031826615817        3.70442409668748
O           -6.42855584290943        1.85390794122459        2.98321458219245
O           -5.10401249521783        2.94362730090821        4.34254290062624
C           -6.31025918809585        3.67277621606994        4.61049506148613
O            2.00941983812999        0.63918810869949        9.50430016958312
O            2.73113947792774       -1.61423198290230        9.72971095762727
C            3.66180570934942       -1.24489039967875       10.76598351663997
C            0.89789694310369       -4.90811042813331        6.94546844377989
C            2.54964491579340       -3.57383500292295        3.68455701436378
H            4.67528466622772       -1.25966324933717       10.40432538075331
H            3.51429625259196       -1.90923454564621       11.59773683748635
H            3.25953070747164       -0.33104385451057       11.13788398225782
H           -6.95861620077608        2.97978331493098        5.16690534327283
H           -6.59198430651171        3.94854229737104        3.58281875226139
H           -6.07775114910064        4.71562928283664        4.95502917470323
H            3.06683894379797       -2.62730571457945        3.53436075165901
H            2.22380319857473       -4.00975931337346        2.71543174592365
H            3.13409892833868       -4.17881226155750        4.21594838395967
H            1.87691985845515       -4.50829756092476        7.00473984681395
H            1.12865303118807       -5.74235158408815        6.26474444752293
H            0.49668521564343       -5.21493519197337        7.89644402288045
H           -0.37374748197273       -6.97387258499261       -1.46899166568671
H           -2.25461618679691       -7.34504120881868       -1.23493406679885
H           -0.99923168139914       -8.00033323271313       -0.20074962238507
116
 energy: -22.875623926981 gnorm: 0.399071050387 xtb: 6.6.1 (8d0f1dd)
C           -2.56957457607015        0.35967314710370       -1.04189783813850
C           -2.48301628951445        0.93569256224643        0.20229281252107
C           -1.16382959409310        0.98985291855072        0.73891100605335
C           -0.25734638335527       -0.04603366864244        0.44100575113091
C           -0.50140789304172       -0.77541991582398       -0.77247078737892
C           -1.57856203367964       -0.40176835262907       -1.57599398342525
C           -0.88343325176151        1.88176040203483        1.80209255650143
C            0.18527828822594        1.54003777869090        2.62004565174157
C            1.09905195035577        0.38634723837222        2.18383546376944
N            0.88491686777906       -0.40895482551858        1.11072545978508
C           -1.60764516772556        3.09685678878884        2.04771040218952
C           -1.37524337628487        3.73484410032869        3.31781813830570
N           -0.52074490484481        3.21920487701870        4.21890596047143
C            0.33296057337905        2.28879074210361        3.82009476128326
C            1.37844000200121        1.81081645043247        4.63183540811145
C            2.09969962312495        0.65846506643735        4.35190047616790
C            1.96810213917915       -0.02345367331625        3.15022208032721
C           -2.38481533374565        3.94809999411628        1.08390530266956
C           -3.01617778378519        5.11342384428194        1.54439037538699
C           -2.94125660627470        5.53108242991963        2.83738529929688
C           -2.14023743477383        4.82514998974314        3.73464123318628
O           -2.17012438675466        3.73599883290556       -0.25826891328152
O           -3.56850448296727        1.52865517703404        0.77020834028381
C           -1.93911897287168       -1.21860337859631       -2.77723001856756
C           -3.86128390277529        6.62989263224606        3.33353263315815
H            0.15443360181504       -1.48751422270894       -1.15287146361473
H           -3.57476048381897        0.28681660124859       -1.52958635869249
H            2.70659158115225       -0.82303575125916        2.92848228748585
H            1.46725948599167        2.11506709242323        5.69135834573029
H           -2.04252224264563        5.20928251053082        4.69722217466458
H           -3.63953008846152        5.52393694635447        0.88505372064032
O           -1.16867674053419       -2.12178091626963       -3.12139518661539
O           -3.16964261505740       -1.02752430004447       -3.38554424203506
C           -3.40525809011416       -2.18713551475679       -4.18273492949363
C            3.18961854476338        0.12951663874990        5.25882318853712
O            3.72470832342065       -0.93635516947460        4.95595886509338
O            3.39851484187469        0.67428543939134        6.52673063819540
C            4.27293656719876       -0.06835164156748        7.40248368583895
O           -4.60064820948291        7.15356539909077        2.54290413434578
O           -3.90993384519648        6.87085817518612        4.72443359793758
C           -4.61600115282823        8.05924794402909        4.91353316765009
C           -3.10620979742667        4.44557230413281       -0.99348696497551
C           -4.84401783408321        1.22686677372235        0.47085837092348
H           -5.11418917447135        8.63253953013083        4.09086856269386
H           -4.02874315848082        8.85504055160350        5.35739410331050
H           -5.49323610612555        7.73327351829686        5.49275244909149
H            3.78263190122482       -0.94340344223449        7.91589823486546
H            4.69072132021381        0.56041222883957        8.12424026086196
H            5.18225648436893       -0.41529854964539        6.85653921452893
H           -4.94603912477112        1.76975248384596       -0.53845817668772
H           -5.53686855937061        1.75332725379115        1.12644600869317
H           -5.13519168637177        0.20019103527350        0.35936600827748
H           -2.92748549708308        4.46836292567380       -2.05885834448789
H           -2.94821139616103        5.47976441882168       -0.78690293924990
H           -4.17753176050598        4.20251977854841       -0.62634149564339
H           -4.41000275765669       -2.36689048555167       -4.06192571461291
H           -2.67819808315316       -3.04932174190368       -4.07021953453636
H           -3.14153339557562       -1.82329130066451       -5.21261326802085
C            0.10959178961347       -3.98375744441668        2.58521800121210
C            0.29775893178108       -2.85098792867932        3.26036500253577
C           -0.82939262817700       -2.00006199045466        3.44834068772399
C           -1.96374426901100       -2.00421428931347        2.49825165138426
C           -1.99937017192683       -3.17940326795390        1.66342651992268
C           -0.98957977120802       -4.12306684886535        1.80508457960814
C           -0.96796529784528       -1.08647564100453        4.58733917246000
C           -1.91410418273556       -0.07228758843980        4.51462987282932
C           -2.87455343462113       -0.02128406503396        3.44684122019886
N           -2.96080566270380       -1.10094163288209        2.57100079443833
C           -0.30631560458030       -1.19817284002035        5.89716227841193
C           -0.37217396600894       -0.08774253967923        6.80089392519162
N           -1.22987603064859        0.93395085977405        6.60747644607914
C           -2.03049058838389        0.89678498469427        5.52823707177949
C           -3.11838394688138        1.82046551526869        5.54944011848371
C           -3.93779479168867        1.98952558894778        4.43197692397367
C           -3.84311125039119        0.98888651976165        3.39344101162805
C            0.16556617278218       -2.45564790812254        6.44057744301532
C            0.99770927941231       -2.45138315417356        7.52207667520795
C            0.98187820266269       -1.26922301694317        8.36396553705591
C            0.29496238303914       -0.17991322930121        8.06541254895873
O           -0.08699750592517       -3.68172623862203        5.74856541021840
O            1.36364947180846       -2.57975016730993        4.08008478984501
C           -1.04556153293229       -5.30828456722068        0.91981159917986
C            2.01285542920448       -1.29027827318305        9.44663257990742
H           -2.94736301898523       -3.40998360348272        1.05829933747120
H            0.78685162082185       -4.74491828592542        2.81825660854902
H           -4.50638093192884        0.90658167530174        2.56663829400276
H           -3.34703081859525        2.42869508739316        6.39497671071683
H            0.34554457893322        0.59453820354252        8.81899765191405
H            1.46167696289899       -3.34071702170744        7.81691627237661
O           -0.07550806919318       -5.73872657328535        0.29225131429329
O           -2.24745370155515       -5.83263730828900        0.67323664621001
C           -2.27610668946968       -6.63704734705624       -0.52763140272728
C           -4.91241055300751        3.10150542282053        4.37212736861680
O           -5.47980586203339        3.36079656037052        3.32891814538385
O           -5.08421988849028        3.74050848671999        5.53607855273185
C           -5.99622777434500        4.80464875080274        5.58100541465574
O            2.12649194073804       -0.29365312258108       10.10660707117314
O            2.69963540286399       -2.43626138882030        9.79699015978637
C            3.45274143448031       -2.42165862198681       10.94467397497032
C           -0.72654887242441       -4.67241962652413        6.53058872789842
C            2.49725659266629       -3.48543443196940        4.07227982215528
H            2.85366773252827       -1.89861264652867       11.75938189502959
H            4.27974864636258       -1.78556162906039       10.71090997808782
H            3.78407174945196       -3.48256571866193       11.22254721746453
H           -6.90416799266727        4.55202788746771        6.18551355386527
H           -6.33617307178364        4.93490317236847        4.56789063155332
H           -5.52920080366049        5.72442370890421        5.92575856571868
H            3.23080643788683       -2.83852602110245        4.40587485157707
H            2.72283510487156       -3.66800277691951        2.99765820330698
H            2.24604651895923       -4.31570191083282        4.60448019290845
H           -0.21855861281726       -5.54757375318963        6.32008280654610
H           -1.75115400872535       -4.65052324316044        6.36723340667642
H           -0.72747620166988       -4.30303436727492        7.58236022886742
H           -2.03821995999427       -6.02076695915619       -1.45568873146567
H           -3.24006024755744       -7.09021566040645       -0.67171863527285
H           -1.52462551536634       -7.41000257641627       -0.43516330221329
116
 energy: -22.904232766206 gnorm: 0.394002585751 xtb: 6.6.1 (8d0f1dd)
C           -2.68757474544457       -0.48232243379404       -0.99852248291055
C           -2.68925078658876        0.33920604225627        0.15788260434197
C           -1.45687141832466        0.59296807952485        0.79150314562649
C           -0.33883959238408       -0.27622271565383        0.49971875426408
C           -0.35606903138049       -1.04215441495315       -0.68757285204944
C           -1.52336631713691       -1.07468693454619       -1.47714911506688
C           -1.22377801118171        1.56312321359631        1.84539705747272
C           -0.11315900831688        1.38210120293796        2.70016993975215
C            0.83963703155632        0.34265506844029        2.42902319777393
N            0.79779425276517       -0.43889562758267        1.30240981801648
C           -1.96705654488909        2.82057579832476        2.08587818285367
C           -1.68476411082626        3.55176154068320        3.27189051011049
N           -0.72177999461505        3.09419143219343        4.25810521931223
C            0.10379304311609        2.07890301263207        3.93719285418914
C            1.22587802932448        1.83228182173322        4.80135664323347
C            2.07887204735251        0.86025593733029        4.42249972893571
C            1.98200223041793        0.28657285509175        3.22323257480221
C           -2.54852529809412        3.61145761415401        0.93497118346677
C           -3.16268413771037        4.82314949835244        1.13869003975395
C           -3.11992458705142        5.30945170379107        2.44820663443184
C           -2.42515493909807        4.71825230703508        3.47924348407408
O           -2.27226670324162        3.22269866638748       -0.38505540264793
O           -3.77788474154407        1.07886496551773        0.49716823486558
C           -1.53521566433931       -1.69785240479983       -2.85405583486997
C           -3.59058909381217        6.67909335884719        2.63279152463808
H            0.60712147467175       -1.39609537358316       -0.99346772313302
H           -3.54120949874915       -0.79378752749088       -1.55179439904383
H            2.73212119044053       -0.51855266305991        2.92450077359852
H            1.43436380585509        2.54302084618414        5.61432891841526
H           -2.26920259553628        5.19950348688765        4.37093653556620
H           -3.71138435356945        5.34285566724944        0.41657418540395
O           -0.66541954550894       -2.44232959884678       -3.30420895159117