302
 energy: -414.413274056038 gnorm: 0.156438516157 xtb: 6.7.1 (edcfbbe)
C            2.19420000000000        1.02190000000000        0.16990000000000
C            1.79420000000000       -0.22510000000000        0.64490000000000
C            2.77700000000000       -1.12360000000000        1.18400000000000
C            4.10420000000000       -0.62510000000000        1.31390000000000
C            4.43770000000000        0.63060000000000        0.77910000000000
C            3.51010000000000        1.46840000000000        0.22100000000000
C            2.53060000000000       -2.46550000000000        1.67380000000000
C            3.50190000000000       -2.97530000000000        2.56340000000000
C            4.76890000000000       -2.34770000000000        2.68770000000000
N            5.09720000000000       -1.25040000000000        1.98670000000000
C            1.45760000000000       -3.36250000000000        1.36530000000000
C            1.26720000000000       -4.48900000000000        2.22080000000000
N            2.09700000000000       -4.82630000000000        3.23080000000000
C            3.23270000000000       -4.12370000000000        3.35310000000000
C            4.18100000000000       -4.54120000000000        4.30120000000000
C            5.40790000000000       -3.91820000000000        4.44400000000000
C            5.69760000000000       -2.85640000000000        3.60650000000000
C            0.60620000000000       -3.27710000000000        0.19690000000000
C           -0.48550000000000       -4.16910000000000        0.09280000000000
C           -0.72970000000000       -5.18460000000000        0.99240000000000
C            0.17700000000000       -5.35240000000000        2.01550000000000
O            0.42840000000000       -0.48820000000000        0.60590000000000
C           -3.77200000000000       -2.14430000000000       -0.81760000000000
C           -2.80730000000000       -1.28930000000000       -0.28660000000000
C           -3.21510000000000       -0.05800000000000        0.31850000000000
C           -4.58280000000000       -0.00260000000000        0.73130000000000
C           -5.51530000000000       -0.89820000000000        0.16680000000000
C           -5.13710000000000       -1.92330000000000       -0.66520000000000
C           -2.36660000000000        1.08150000000000        0.61160000000000
C           -2.87100000000000        1.92940000000000        1.62600000000000
C           -4.15520000000000        1.70130000000000        2.20450000000000
N           -5.03310000000000        0.81610000000000        1.70320000000000
C           -1.29150000000000        1.61650000000000       -0.19100000000000
C           -0.89550000000000        2.96370000000000        0.10710000000000
N           -1.14150000000000        3.58170000000000        1.28910000000000
C           -2.16380000000000        3.09950000000000        2.01610000000000
C           -2.67160000000000        3.90110000000000        3.05460000000000
C           -3.89210000000000        3.65420000000000        3.65780000000000
C           -4.61240000000000        2.55690000000000        3.21920000000000
C           -0.78620000000000        1.08020000000000       -1.45530000000000
C           -0.36850000000000        1.99800000000000       -2.44930000000000
C           -0.17360000000000        3.34080000000000       -2.20290000000000
C           -0.35570000000000        3.78090000000000       -0.90690000000000
O           -1.52450000000000       -1.78350000000000       -0.21700000000000
B           -0.22450000000000       -1.17770000000000       -0.53800000000000
N            0.77150000000000       -2.33310000000000       -0.81850000000000
C            2.20360000000000       -3.10660000000000       -2.65030000000000
C            1.99760000000000       -2.11270000000000       -1.52670000000000
N           -0.53910000000000       -0.24410000000000       -1.70730000000000
C           -1.16830000000000       -2.14480000000000       -3.15490000000000
C           -0.50540000000000       -0.79120000000000       -3.03280000000000
C           -4.53800000000000        4.69060000000000        4.59170000000000
C           -5.54020000000000        4.01520000000000        5.54780000000000
C           -3.47640000000000        5.41220000000000        5.43980000000000
C           -5.28060000000000        5.72730000000000        3.73250000000000
C            0.21110000000000        4.28210000000000       -3.35630000000000
C           -0.90240000000000        4.23990000000000       -4.41920000000000
C            0.36810000000000        5.73720000000000       -2.87550000000000
C            1.53970000000000        3.83360000000000       -3.99100000000000
C           -6.19520000000000       -2.82470000000000       -1.31670000000000
C           -7.25500000000000       -1.94790000000000       -2.01090000000000
C           -5.57150000000000       -3.74960000000000       -2.37950000000000
C           -6.86950000000000       -3.68940000000000       -0.23970000000000
C           -1.89270000000000       -6.17280000000000        0.81760000000000
C           -1.36620000000000       -7.44010000000000        0.12550000000000
C           -2.49140000000000       -6.54930000000000        2.18830000000000
C           -3.01670000000000       -5.56060000000000       -0.03720000000000
C            6.44270000000000       -4.35600000000000        5.48950000000000
C            6.83250000000000       -3.14200000000000        6.35350000000000
C            5.88710000000000       -5.45170000000000        6.41820000000000
C            7.68840000000000       -4.90340000000000        4.77210000000000
C            3.95340000000000        2.81590000000000       -0.36580000000000
C            5.09550000000000        3.43290000000000        0.46800000000000
H            5.32740000000000        4.43960000000000        0.12110000000000
H            6.01130000000000        2.84880000000000        0.39300000000000
H            4.81560000000000        3.49680000000000        1.51900000000000
C            4.43930000000000        2.58250000000000       -1.80510000000000
H            5.29650000000000        1.90980000000000       -1.81930000000000
H            4.73670000000000        3.51900000000000       -2.27610000000000
H            3.65340000000000        2.12900000000000       -2.40850000000000
C            2.79140000000000        3.81860000000000       -0.37080000000000
H            2.36470000000000        3.92160000000000        0.62560000000000
H            2.00860000000000        3.49060000000000       -1.04780000000000
H            3.12220000000000        4.80290000000000       -0.70130000000000
H            5.95010000000000       -2.70710000000000        6.82030000000000
H            7.31340000000000       -2.36500000000000        5.76130000000000
H            7.52440000000000       -3.43210000000000        7.14260000000000
H            4.99480000000000       -5.10500000000000        6.93650000000000
H            6.62130000000000       -5.72630000000000        7.17510000000000
H            5.63600000000000       -6.35320000000000        5.86040000000000
H            1.48640000000000        2.80620000000000       -4.34820000000000
H            2.35430000000000        3.89990000000000       -3.27270000000000
H            1.79610000000000        4.46690000000000       -4.84000000000000
H           -0.55910000000000        6.10750000000000       -2.43880000000000
H            0.62640000000000        6.39270000000000       -3.70680000000000
H            1.15880000000000        5.82340000000000       -2.13100000000000
H           -1.85720000000000        4.53910000000000       -3.98770000000000
H           -1.02020000000000        3.23680000000000       -4.82750000000000
H           -0.67950000000000        4.91330000000000       -5.24650000000000
H           -6.04990000000000        5.24840000000000        3.12740000000000
H           -4.59200000000000        6.23370000000000        3.05660000000000
H           -5.75990000000000        6.48140000000000        4.35630000000000
H           -2.88490000000000        4.69110000000000        5.99540000000000
H           -3.94230000000000        6.08480000000000        6.15940000000000
H           -2.80210000000000        6.00750000000000        4.82640000000000
H           -5.08000000000000        3.16170000000000        6.03930000000000
H           -6.42500000000000        3.66330000000000        5.01950000000000
H           -5.87550000000000        4.70860000000000        6.31870000000000
H           -5.03030000000000       -3.17270000000000       -3.12900000000000
H           -6.34240000000000       -4.32370000000000       -2.89290000000000
H           -4.88260000000000       -4.46250000000000       -1.92920000000000
H           -7.33580000000000       -3.06860000000000        0.52400000000000
H           -6.14280000000000       -4.33800000000000        0.24740000000000
H           -7.64270000000000       -4.32170000000000       -0.67540000000000
H           -6.79040000000000       -1.29740000000000       -2.75140000000000
H           -7.78330000000000       -1.31910000000000       -1.29580000000000
H           -7.99680000000000       -2.56280000000000       -2.52010000000000
H            8.13980000000000       -4.14520000000000        4.13340000000000
H            7.42770000000000       -5.75630000000000        4.14600000000000
H            8.44130000000000       -5.22760000000000        5.49010000000000
H            6.64780000000000       -2.36070000000000        3.67780000000000
H            3.92330000000000       -5.38180000000000        4.91690000000000
H            5.46590000000000        0.93210000000000        0.84950000000000
H            0.08250000000000       -6.19390000000000        2.67550000000000
H            1.43160000000000        1.65260000000000       -0.24140000000000
H           -1.14860000000000       -4.03290000000000       -0.73840000000000
H           -3.42780000000000       -3.03240000000000       -1.31070000000000
H           -0.10290000000000        1.62360000000000       -3.41950000000000
H           -6.55050000000000       -0.76700000000000        0.42300000000000
H           -0.16900000000000        4.80770000000000       -0.65350000000000
H           -5.59530000000000        2.36800000000000        3.60820000000000
H           -2.12000000000000        4.78680000000000        3.30560000000000
H           -1.78470000000000       -7.11480000000000        2.79330000000000
H           -3.38100000000000       -7.16700000000000        2.06730000000000
H           -2.77670000000000       -5.65800000000000        2.74460000000000
H           -2.69020000000000       -5.39840000000000       -1.06350000000000
H           -3.33770000000000       -4.60780000000000        0.38050000000000
H           -3.88300000000000       -6.22090000000000       -0.07210000000000
H           -0.58280000000000       -7.90980000000000        0.71970000000000
H           -0.94620000000000       -7.20030000000000       -0.85100000000000
H           -2.16450000000000       -8.16780000000000       -0.01780000000000
H            0.53420000000000       -0.82210000000000       -3.37260000000000
H           -1.01660000000000       -0.09400000000000       -3.70570000000000
H           -0.72490000000000       -2.85930000000000       -2.46400000000000
H           -1.08520000000000       -2.55830000000000       -4.16250000000000
H           -2.22890000000000       -2.07690000000000       -2.91400000000000
H            2.82610000000000       -2.19140000000000       -0.81740000000000
H            2.01360000000000       -1.07990000000000       -1.88930000000000
H            2.18650000000000       -4.12890000000000       -2.26900000000000
H            3.15810000000000       -2.95740000000000       -3.15970000000000
H            1.41630000000000       -3.03240000000000       -3.40050000000000
C            0.61110000000000        1.75020000000000        8.96380000000000
C            1.12390000000000        0.64330000000000        8.28350000000000
C            2.44290000000000        0.15140000000000        8.63610000000000
C            3.21060000000000        1.00280000000000        9.49270000000000
C            2.63490000000000        2.14640000000000       10.07790000000000
C            1.32500000000000        2.49150000000000        9.89350000000000
C            3.04320000000000       -1.14530000000000        8.33850000000000
C            4.24470000000000       -1.46070000000000        9.01410000000000
C            4.98490000000000       -0.45210000000000        9.68200000000000
N            4.49290000000000        0.77960000000000        9.86920000000000
C            2.52550000000000       -2.23400000000000        7.56050000000000
C            2.94810000000000       -3.56480000000000        7.87200000000000
N            4.06470000000000       -3.84500000000000        8.57040000000000
C            4.75130000000000       -2.79280000000000        9.04420000000000
C            5.99440000000000       -3.04040000000000        9.64920000000000
C            6.76080000000000       -2.04050000000000       10.21690000000000
C            6.23900000000000       -0.75910000000000       10.23250000000000
C            1.59850000000000       -2.10660000000000        6.46550000000000
C            0.84060000000000       -3.23620000000000        6.09050000000000
C            1.08510000000000       -4.49920000000000        6.59310000000000
C            2.18410000000000       -4.65610000000000        7.41570000000000
O            0.22230000000000        0.22460000000000        7.30560000000000
C           -3.06340000000000       -1.90760000000000        5.04830000000000
C           -2.31300000000000       -0.93890000000000        5.71180000000000
C           -2.96840000000000        0.26400000000000        6.16750000000000
C           -4.39920000000000        0.17050000000000        6.24870000000000
C           -5.08850000000000       -0.79950000000000        5.48840000000000
C           -4.42920000000000       -1.80740000000000        4.83270000000000
C           -2.37790000000000        1.51370000000000        6.65040000000000
C           -3.17700000000000        2.22070000000000        7.57610000000000
C           -4.50640000000000        1.79710000000000        7.86590000000000
N           -5.15030000000000        0.89400000000000        7.10700000000000
C           -1.24210000000000        2.24400000000000        6.15330000000000
C           -0.97500000000000        3.54160000000000        6.68160000000000
N           -1.61540000000000        4.06440000000000        7.75000000000000
C           -2.71730000000000        3.42620000000000        8.17280000000000
C           -3.49690000000000        4.04050000000000        9.16650000000000
C           -4.73620000000000        3.55880000000000        9.54330000000000
C           -5.23730000000000        2.46290000000000        8.86280000000000
C           -0.43960000000000        1.84760000000000        5.02090000000000
C            0.34770000000000        2.80600000000000        4.34320000000000
C            0.58510000000000        4.06030000000000        4.86140000000000
C           -0.04590000000000        4.38950000000000        6.04450000000000
O           -1.01100000000000       -1.33600000000000        5.92780000000000
B            0.07560000000000       -0.37240000000000        5.93730000000000
N            1.47300000000000       -0.95080000000000        5.72950000000000
C            3.74880000000000       -0.47550000000000        4.95700000000000
C            2.47330000000000        0.05790000000000        5.55670000000000
N           -0.23810000000000        0.52810000000000        4.73050000000000
C           -0.91280000000000       -1.07840000000000        2.99490000000000
C            0.04650000000000        0.00880000000000        3.42470000000000
C           -5.53340000000000        4.28630000000000       10.63460000000000
C           -6.83730000000000        3.54130000000000       10.97920000000000
C           -4.67910000000000        4.38100000000000       11.91280000000000
C           -5.88990000000000        5.69960000000000       10.14150000000000
C            1.55010000000000        5.01100000000000        4.13890000000000
C            0.94470000000000        5.40880000000000        2.78260000000000
C            1.80710000000000        6.28960000000000        4.95800000000000
C            2.89870000000000        4.29900000000000        3.91580000000000
C           -5.13760000000000       -2.85770000000000        3.97110000000000
C           -6.55680000000000       -2.40010000000000        3.58800000000000
C           -4.33600000000000       -3.07310000000000        2.67370000000000
C           -5.22270000000000       -4.18050000000000        4.74890000000000
C            0.19090000000000       -5.70460000000000        6.27150000000000
C            1.00880000000000       -6.77460000000000        5.52890000000000
C           -0.34960000000000       -6.29410000000000        7.58740000000000
C           -1.01250000000000       -5.29330000000000        5.40350000000000
C            8.12030000000000       -2.38610000000000       10.84240000000000
C            8.84330000000000       -1.12950000000000       11.36400000000000
C            7.90350000000000       -3.35090000000000       12.02170000000000
C            9.01650000000000       -3.05490000000000        9.78370000000000
C            0.68780000000000        3.66790000000000       10.64860000000000
C            1.49010000000000        4.02320000000000       11.91680000000000
H            0.97500000000000        4.78790000000000       12.49810000000000
H            2.47550000000000        4.41550000000000       11.66820000000000
H            1.61690000000000        3.14850000000000       12.55430000000000
C            0.65040000000000        4.89750000000000        9.73020000000000
H            1.65620000000000        5.18110000000000        9.42130000000000
H            0.19450000000000        5.74970000000000       10.23330000000000
H            0.07430000000000        4.68940000000000        8.83310000000000
C           -0.73870000000000        3.29240000000000       11.09080000000000
H           -0.72450000000000        2.40870000000000       11.72810000000000
H           -1.37560000000000        3.07580000000000       10.23720000000000
H           -1.20060000000000        4.10520000000000       11.65040000000000
H            8.26850000000000       -0.64370000000000       12.15200000000000
H            9.00770000000000       -0.41100000000000       10.56140000000000
H            9.81660000000000       -1.38850000000000       11.78060000000000
H            7.25610000000000       -2.90020000000000       12.77340000000000
H            8.85030000000000       -3.60350000000000       12.49870000000000
H            7.43740000000000       -4.27870000000000       11.69240000000000
H            2.78960000000000        3.42780000000000        3.27130000000000
H            3.31760000000000        3.96280000000000        4.86400000000000
H            3.61940000000000        4.96870000000000        3.44700000000000
H            0.88690000000000        6.85450000000000        5.10510000000000
H            2.51350000000000        6.94180000000000        4.44480000000000
H            2.22620000000000        6.05000000000000        5.93510000000000
H            0.00750000000000        5.94660000000000        2.92040000000000
H            0.73510000000000        4.52890000000000        2.17720000000000
H            1.62360000000000        6.05150000000000        2.22260000000000
H           -6.48120000000000        5.65060000000000        9.22730000000000
H           -4.99350000000000        6.28100000000000        9.92880000000000
H           -6.46920000000000        6.23950000000000       10.89020000000000
H           -4.38460000000000        3.38840000000000       12.25270000000000
H           -5.23390000000000        4.86250000000000       12.71770000000000
H           -3.77230000000000        4.95990000000000       11.74320000000000
H           -6.63040000000000        2.52280000000000       11.30700000000000
H           -7.50620000000000        3.49980000000000       10.12010000000000
H           -7.37010000000000        4.04680000000000       11.78440000000000
H           -4.23160000000000       -2.13630000000000        2.12970000000000
H           -4.83570000000000       -3.79040000000000        2.02530000000000
H           -3.33450000000000       -3.44900000000000        2.87410000000000
H           -5.78080000000000       -4.04780000000000        5.67520000000000
H           -4.22970000000000       -4.54700000000000        5.00680000000000
H           -5.72170000000000       -4.94890000000000        4.15860000000000
H           -6.52840000000000       -1.43510000000000        3.08230000000000
H           -7.19500000000000       -2.31050000000000        4.46610000000000
H           -7.02640000000000       -3.11850000000000        2.91700000000000
H            9.15760000000000       -2.39590000000000        8.92730000000000
H            8.58010000000000       -3.98580000000000        9.42420000000000
H            9.99850000000000       -3.28700000000000       10.19530000000000
H            6.77420000000000        0.04060000000000       10.70860000000000
H            6.34730000000000       -4.05500000000000        9.66130000000000
H            3.25790000000000        2.71850000000000       10.73960000000000
H            2.46580000000000       -5.63740000000000        7.75040000000000
H           -0.38170000000000        2.05780000000000        8.69580000000000
H            0.06940000000000       -3.08480000000000        5.36110000000000
H           -2.54460000000000       -2.78280000000000        4.70630000000000
H            0.86870000000000        2.50880000000000        3.45270000000000
H           -6.16160000000000       -0.75220000000000        5.47720000000000
H            0.11060000000000        5.35650000000000        6.48350000000000
H           -6.23000000000000        2.10640000000000        9.06330000000000
H           -3.11520000000000        4.93980000000000        9.61360000000000
H            0.46000000000000       -6.64440000000000        8.22640000000000
H           -1.01150000000000       -7.13800000000000        7.39430000000000
H           -0.91180000000000       -5.54290000000000        8.14150000000000
H           -0.68830000000000       -4.86860000000000        4.45490000000000
H           -1.62320000000000       -4.55380000000000        5.92010000000000
H           -1.64620000000000       -6.15250000000000        5.18600000000000
H            1.82570000000000       -7.14630000000000        6.14610000000000
H            1.44150000000000       -6.36570000000000        4.61870000000000
H            0.38370000000000       -7.62410000000000        5.25450000000000
H            1.07600000000000       -0.36220000000000        3.40580000000000
H            0.00480000000000        0.83120000000000        2.70230000000000
H           -0.82360000000000       -1.94910000000000        3.64230000000000
H           -0.73280000000000       -1.41360000000000        1.97200000000000
H           -1.94300000000000       -0.72380000000000        3.04530000000000
H            2.67240000000000        0.54060000000000        6.51370000000000
H            2.05790000000000        0.85230000000000        4.92880000000000
H            4.15850000000000       -1.28640000000000        5.56060000000000
H            4.51790000000000        0.29370000000000        4.85890000000000
H            3.55160000000000       -0.87510000000000        3.96460000000000
302
 energy: -414.445119564557 gnorm: 0.074798525781 xtb: 6.7.1 (edcfbbe)
C            2.19489742056403        1.02400427031648        0.16860941282218
C            1.79037201738145       -0.22590227184672        0.62562153455448
C            2.75660432327212       -1.12159840235253        1.18381462654689
C            4.09414211808558       -0.62418386753879        1.31778281266218
C            4.44591420672683        0.62677559745347        0.77561345862744
C            3.51955056444498        1.46900760954127        0.21561593889823
C            2.52451648004226       -2.46463204234575        1.66379058162141
C            3.49628103684587       -2.97207933418116        2.55525343161740
C            4.76419161916174       -2.34283701372566        2.68623059689037
N            5.08226348195381       -1.25508644580626        1.97827822302094
C            1.45944058902809       -3.36624207835760        1.33973926903641
C            1.27034562940903       -4.49035223858862        2.20808066610166
N            2.09723561661832       -4.81338688257560        3.21643229521866
C            3.23354814999791       -4.12499949133015        3.34258612187006
C            4.17894700364460       -4.54395567521874        4.30230889018106
C            5.40970282933573       -3.92038487407209        4.44582616133104
C            5.70240398078409       -2.85624740062954        3.60242697458411
C            0.60888054202038       -3.28599569041296        0.19256411330107
C           -0.47668351855007       -4.16609640728154        0.08975397000173
C           -0.72869568389348       -5.18994329888610        0.99587287946505
C            0.17755701345994       -5.35947219883727        2.01846714298666
O            0.44360281369241       -0.47634905698113        0.59212136330639
C           -3.75992667497357       -2.14574902916579       -0.80538319463277
C           -2.79146733659100       -1.29437351230269       -0.27011725854124
C           -3.19469059139177       -0.06876632856053        0.31982181165386
C           -4.56773358325139       -0.01000351962554        0.73151435152548
C           -5.51339711371165       -0.89659385372055        0.16667072441055
C           -5.13426664237933       -1.92242935122856       -0.66634197525604
C           -2.36516792508396        1.07858666021011        0.59664932710044
C           -2.86875936873979        1.92274936530579        1.61720459252014
C           -4.15092267959170        1.70105852843309        2.19735756141561
N           -5.01412527686038        0.81534416554622        1.68946777734265
C           -1.30371208056862        1.61058279942858       -0.21527212750654
C           -0.91426658122123        2.95856429993739        0.08954519676063
N           -1.16820742916019        3.57341085962763        1.26163915691380
C           -2.16880289173217        3.09616558500952        2.00549344919319
C           -2.66813132783800        3.90412191040789        3.05174338569847
C           -3.89918788934143        3.66609216693176        3.64655751643467
C           -4.61645627435101        2.55750879720790        3.21525120093263
C           -0.77171573600593        1.08287331810881       -1.45940632562334
C           -0.36623389475219        2.00243237507329       -2.44604405203784
C           -0.18927760869514        3.35799601822856       -2.20468347861804
C           -0.35793094225848        3.79062469550829       -0.90580227026263
O           -1.53261870565350       -1.78464278319467       -0.18807436656464
B           -0.24243693627169       -1.17581084383371       -0.52912464302736
N            0.74249391949287       -2.34167436483368       -0.82404755801567
C            2.19744531360911       -3.11589436024941       -2.64918525757537
C            1.99419999711090       -2.12580778889973       -1.50863185878037
N           -0.54696655649944       -0.23873910725441       -1.70377607514094
C           -1.17405295231099       -2.14027682815777       -3.15803804216499
C           -0.51291516135514       -0.77576652809213       -3.04512367068733
C           -4.53781692480473        4.68987115143857        4.59060444312220
C           -5.54053740977413        4.01896318879051        5.54055466457780
C           -3.48231825030881        5.41606508937086        5.43192193795196
C           -5.27811512437322        5.72196800926822        3.72662595579011
C            0.20917640911726        4.28789676582979       -3.35348019645807
C           -0.90260559908442        4.23841510901394       -4.41409902475711
C            0.36775583146203        5.73718072685187       -2.87628083437872
C            1.53447804776654        3.83519168273472       -3.98798331245689
C           -6.18811705920186       -2.82190975440147       -1.31901669767435
C           -7.24901332127798       -1.94728468000324       -2.00838991613501
C           -5.57088162998398       -3.74716510983499       -2.37780068796254
C           -6.86545732574411       -3.68421078549067       -0.24311006571594
C           -1.89264965478037       -6.16956451624930        0.81955920184802
C           -1.36290577999127       -7.43494823066788        0.12788955925401
C           -2.48886411163102       -6.54862069985815        2.18531017644202
C           -3.01321607681366       -5.56200691694917       -0.03494600319626
C            6.43991311686152       -4.35910730345815        5.48789696724700
C            6.83084620335312       -3.14418267942865        6.34515523328254
C            5.88867673766616       -5.45145914170763        6.41378996397156
C            7.68428611101088       -4.90116126598456        4.76837309982619
C            3.95625438474331        2.81716730399136       -0.35984956549088
C            5.09729095520475        3.43042936784794        0.46802322563025
H            5.31791492191251        4.43626007215390        0.11431627526793
H            6.01299097183182        2.85043886888755        0.38955475536430
H            4.81475500912235        3.49251384427649        1.51685270975252
C            4.43933735273708        2.57816475867327       -1.79853371940468
H            5.29665624658371        1.90761268160993       -1.81165936299703
H            4.73458926613596        3.51712155775221       -2.26510097668368
H            3.65161753833418        2.12656807660362       -2.39972171388319