116
 energy: -22.928061455056 gnorm: 0.329736929581 xtb: 6.6.1 (8d0f1dd)
C           -3.31122850772930        0.79849766164622       -0.92477639677520
C           -2.44380812530352       -0.12270372891954       -0.27661132624697
C           -1.41337090092821        0.39579727573559        0.56335275196199
C           -0.89266158675590        1.65801491088749        0.27377586709581
C           -1.72665675402493        2.51431363229076       -0.49448366572522
C           -2.95444148494349        2.13954154133227       -1.01494489940871
C           -0.74098268209890       -0.43411532818871        1.49825021926784
C            0.56872586496315        0.03782116815119        1.86248088067890
C            1.03782416582094        1.29402317993033        1.50887470833621
N            0.31238977034758        2.07067427098208        0.65193736800696
C           -1.29695700510141       -1.39996043042223        2.41574187746061
C           -0.38243517664656       -2.18060797534842        3.13232615520648
N            0.91308504082021       -1.90366887689689        3.30325166013478
C            1.37712470144904       -0.74872102533751        2.81811050966982
C            2.52149331701875       -0.17739833758153        3.39379298866852
C            2.95849061756259        1.02681208890480        2.95105897606587
C            2.24288949469137        1.78498308775960        2.03503020483770
C           -2.74860936222260       -1.74497937691422        2.38401158947411
C           -3.09416315450955       -2.91614440870436        3.00571134491758
C           -2.16786021984049       -3.77788778654213        3.63251872101904
C           -0.85708937311598       -3.40495313382985        3.68547234358092
O           -3.71994433332149       -0.94984598373544        1.67726658385724
O           -2.55702603277562       -1.47241711578389       -0.57241635275616
C           -3.84297843593025        3.13357444054366       -1.60938954875544
C           -2.68769581069131       -5.03867041417370        4.30484659386931
H           -1.39666850744143        3.51251503834900       -0.76806311868865
H           -4.27662633836220        0.55105838579656       -1.33106614114542
H            2.66329581305412        2.73912661909249        1.72562431984580
H            3.05775395548473       -0.69369546277216        4.16536137542516
H           -0.24710966264510       -4.12034095424229        4.22946223699121
H           -4.11477991332403       -3.04712728052358        3.03244694615357
O           -4.21824883374556        4.03433712717988       -0.87713382485991
O           -4.44510595673734        2.90643496899600       -2.81853501752979
C           -5.44216520282800        3.83300025693726       -3.02488532025093
C            4.23586651889298        1.50004220933226        3.59165660008449
O            5.05927614697201        0.66079890002952        3.91714215179376
O            4.47001334453535        2.86385149488593        3.72605651435371
C            5.79457498613219        3.08584475587818        4.15829123132174
O           -3.82227255313510       -5.27347675879771        4.16636005494405
O           -1.85023202017753       -5.79767454267276        5.06656077253571
C           -2.55119635829503       -6.86252441382958        5.62930343183426
C           -5.07197156564436       -1.42399175670916        1.58830531863830
C           -1.33089900128490       -2.23622472573986       -0.99264499351172
H           -2.54510546830388       -7.76426885143998        4.99136022291012
H           -3.57194749219491       -6.44405511486021        5.74196173723541
H           -2.09133598235598       -7.02043774843818        6.64022264233588
H            5.72707967266424        3.46798026205549        5.10135971236643
H            6.34060091246885        3.78468702308830        3.50069950143490
H            6.17933064298187        2.03010500085905        4.19342358084693
H           -0.91862729772622       -2.57650129080332       -0.01361370304871
H           -0.49769766914251       -1.60651221708571       -1.34094446550576
H           -1.52632419730509       -2.94569707152159       -1.75361447637286
H           -5.11788846557077       -2.41810833635233        1.17520213188926
H           -5.67929807973498       -0.69619639428435        1.04301666067831
H           -5.57598832326623       -1.42383358739762        2.57928294206544
H           -6.13050215934830        3.76035386975488       -2.23272855695873
H           -5.86615610071888        3.45938329385866       -4.02668959924245
H           -5.13479557532099        4.87790991548477       -2.98314551356402
C           -1.38192942069774        3.73616555005018        2.91232598411686
C           -1.84821468128685        2.59982427735607        3.49755545445181
C           -1.05946531454833        2.05730632010638        4.60922730982276
C            0.19893954712228        2.69376791964407        4.86302140881997
C            0.50425395911860        3.94630308659851        4.28768785650746
C           -0.26031777722226        4.46998310053134        3.25072669343212
C           -1.20488993561782        0.74454293276906        5.14851520323437
C           -0.06287609782692        0.02744069315890        5.60930570802864
C            1.19208754369866        0.71421540266195        5.78882868583885
N            1.19428660993148        2.06344359410476        5.62744624321596
C           -2.41361422770794        0.07928500213936        5.25249410304426
C           -2.45851584031083       -1.32662100968547        5.60237876023992
N           -1.29466212405906       -1.98318595734370        5.89916817085159
C           -0.14475655767527       -1.32117560077092        5.98824682881008
C            0.97209270935794       -1.98958449505532        6.53157704134458
C            2.21982707914082       -1.36973967291181        6.68703967237737
C            2.30561929262884       -0.09745313075593        6.26436900324455
C           -3.73018485967715        0.71367583494582        5.25810242262992
C           -4.89964478833448       -0.06184623426677        5.21204641615509
C           -4.82617965800088       -1.39228978090841        5.46901303780036
C           -3.67144193418464       -1.98914944386360        5.67265433266067
O           -3.75568638935321        2.07705011038914        5.52067969627343
O           -2.94192434743730        1.91263938797883        3.01658762327703
C            0.21273512614467        5.50086066357994        2.34765104514621
C           -6.06660304520411       -2.17604633098929        5.80641622556876
H            1.41756699010566        4.38133362238595        4.66974005703471
H           -1.82880610647429        4.11982501512100        2.06992133318584
H            3.26888037378556        0.32655662585251        6.31721410015598
H            0.87146188387207       -3.08471526305024        6.57830423410869
H           -3.67716811065157       -3.05999292755990        5.83019634570050
H           -5.77379677507622        0.43595144608221        4.71017130754348
O            1.34459852619901        5.82615848916894        2.44941456579099
O           -0.74718748219123        6.07961784856304        1.59848183464284
C           -0.21473095568964        7.24015934882472        1.05753806029483
C            3.53228080814219       -2.00967610361154        7.02506769044485
O            3.64093082622715       -3.14437803815732        7.50071391725347
O            4.56565258381079       -1.22937033368332        6.69086985080897
C            5.72579357310716       -1.80692399125161        7.22246151275881
O           -7.04801223588612       -1.95726935745904        5.14194115322235
O           -6.01514389321278       -2.93743591896022        6.94765316328794
C           -7.21292732384718       -3.62681918543340        7.15115816329978
C           -4.95459780685163        2.65960679932188        5.86868674392943
C           -3.68284113682406        2.59129188358641        2.05479246020704
H           -7.43119628931628       -4.22607794725959        6.20622607140901
H           -8.06548455146707       -2.91765848248592        7.29781126410398
H           -7.07314693247270       -4.33087306029711        7.91223421050944
H            6.57332189837178       -1.29353136199234        6.78341268688262
H            5.74663761932316       -2.84282155125561        6.88089468184451
H            5.69426191474290       -1.72781984964892        8.29460302186842
H           -4.10481209541493        3.44288266176275        2.60483747673152
H           -4.49244774344916        1.87419893016926        1.82433103764650
H           -3.18901540870812        2.85154642679373        1.06781919454921
H           -5.55414326821421        2.76698137191684        4.93950725322359
H           -4.78658370641210        3.62090640967288        6.25983200635257
H           -5.43485580473958        1.97242995129449        6.65265772412460
H            0.89164886030839        7.38838561720231        1.13776105146914
H           -0.62894889903848        8.04195665205089        1.64837664327952
H           -0.59282546386754        7.45699159724320        0.03719083132488
116
 energy: -22.683102793111 gnorm: 0.520554994545 xtb: 6.6.1 (8d0f1dd)
C           -2.98035229693662        0.40589144202752       -1.16663994480300
C           -2.17037356698932       -0.52120628112643       -0.38902687313651
C           -1.21233522971728        0.00080001119780        0.57806708926030
C           -0.84111973366134        1.41107862347157        0.44982043061247
C           -1.57110995587897        2.23564080736933       -0.48793571836255
C           -2.67045589923897        1.84962699697864       -1.29005045974716
C           -0.55651671363835       -0.71955378846577        1.62477107445153
C            0.62900917204162       -0.20702750782570        1.97765938972989
C            1.06259910468615        1.07509979022885        1.60928098899816
N            0.23520871713576        1.97642079948543        1.17615324677977
C           -0.99054144841804       -1.88580793244297        2.16540941250029
C           -0.02635568011947       -2.68601644383508        2.93720523333454
N            1.10732537916589       -2.04868928383560        3.46002424895128
C            1.50553549653142       -0.99443550939585        2.77675403661619
C            2.80098138195043       -0.50773482670902        3.11830799169682
C            3.23895518053510        0.68529466168908        2.55295665594467
C            2.31425469390653        1.45623217745469        1.96925550885518
C           -2.33041669848659       -2.42560727618501        2.03934568624639
C           -2.60432623818156       -3.75236581137424        2.53536799983945
C           -1.70545818858163       -4.48524401008711        3.40030312013195
C           -0.45138611073539       -3.86119583023997        3.60736645502509
O           -3.42569477699789       -1.61494262835539        1.59522117554920
O           -2.58548747429368       -1.86071836854623       -0.68530317989980
C           -3.46975872686987        2.80204717243590       -2.07176589810145
C           -2.04514155174060       -5.76910977929339        4.13560900748897
H           -1.26797485721621        3.26574994717452       -0.52148127715907
H           -4.01302427745511        0.03917704019177       -1.45306240592736
H            2.57930681105216        2.57748438877718        1.74245805293478
H            3.51214185447377       -1.06984274741185        3.72574801771957
H            0.34591166427895       -4.30156103399997        4.09950906892702
H           -3.52149837694809       -4.22519230340707        2.41319671219799
O           -2.99090159396425        3.65608763189726       -2.77185540529209
O           -4.83349356180229        2.62785897611302       -1.84017128807481
C           -5.52457778823180        3.56398231422414       -2.62027456875858
C            4.60634527035484        1.10812130991465        2.90045319356063
O            5.31853189751236        0.47660081412810        3.67693702661004
O            4.98706442738960        2.23836688108984        2.20108823593715
C            6.29227184137204        2.55845530786004        2.60498753801174
O           -3.22030344937072       -6.09808600542641        4.22241600516059
O           -0.83179714656934       -6.26603916219817        4.66367020605139
C           -0.72717533969273       -7.68721522428657        5.08649380990091
C           -4.67520526537871       -1.92083547463307        2.20005801331040
C           -1.65752958631627       -2.66359837274605       -1.42707179456902
H            0.36896279526544       -7.73191394725869        5.56344616075525
H           -0.27885933254617       -8.23108606667028        4.20909310010310
H           -1.53477886473746       -8.06951827368110        5.53852347663776
H            6.32871690272114        2.63747997934195        3.66270682328535
H            6.50878541612410        3.54767128280286        2.14982338601873
H            6.92435763698102        1.57569172003385        2.54010908988463
H           -1.68958711451403       -2.65517881653640       -2.53055195473171
H           -1.39227606899446       -3.60116905528777       -0.95684608192380
H           -0.58058802583085       -2.21381617409889       -1.55807465350004
H           -4.89950924651742       -2.89963928361665        1.88918252094394
H           -5.28866572316344       -1.00478236856833        2.12526506958831
H           -4.31204358732092       -2.09226491061999        3.36428347691590
H           -5.33337014005079        4.61621481369512       -2.47073097693733
H           -6.65868522070732        3.68714410616142       -2.29605284540478
H           -5.20286616102954        3.48931318259107       -3.74934028862507
C           -1.99889075408624        4.26012561309450        3.30659609414505
C           -2.29461757630770        3.07987988349153        4.04937371809694
C           -1.16860435147226        2.45119781505459        4.82329368494128
C            0.16526591001587        2.97794108031717        4.75120408614831
C            0.41902341965699        4.31400660379283        4.20470220183496
C           -0.68775110561178        4.89264593888677        3.44056279888125
C           -1.30955867707458        1.17223075050463        5.46734756912905
C           -0.15187399813390        0.33702417330179        5.59110473451928
C            1.13835595258931        0.99762093234625        5.71634905658316
N            1.28687178615608        2.30031394199548        5.36403701828296
C           -2.59386200397152        0.47650902310169        5.85565178978948
C           -2.75877266888959       -0.93259635646040        5.71645530265502
N           -1.65064327553457       -1.60790006680028        6.07537491956811
C           -0.45157797803548       -0.92184686323125        6.07984002357835
C            0.66908435230375       -1.68594497248741        6.45143973796101
C            1.92916772055150       -1.15474927366908        6.55124079065405
C            2.19416542689949        0.16966726580058        6.21740894138520
C           -3.62887082063338        1.35332841916486        6.16208579692016
C           -4.96893643499746        0.80141275831512        6.08227052521055
C           -5.14893980974177       -0.54857030025105        5.68236220525476
C           -4.07897879487690       -1.43057562014178        5.60934424274651
O           -3.52376631139612        2.74806153143662        6.48777426346228
O           -3.53749193259931        2.49435686650707        3.75671078951289
C           -0.40899960554732        6.24434466687595        2.81058143986783
C           -6.49049163652024       -1.18628464455509        5.57995643896484
H            1.34924727578245        4.85325537631311        4.19939293415832
H           -2.69010753612122        4.57995762541669        2.65376630419262
H            3.27235783513009        0.65758854872851        6.31492644583911
H            0.52746027809228       -2.67115130891781        6.87810604992819
H           -4.29972119777136       -2.48533793595498        5.29901070639219
H           -5.79102166977061        1.46990936611122        6.20875783171059
O            0.68880260064528        6.80340361598493        2.92115824105884
O           -1.53634865741554        6.74035740600169        2.22155794955590
C           -1.18513446859366        7.68060648203287        1.22435971099277
C            2.86241656867505       -2.06497778565714        7.23560197565256
O            2.67013733987924       -3.15013364665995        7.77159337731412
O            4.19636188857730       -1.54220464113437        7.37256009178581
C            5.00661672740921       -2.49471350706508        8.00707407118175
O           -7.48974520669648       -0.53029422699019        5.90324433856288
O           -6.44878632215636       -2.38775841512417        5.04392854522539
C           -7.70941426034618       -3.02369227702562        4.73843518439531
C           -4.34455560823864        3.22356069425454        7.46321805652726
C           -4.64497187429341        3.14261060850283        3.16472619033259
H           -7.57894998433544       -4.07252417169797        5.18906162150131
H           -8.19608377880243       -3.04790772930073        3.86786635017855
H           -8.32977683044088       -2.36824970667980        5.31230042451685
H            4.73560718464597       -3.52796748312112        7.55807742720632
H            4.96899619182636       -2.26235148956504        9.07528999276321
H            6.15151794406353       -2.23802367813979        7.67385555297786
H           -5.59710363970661        2.62926591840538        3.37550717824885
H           -4.37420565713088        2.98589214694118        2.02397924366963
H           -4.71169205395684        4.09397371446622        3.62671668476866
H           -5.32003547377893        3.54575755832549        7.14497726927243
H           -4.01066687200823        4.10349118998739        8.05172495360132
H           -4.52322308851421        2.32322436139601        8.14131739334356
H           -0.61299039716324        8.50656758632600        1.88299641515356
H           -1.60327727003592        7.86293427521292        0.21024652989656
H           -0.39219700673019        7.17417869081308        0.78623205963131
116
 energy: -22.687196392657 gnorm: 0.490092642922 xtb: 6.6.1 (8d0f1dd)
C           -3.05991033878499        0.18787922643611       -0.59607967880185
C           -2.29879187656038       -0.61087908448342        0.22704612510568
C           -1.28828387978672        0.08174634574424        1.01070549219647
C           -0.72114178565346        1.38852398275971        0.56968685741211
C           -1.39998793971546        2.01201002853716       -0.43655903522692
C           -2.70016154224604        1.52723161179396       -0.75593656388284
C           -0.66159368080807       -0.64477533507943        2.06663731593332
C            0.61291454258887       -0.17939173497074        2.44688831653413
C            1.01308357808701        1.13395384501278        2.06506129381044
N            0.37954309929738        1.99656990982725        1.15109078197377
C           -0.94502331509484       -1.90310328507007        2.70650192406766
C            0.14049618419329       -2.70258769073192        3.22115748247450
N            1.42230628668170       -2.25422743937909        3.47929771119226
C            1.65442807680440       -1.00612440263559        3.08837540815747
C            3.04234284431543       -0.56279665398159        3.25340169642906
C            3.29705894052083        0.70211130126792        2.89124279963492
C            2.35127446188349        1.48550354691004        2.14657541575984
C           -2.25841432185075       -2.30682393794429        3.03126675292369
C           -2.48590013366080       -3.51265932445088        3.58366473167625
C           -1.52019957234765       -4.47512392387033        3.91335115469281
C           -0.17974413708372       -4.01825474494742        3.79629407577525
O           -3.36731164315336       -1.58032758545685        2.63154662622886
O           -2.75572003842013       -1.85496492296792        0.17001604599460
C           -3.78235272767616        2.52217506657237       -1.25247455149968
C           -1.75046265044835       -6.00263887647036        3.97285483333661
H           -1.09426257395592        2.99058174653758       -0.64278990981346
H           -4.10674553121497       -0.23735951494653       -0.94089352371947
H            2.64584170564961        2.45640329095302        1.88837653375075
H            3.69536613690857       -1.13179102453509        3.94887036509892
H            0.58659334021177       -4.69832217211205        3.88278010946117
H           -3.51544013748151       -3.64124407753253        3.86187482812154
O           -3.47273081176533        3.70481725552542       -1.29455711809996
O           -4.97879918163389        1.97686121088859       -1.31325672117282
C           -5.78266040402011        3.08206048917851       -1.60668997545293
C            4.57433147168955        1.40037655272796        3.14022222119812
O            5.46602648800514        0.74842581786800        3.70220467934478
O            4.72649654369503        2.49253567078215        2.43862344723435
C            6.06339141514315        2.78670617697965        2.54584167333447
O           -2.88751765515770       -6.39877813637516        4.00154855956013
O           -0.58163229336730       -6.76045892980171        4.10247405898793
C           -0.62607335452663       -8.06811641448215        3.53722338910513
C           -4.70186936849173       -2.13802142128885        2.57445525447724
C           -1.79417887722135       -2.92178214037719       -0.00347197282044
H            0.25957040986853       -8.63999469609838        3.84775665128643
H           -0.53536993129917       -8.00590728348918        2.54103509286389
H           -1.66429939617974       -8.49599470833042        3.81047429089276
H            6.66239833198788        2.01560968778162        2.05259329836659
H            6.19066275888691        2.75385916002752        3.71522704667766
H            5.97247787061934        3.94563808226494        2.49785857211203
H           -1.07693375445141       -2.44731738178483       -0.84203111957514
H           -2.38403921312834       -3.88656773903734       -0.37053372204934
H           -1.34283024449850       -3.10433746012822        1.05118205817875
H           -4.68051880453888       -2.91049647591777        1.79871407986608
H           -5.33036580273666       -1.30245841442385        2.25187491372543
H           -5.16803320962911       -2.74441373436826        3.51292922517535
H           -5.68770598281756        3.54247655755578       -0.66542657711900
H           -6.68978543278192        2.70373213137832       -2.03257659953019
H           -5.31362118679169        3.71090802205720       -2.32930731659948
C           -1.48914056459527        4.40011435072497        2.98478109322693
C           -1.90674438261472        3.11596933656067        3.33537836533920
C           -1.12492290672450        2.45513215380464        4.32597777128053
C            0.20833429980508        2.96676578744288        4.63796266337371
C            0.54398779953477        4.25075118712744        4.15493355395657
C           -0.25989535882590        4.95100970681432        3.26442633675531
C           -1.55870555780483        1.23307609977748        4.89740786651111
C           -0.49334195279114        0.52768159747599        5.46585162083612
C            0.82095075687165        1.15627908841028        5.78151690052121
N            1.16872674537434        2.42372149161159        5.46658157607317
C           -2.76454208614507        0.49272668231699        5.13122005123688
C           -2.86064160382275       -0.91620180780767        5.49911074191047
N           -1.76518240266228       -1.61205821991780        5.83974407260891
C           -0.63099622395480       -0.88700901090116        5.93603184615745
C            0.43466206112141       -1.56144594431079        6.55388693404460
C            1.65200405381083       -0.91919445187590        6.89122881707441
C            1.86313147346612        0.31843592317415        6.35361169501620
C           -3.84827455147572        1.40604636644223        5.45019679748254
C           -5.17343278905485        0.90861000966140        5.63379105730389
C           -5.26954897816669       -0.55931761716395        5.67674537130121
C           -4.16184080990200       -1.38659473088304        5.95116432058076
O           -3.61463648828582        2.77531514172697        5.38549803271564
O           -3.00185302223651        2.38753574878691        2.65386697620841
C           -0.14329214696248        6.45451553743262        3.00531345049927
C           -6.65487798217185       -1.24455098997133        5.68464875944445
H            1.51284278226603        4.58314060205723        4.24065609192328
H           -2.00168182677564        4.91210005075350        2.30284985217306
H            2.95532722623817        0.69861439522531        6.49933930413048
H            0.14518713651263       -2.35247073713651        7.17464436493877
H           -4.39963967278703       -2.41642342752054        5.95663816193098
H           -5.99753022942626        1.35310945875492        5.22564892633276
O            0.76913039611175        7.03215066537386        3.46983328004651
O           -1.13283864925545        7.03109838092507        2.08309762618549
C           -0.64498208800022        8.21534885277579        1.65218597946982
C            2.78140451744443       -2.04161753705945        6.84159540240033
O            2.57847726334254       -3.23860144712515        6.48746422574193
O            4.12327489163871       -1.56858534438519        6.91976566423495
C            5.07385550616118       -2.42914244001043        6.64320075707476
O           -7.26153107251809       -1.58719685034808        6.67193057064857
O           -7.14060086203681       -1.66999636947447        4.40064067233104
C           -8.41024289943715       -2.35035146693487        4.38138394392636
C           -4.39439465186259        3.34712658582945        6.44652977227652
C           -3.77286638137543        3.09244058880649        1.71117440566384
H           -9.12513887751976       -1.62525078310051        4.13829261012944
H           -8.49873156639904       -2.59276128211350        5.39985090741416
H           -8.44754401079400       -3.30745832064825        3.68884587619448
H            4.87437703197194       -2.82109815437082        5.68388909396710
H            5.15800509176896       -3.21192712257520        7.47253171103343
H            6.09866919255841       -2.05273679672258        6.55990120459517
H           -2.98550961942147        3.62147576279669        1.18894064232628
H           -4.33507476438949        3.87047244835801        2.18779344558429
H           -4.29393008908055        2.49289046434023        1.05477020504770
H           -5.26271284633824        3.63143184644925        5.88339486968851
H           -3.95173147348646        4.25528951529424        6.94984170181931
H           -4.69030115449000        2.56494279983952        7.08217293613369
H           -0.25631827422972        8.15582861490798        0.62877325845086
H            0.27763086915901        8.40037000143184        2.12058189396923
H           -1.57610621052862        8.85570505045660        1.39492366700108
116
 energy: -22.701919828481 gnorm: 0.521730607374 xtb: 6.6.1 (8d0f1dd)
C           -3.10248567109891        0.10133134009114       -0.70443448888429
C           -2.14908922330846       -0.80970689915968       -0.17314309400001
C           -1.28649674654867       -0.31503350088382        0.80971458880452
C           -0.92412898750204        1.01341099821856        0.57689132101778
C           -1.86661545080978        1.93614232823996       -0.00404494594459
C           -3.02064964321459        1.43940911884921       -0.57067359202719
C           -0.51007219441423       -0.98495311535166        1.75190753050554
C            0.75596363046955       -0.34459944679242        2.12655054854471
C            1.05113943516737        0.97960401373063        1.65776201113836
N            0.17864893822525        1.69012218626024        0.97178349819156
C           -0.78967286434127       -2.22735825449718        2.36423573897669
C            0.32124961925329       -3.01639648438314        2.66318381095919
N            1.55562182723019       -2.54904192677106        2.73421373813627
C            1.73467065710125       -1.15503409592709        2.73029461625941
C            2.95031798162618       -0.58411242667862        2.98027547389846
C            3.25039705559550        0.78697539026021        2.86483646047336
C            2.32658086465559        1.54855648955460        2.13525271164269
C           -2.09021801854884       -2.64645418352537        2.54555737183826
C           -2.32676663841064       -3.98209971877957        2.98830318152416
C           -1.26802470004128       -4.86018540268762        3.21659563210472
C            0.14630090826471       -4.38222231019307        3.04016947817791
O           -3.07331859610593       -1.68613852043024        2.41802422015082
O           -2.01711740798457       -2.14393786755853       -0.55298402423924
C           -3.98411463928031        2.43931439137963       -1.09860822943575
C           -1.59783353938271       -6.09958097778922        3.87643050273119
H           -1.55934787081906        2.97308846932558        0.13773435922815
H           -3.93765143152479       -0.44221747587825       -1.23980631273145
H            2.60761323598541        2.43995895493879        1.77332016264735
H            3.49325505869501       -1.19237957526306        3.68964734201859
H            0.77360707672296       -5.12319685107119        2.75926976367469
H           -3.35961464706341       -4.21152591692082        3.28724855148182
O           -4.01174935433467        3.54573107752641       -0.62052223492732