Optimization of monomers started
      -----------------------------------------------------------      
     |                   =====================                   |     
     |                           x T B                           |     
     |                   =====================                   |     
     |                         S. Grimme                         |     
     |          Mulliken Center for Theoretical Chemistry        |     
     |                    University of Bonn                     |     
      -----------------------------------------------------------      

   * xtb version 6.7.1 (edcfbbe) compiled by 'runner@Mac-1732539442253.local' on 2024-11-25

   xtb is free software: you can redistribute it and/or modify it under
   the terms of the GNU Lesser General Public License as published by
   the Free Software Foundation, either version 3 of the License, or
   (at your option) any later version.
   
   xtb is distributed in the hope that it will be useful,
   but WITHOUT ANY WARRANTY; without even the implied warranty of
   MERCHANTABILITY or FITNESS FOR A PARTICULAR PURPOSE.  See the
   GNU Lesser General Public License for more details.
   
   Cite this work as:
   * C. Bannwarth, E. Caldeweyher, S. Ehlert, A. Hansen, P. Pracht,
     J. Seibert, S. Spicher, S. Grimme, WIREs Comput. Mol. Sci., 2020, 11,
     e01493. DOI: 10.1002/wcms.1493
   
   for GFN2-xTB:
   * C. Bannwarth, S. Ehlert and S. Grimme., J. Chem. Theory Comput., 2019,
     15, 1652-1671. DOI: 10.1021/acs.jctc.8b01176
   for GFN1-xTB:
   * S. Grimme, C. Bannwarth, P. Shushkov, J. Chem. Theory Comput., 2017,
     13, 1989-2009. DOI: 10.1021/acs.jctc.7b00118
   for GFN0-xTB:
   * P. Pracht, E. Caldeweyher, S. Ehlert, S. Grimme, ChemRxiv, 2019, preprint.
     DOI: 10.26434/chemrxiv.8326202.v1
   for GFN-FF:
   * S. Spicher and S. Grimme, Angew. Chem. Int. Ed., 2020, 59, 15665-15673.
     DOI: 10.1002/anie.202004239
   
   for ALPB and GBSA implicit solvation:
   * S. Ehlert, M. Stahn, S. Spicher, S. Grimme, J. Chem. Theory Comput.,
     2021, 17, 4250-4261. DOI: 10.1021/acs.jctc.1c00471
   
   for ddCOSMO and CPCM-X implicit solvation:
   * M. Stahn, S. Ehlert, S. Grimme, J. Phys. Chem. A,
     2023, XX, XXXX-XXXX. DOI: 10.1021/acs.jpca.3c04382
   
   for DFT-D4:
   * E. Caldeweyher, C. Bannwarth and S. Grimme, J. Chem. Phys., 2017,
     147, 034112. DOI: 10.1063/1.4993215
   * E. Caldeweyher, S. Ehlert, A. Hansen, H. Neugebauer, S. Spicher,
     C. Bannwarth and S. Grimme, J. Chem. Phys., 2019, 150, 154122.
     DOI: 10.1063/1.5090222
   * E. Caldeweyher, J.-M. Mewes, S. Ehlert and S. Grimme, Phys. Chem. Chem. Phys.
     2020, 22, 8499-8512. DOI: 10.1039/D0CP00502A
   
   for sTDA-xTB:
   * S. Grimme and C. Bannwarth, J. Chem. Phys., 2016, 145, 054103.
     DOI: 10.1063/1.4959605
   
   in the mass-spec context:
   * V. Asgeirsson, C. Bauer and S. Grimme, Chem. Sci., 2017, 8, 4879.
     DOI: 10.1039/c7sc00601b
   * J. Koopman and S. Grimme, ACS Omega 2019, 4, 12, 15120-15133.
     DOI: 10.1021/acsomega.9b02011
   
   for metadynamics refer to:
   * S. Grimme, J. Chem. Theory Comput., 2019, 155, 2847-2862
     DOI: 10.1021/acs.jctc.9b00143
   
   for SPH calculations refer to:
   * S. Spicher and S. Grimme, J. Chem. Theory Comput., 2021, 17, 1701-1714
     DOI: 10.1021/acs.jctc.0c01306
   
   for ONIOM refer to:
   * C. Plett, A. Katbashev, S. Ehlert, S. Grimme, M. Bursch,
     Phys. Chem. Chem. Phys., 2023, 25, 17860-17868. DOI: 10.1039/D3CP02178E
   
   for DIPRO refer to:
   * J. Kohn, N. Gildemeister, S. Grimme, D. Fazzi, A. Hansen,
     J. Chem. Phys., 2023, just accepted.
   
   for PTB refer to:
   * S. Grimme, M. Mueller, A. Hansen, J. Chem. Phys., 2023, 158, 124111.
     DOI: 10.1063/5.0137838
   
   with help from (in alphabetical order)
   P. Atkinson, C. Bannwarth, F. Bohle, G. Brandenburg, E. Caldeweyher
   M. Checinski, S. Dohm, S. Ehlert, S. Ehrlich, I. Gerasimov, C. Hölzer
   A. Katbashev, J. Kohn, J. Koopman, C. Lavigne, S. Lehtola, F. März, M. Müller,
   F. Musil, H. Neugebauer, J. Pisarek, C. Plett, P. Pracht, F. Pultar,
   J. Seibert, P. Shushkov, S. Spicher, M. Stahn, M. Steiner, T. Strunk,
   J. Stückrath, T. Rose, and J. Unsleber
   
 * started run on 2025/03/04 at 13:06:48.740     
   ID    Z sym.   atoms
    1    6 C      1-9, 11, 12, 14-21, 30, 31
    2    7 N      10, 13
    3    8 O      22, 23
    4    1 H      24-29, 50-55
    5   16 S      32, 38, 44
    6    9 F      33-37, 39-43, 45-49

           -------------------------------------------------
          |                Calculation Setup                |
           -------------------------------------------------

          program call               : xtb Base3SF5.mol --opt tight --cycles 500 --chrg 0 --uhf 1 --spinpol --tblite
          coordinate file            : Base3SF5.mol
          omp threads                :                     8

repulsion energy          1.7698604734740E+00 Eh
dispersion energy         3.8012792100839E-05 Eh
interaction energy        0.0000000000000E+00 Eh
number of electrons       2.4100000000000E+02 e
integral cutoff           1.8403572253217E+01 bohr

------------------------------------------------------------
  cycle        total energy    energy error   density error
------------------------------------------------------------
      1     -140.4049965613  -1.4217490E+02   2.0898241E-01
      2     -138.8899656200   1.5150309E+00   1.6963732E-01
      3     -133.6740068948   5.2159587E+00   1.4857278E-01
      4     -131.1765015043   2.4975054E+00   1.7041680E-01
      5     -141.0037758537  -9.8272743E+00   7.3238195E-02
      6     -141.4136282576  -4.0985240E-01   4.6264278E-02
      7     -141.5905115533  -1.7688330E-01   3.1848728E-02
      8     -141.5795923028   1.0919250E-02   3.0450860E-02
      9     -141.6320166573  -5.2424355E-02   2.1641407E-02
     10     -141.6362259716  -4.2093142E-03   1.5688263E-02
     11     -141.3961185238   2.4010745E-01   2.7192108E-02
     12     -141.6598062350  -2.6368771E-01   9.8655005E-03
     13     -141.4942955876   1.6551065E-01   2.9475046E-02
     14     -141.6607261803  -1.6643059E-01   8.0755770E-03
     15     -141.6574104273   3.3157530E-03   6.5199679E-03
     16     -141.6609939934  -3.5835661E-03   5.5476563E-03
     17     -141.6630893598  -2.0953664E-03   5.3871246E-03
     18     -141.6650158483  -1.9264885E-03   4.5770868E-03
     19     -141.6659137671  -8.9791883E-04   3.2951885E-03
     20     -141.6663389851  -4.2521792E-04   2.9782516E-03
     21     -141.6663098813   2.9103736E-05   2.9592795E-03
     22     -141.6664758566  -1.6597531E-04   2.1389287E-03
     23     -141.6665915164  -1.1565978E-04   1.8080618E-03
     24     -141.6667721467  -1.8063032E-04   1.4491153E-03
     25     -141.6670562632  -2.8411649E-04   7.9007939E-04
     26     -141.6671489007  -9.2637444E-05   6.1317542E-04
     27     -141.6672082575  -5.9356839E-05   4.1203643E-04
     28     -141.6671970807   1.1176749E-05   3.4877596E-04
     29     -141.6671983719  -1.2911707E-06   2.9991967E-04
     30     -141.6672068992  -8.5272587E-06   2.0635559E-04
     31     -141.6672172267  -1.0327518E-05   7.9805219E-05
     32     -141.6672179296  -7.0292646E-07   6.8813945E-05
     33     -141.6672180794  -1.4976351E-07   7.0327635E-05
     34     -141.6672189664  -8.8703902E-07   2.4627155E-05
     35     -141.6672189839  -1.7444250E-08   1.9612744E-05
------------------------------------------------------------

electronic energy        -1.4343711747014E+02 Eh
total energy             -1.4166721898387E+02 Eh

 total:                                   1.777 sec
 - repulsion                              0.000 sec (  0%)
 - dispersion                             0.003 sec (  0%)
 - coulomb                                0.002 sec (  0%)
 - hamiltonian                            0.010 sec (  0%)
 - scc                                    1.762 sec ( 99%)

      ----------------------------------------------------------- 
     |                   =====================                   |
     |                        A N C O P T                        |
     |                   =====================                   |
     |               Approximate Normal Coordinate               |
     |                Rational Function Optimizer                |
      ----------------------------------------------------------- 
      ----------------------------------------------------------- 
     |                   =====================                   |
     |                        A N C O P T                        |
     |                   =====================                   |
     |               Approximate Normal Coordinate               |
     |                Rational Function Optimizer                |
      ----------------------------------------------------------- 

          ...................................................
          :                      SETUP                      :
          :.................................................:
          :   optimization level             tight          :
          :   max. optcycles                   500          :
          :   ANC micro-cycles                  20          :
          :   degrees of freedom               159          :
          :.................................................:
          :   RF solver                   davidson          :
          :   write xtbopt.log                true          :
          :   linear?                        false          :
          :   energy convergence         0.1000000E-05 Eh   :
          :   grad. convergence          0.8000000E-03 Eh/α :
          :   maxmium RF displ.          1.0000000          :
          :   Hlow (freq-cutoff)         0.1000000E-01      :
          :   Hmax (freq-cutoff)         5.0000000          :
          :   S6 in model hess.         20.0000000          :
          ...................................................

generating ANC from exact Hessian ...
Using Lindh-Hessian (1995)
 Shifting diagonal of input Hessian by    1.0109478919998803E-002
 Lowest  eigenvalues of input Hessian
    0.010000    0.000000    0.000000    0.000000    0.000000    0.000000
    0.000000    0.010152    0.010208    0.010458    0.010758    0.011046
    0.011443    0.011928    0.012069    0.012759    0.013746    0.014180
 Highest eigenvalues
    4.956065    5.041307    5.126980    5.373298    5.822035    5.968903


........................................................................
.............................. CYCLE    1 ..............................
........................................................................
------------------------------------------------------------
  cycle        total energy    energy error   density error
------------------------------------------------------------
      1     -141.6671461456  -1.4343704E+02   6.2495319E-04
      2     -141.6637014954   3.4446502E-03   4.4047584E-03
      3     -141.6671444257  -3.4429303E-03   6.5400777E-04
      4     -141.6672043396  -5.9913852E-05   2.8154841E-04
      5     -141.6672116000  -7.2604028E-06   2.0174253E-04
      6     -141.6672187415  -7.1415101E-06   4.4118833E-05
      7     -141.6672188339  -9.2433595E-08   3.6335752E-05
      8     -141.6672190211  -1.8714002E-07   1.5653711E-05
------------------------------------------------------------

 total:                                   0.496 sec
 * total energy  :  -141.6672190 Eh     change       -0.3720695E-07 Eh
   gradient norm :     3.9961530 Eh/α   predicted     0.0000000E+00 (-100.00%)
   displ. norm   :     0.6950966 α      lambda       -0.2661084E+01
   maximum displ.:     0.2648852 α      in ANC's #148, #155, #153, ...

........................................................................
.............................. CYCLE    2 ..............................
........................................................................
------------------------------------------------------------
  cycle        total energy    energy error   density error
------------------------------------------------------------
      1     -142.6109918020  -1.4352856E+02   6.3520281E-02
      2     -140.6527093132   1.9582825E+00   9.5595512E-02
      3     -142.8172012553  -2.1644919E+00   4.0436839E-02
      4     -142.9168712577  -9.9670002E-02   3.8157191E-02
      5     -143.0831636719  -1.6629241E-01   3.5739895E-02
      6     -143.1558109414  -7.2647269E-02   2.3471247E-02
      7     -143.2811855153  -1.2537457E-01   1.8951462E-02
      8     -143.2897799687  -8.5944534E-03   1.5921389E-02
      9     -143.1153943309   1.7438564E-01   3.2980626E-02
     10     -143.2979476324  -1.8255330E-01   1.3555912E-02
     11     -143.3075409547  -9.5933224E-03   9.5330608E-03
     12     -143.2926352756   1.4905679E-02   1.1794598E-02
     13     -143.3073754876  -1.4740212E-02   6.8724104E-03
     14     -143.3097080596  -2.3325719E-03   5.8815111E-03
     15     -143.3098354388  -1.2737921E-04   5.5627355E-03
     16     -143.3124288491  -2.5934104E-03   4.5074184E-03
     17     -143.3123736700   5.5179174E-05   4.2194186E-03
     18     -143.3125983995  -2.2472951E-04   4.1902287E-03
     19     -143.3126611242  -6.2724733E-05   4.0329025E-03
     20     -143.3127667837  -1.0565945E-04   3.9000314E-03
     21     -143.3128689531  -1.0216939E-04   3.6656262E-03
     22     -143.3130514130  -1.8245991E-04   3.1856838E-03
     23     -143.3133101995  -2.5878654E-04   2.4147965E-03
     24     -143.3134680211  -1.5782165E-04   1.8601454E-03
     25     -143.3135185982  -5.0577072E-05   1.7066488E-03
     26     -143.3135912814  -7.2683213E-05   1.4340853E-03
     27     -143.3135950407  -3.7592276E-06   1.1609950E-03
     28     -143.3137636155  -1.6857486E-04   6.2286432E-04
     29     -143.3137848711  -2.1255563E-05   5.0027145E-04
     30     -143.3137909658  -6.0947348E-06   4.2736735E-04
     31     -143.3138198845  -2.8918692E-05   6.7897305E-05
     32     -143.3138203469  -4.6239802E-07   5.2695511E-05
     33     -143.3138183025   2.0444231E-06   1.2055304E-04
     34     -143.3138201844  -1.8819345E-06   5.6813177E-05
     35     -143.3138205643  -3.7990861E-07   3.1039216E-05
     36     -143.3138206976  -1.3326118E-07   1.4864548E-05
------------------------------------------------------------

 total:                                   2.095 sec
 * total energy  :  -143.3138207 Eh     change       -0.1646602E+01 Eh
   gradient norm :     1.6705643 Eh/α   predicted    -0.1973410E+01 (  19.85%)
   displ. norm   :     0.6961609 α      lambda       -0.1096544E+01
   maximum displ.:     0.2508939 α      in ANC's #142, #137, #138, ...

........................................................................
.............................. CYCLE    3 ..............................
........................................................................
------------------------------------------------------------
  cycle        total energy    energy error   density error
------------------------------------------------------------
      1     -143.6383919630  -1.4439863E+02   4.6710114E-02
      2     -138.0126913407   5.6257006E+00   1.1638240E-01
      3     -144.0968480009  -6.0841567E+00   4.1974342E-02
      4     -144.1934402298  -9.6592229E-02   2.8966709E-02
      5     -144.0461837744   1.4725646E-01   3.3821428E-02
      6     -144.1051717272  -5.8987953E-02   3.0375070E-02
      7     -144.1923023343  -8.7130607E-02   2.2491831E-02
      8     -144.2033012771  -1.0998943E-02   1.7562668E-02
      9     -144.1968042065   6.4970706E-03   1.8344320E-02
     10     -144.2000269784  -3.2227719E-03   1.5964296E-02
     11     -144.2028754034  -2.8484250E-03   1.2828473E-02
     12     -144.2073946547  -4.5192514E-03   9.4533100E-03
     13     -144.2119590494  -4.5643947E-03   6.9265826E-03
     14     -144.2179028967  -5.9438473E-03   1.3962595E-03
     15     -144.2173854342   5.1746251E-04   2.6946768E-03
     16     -144.2179460416  -5.6060739E-04   7.0368376E-04
     17     -144.2179170933   2.8948290E-05   1.0488396E-03
     18     -144.2180040125  -8.6919218E-05   5.7711738E-04
     19     -144.2180226728  -1.8660333E-05   4.6888867E-04
     20     -144.2180303825  -7.7096593E-06   4.0544558E-04
     21     -144.2180576364  -2.7253876E-05   4.6418807E-05
     22     -144.2180576397  -3.3629135E-09   4.4937602E-05
     23     -144.2180571580   4.8174709E-07   7.0971423E-05
     24     -144.2180577604  -6.0240285E-07   2.4903202E-05
     25     -144.2180578280  -6.7571079E-08   5.2023491E-06
------------------------------------------------------------

 total:                                   1.507 sec
 * total energy  :  -144.2180578 Eh     change       -0.9042371E+00 Eh
   gradient norm :     1.0840745 Eh/α   predicted    -0.8139925E+00 (  -9.98%)
   displ. norm   :     0.7418540 α      lambda       -0.7656862E+00
   maximum displ.:     0.2641279 α      in ANC's #142, #137, #138, ...

........................................................................
.............................. CYCLE    4 ..............................
........................................................................
------------------------------------------------------------
  cycle        total energy    energy error   density error
------------------------------------------------------------
      1     -144.8064537086  -1.4550506E+02   1.9180027E-02
      2     -144.8059757314   4.7797722E-04   1.7865116E-02
      3     -144.8222183980  -1.6242667E-02   1.0918515E-02
      4     -144.8201025417   2.1158563E-03   1.0653042E-02
      5     -144.8322006496  -1.2098108E-02   3.6570218E-03
      6     -144.8334002517  -1.1996021E-03   1.7161630E-03
      7     -144.8335316188  -1.3136717E-04   1.2132763E-03
      8     -144.8335960614  -6.4442590E-05   6.4850702E-04
      9     -144.8336325021  -3.6440638E-05   3.2371248E-04
     10     -144.8336375512  -5.0491621E-06   2.2155015E-04
     11     -144.8336397188  -2.1675773E-06   1.3188156E-04
     12     -144.8336405915  -8.7264411E-07   6.6701422E-05
     13     -144.8336406828  -9.1358459E-08   4.1726961E-05
     14     -144.8336407804  -9.7635223E-08   2.5128463E-05
     15     -144.8336408099  -2.9494402E-08   1.3363879E-05
------------------------------------------------------------

 total:                                   0.808 sec
 * total energy  :  -144.8336408 Eh     change       -0.6155830E+00 Eh
   gradient norm :     0.6529842 Eh/α   predicted    -0.5935400E+00 (  -3.58%)
   displ. norm   :     0.7358176 α      lambda       -0.4523216E+00
   maximum displ.:     0.2236638 α      in ANC's #48, #142, #137, ...

........................................................................
.............................. CYCLE    5 ..............................
........................................................................
------------------------------------------------------------
  cycle        total energy    energy error   density error
------------------------------------------------------------
      1     -145.1927636404  -1.4589418E+02   1.2444855E-02
      2     -145.1915932411   1.1703993E-03   1.1668091E-02
      3     -145.2003912566  -8.7980155E-03   6.6734917E-03
      4     -145.1974051349   2.9861217E-03   6.6865157E-03
      5     -145.2029004765  -5.4953416E-03   1.8671452E-03
      6     -145.2031768090  -2.7633249E-04   8.4857181E-04
      7     -145.2032319883  -5.5179326E-05   4.7626548E-04
      8     -145.2032421331  -1.0144807E-05   2.4047654E-04
      9     -145.2032466300  -4.4968545E-06   1.2737193E-04
     10     -145.2032477066  -1.0766193E-06   8.0591253E-05
     11     -145.2032479298  -2.2325500E-07   5.3339779E-05
     12     -145.2032481033  -1.7342472E-07   2.5585350E-05
     13     -145.2032481487  -4.5409962E-08   1.5075979E-05
------------------------------------------------------------

 total:                                   0.843 sec
 * total energy  :  -145.2032481 Eh     change       -0.3696073E+00 Eh
   gradient norm :     0.4126365 Eh/α   predicted    -0.3486109E+00 (  -5.68%)
   displ. norm   :     0.7596517 α      lambda       -0.2945965E+00
   maximum displ.:     0.2771989 α      in ANC's #48, #51, #76, ...

........................................................................
.............................. CYCLE    6 ..............................
........................................................................
------------------------------------------------------------
  cycle        total energy    energy error   density error
------------------------------------------------------------
      1     -145.4410740551  -1.4617594E+02   1.0888642E-02
      2     -145.4398280750   1.2459801E-03   9.8578098E-03
      3     -145.4458781287  -6.0500537E-03   5.6249900E-03
      4     -145.4444488924   1.4292363E-03   4.8176387E-03
      5     -145.4476064960  -3.1576035E-03   1.4362420E-03
      6     -145.4477830748  -1.7657879E-04   5.6934774E-04
      7     -145.4477970908  -1.4016056E-05   3.7271053E-04
      8     -145.4478039126  -6.8218098E-06   1.4162010E-04
      9     -145.4478043274  -4.1477230E-07   1.0198109E-04
     10     -145.4478049368  -6.0936668E-07   6.1135554E-05
     11     -145.4478050017  -6.4899268E-08   3.1976218E-05
     12     -145.4478050945  -9.2776929E-08   1.5116600E-05
------------------------------------------------------------

 total:                                   0.547 sec
 * total energy  :  -145.4478051 Eh     change       -0.2445569E+00 Eh
   gradient norm :     0.2812505 Eh/α   predicted    -0.2322998E+00 (  -5.01%)
   displ. norm   :     0.7771020 α      lambda       -0.1999944E+00
   maximum displ.:     0.2964683 α      in ANC's #48, #51, #25, ...

........................................................................
.............................. CYCLE    7 ..............................
........................................................................
------------------------------------------------------------
  cycle        total energy    energy error   density error
------------------------------------------------------------
      1     -145.6098045112  -1.4639858E+02   1.0301061E-02
      2     -145.6087373378   1.0671734E-03   8.5851716E-03
      3     -145.6120783657  -3.3410279E-03   5.2279018E-03
      4     -145.6120958651  -1.7499417E-05   3.7483214E-03
      5     -145.6141287652  -2.0329001E-03   1.2644911E-03
      6     -145.6142688494  -1.4008422E-04   4.7979909E-04
      7     -145.6142731011  -4.2516154E-06   3.5983621E-04
      8     -145.6142794871  -6.3860058E-06   1.7479365E-04
      9     -145.6142822238  -2.7367114E-06   1.0202893E-04
     10     -145.6142829801  -7.5635089E-07   5.9036270E-05
     11     -145.6142829677   1.2428814E-08   4.0973155E-05
     12     -145.6142831119  -1.4424717E-07   1.4191116E-05
------------------------------------------------------------

 total:                                   0.611 sec
 * total energy  :  -145.6142831 Eh     change       -0.1664780E+00 Eh
   gradient norm :     0.2109183 Eh/α   predicted    -0.1603843E+00 (  -3.66%)
   displ. norm   :     0.7802895 α      lambda       -0.1368889E+00
   maximum displ.:     0.2705534 α      in ANC's #48, #25, #26, ...

........................................................................
.............................. CYCLE    8 ..............................
........................................................................
------------------------------------------------------------
  cycle        total energy    energy error   density error
------------------------------------------------------------
      1     -145.7260030834  -1.4657515E+02   9.4433036E-03
      2     -145.7253954129   6.0767050E-04   7.1298796E-03
      3     -145.7259729457  -5.7753282E-04   4.8384924E-03
      4     -145.7274205201  -1.4475744E-03   2.6361431E-03
      5     -145.7284954198  -1.0748997E-03   8.7167256E-04
      6     -145.7285619163  -6.6496495E-05   3.9498701E-04
      7     -145.7285659029  -3.9865823E-06   2.5638496E-04
      8     -145.7285700451  -4.1422623E-06   1.4071539E-04
      9     -145.7285721301  -2.0850006E-06   7.0136233E-05
     10     -145.7285723373  -2.0716664E-07   4.5880934E-05
     11     -145.7285723666  -2.9334075E-08   2.6367854E-05
     12     -145.7285724159  -4.9247035E-08   1.0555262E-05
------------------------------------------------------------

 total:                                   0.688 sec
 * total energy  :  -145.7285724 Eh     change       -0.1142893E+00 Eh
   gradient norm :     0.1711236 Eh/α   predicted    -0.1101170E+00 (  -3.65%)
   displ. norm   :     0.7819243 α      lambda       -0.9695209E-01
   maximum displ.:     0.2557110 α      in ANC's #25, #26, #48, ...

........................................................................
.............................. CYCLE    9 ..............................
........................................................................
------------------------------------------------------------
  cycle        total energy    energy error   density error
------------------------------------------------------------
      1     -145.8090912636  -1.4671112E+02   8.4469352E-03
      2     -145.8087827491   3.0851446E-04   5.7130714E-03
      3     -145.8075601107   1.2226384E-03   4.4642042E-03
      4     -145.8099507516  -2.3906409E-03   1.5569561E-03
      5     -145.8103040627  -3.5331108E-04   5.3681042E-04
      6     -145.8103210201  -1.6957402E-05   3.6699461E-04
      7     -145.8103343684  -1.3348284E-05   1.5512009E-04
      8     -145.8103360243  -1.6559251E-06   8.7997332E-05
      9     -145.8103367933  -7.6896436E-07   4.7376928E-05
     10     -145.8103368529  -5.9649182E-08   3.0336336E-05
     11     -145.8103368808  -2.7922994E-08   1.4969438E-05
------------------------------------------------------------

 total:                                   0.519 sec
 * total energy  :  -145.8103369 Eh     change       -0.8176446E-01 Eh
   gradient norm :     0.1404581 Eh/α   predicted    -0.7811465E-01 (  -4.46%)
   displ. norm   :     0.7826309 α      lambda       -0.7165624E-01
   maximum displ.:     0.2829661 α      in ANC's #26, #25, #8, ...

........................................................................
.............................. CYCLE   10 ..............................
........................................................................
------------------------------------------------------------
  cycle        total energy    energy error   density error
------------------------------------------------------------
      1     -145.8699939297  -1.4681532E+02   7.5943894E-03
      2     -145.8698573715   1.3655822E-04   4.7302510E-03
      3     -145.8683790764   1.4782950E-03   3.9966748E-03
      4     -145.8706105774  -2.2315009E-03   1.1507323E-03
      5     -145.8707713189  -1.6074156E-04   4.1349657E-04
      6     -145.8707768076  -5.4886444E-06   2.2757203E-04
      7     -145.8707804435  -3.6359433E-06   1.2064865E-04
      8     -145.8707813830  -9.3944584E-07   7.4700593E-05
      9     -145.8707817374  -3.5447934E-07   5.0492009E-05
     10     -145.8707818270  -8.9545040E-08   2.8933074E-05
     11     -145.8707818892  -6.2188178E-08   1.2119239E-05
------------------------------------------------------------

 total:                                   0.560 sec
 * total energy  :  -145.8707819 Eh     change       -0.6044501E-01 Eh
   gradient norm :     0.1102701 Eh/α   predicted    -0.5777324E-01 (  -4.42%)
   displ. norm   :     0.7770684 α      lambda       -0.5347218E-01
   maximum displ.:     0.2879628 α      in ANC's #26, #25, #8, ...

........................................................................
.............................. CYCLE   11 ..............................
........................................................................
------------------------------------------------------------
  cycle        total energy    energy error   density error
------------------------------------------------------------
      1     -145.9147741968  -1.4689712E+02   6.9542937E-03
      2     -145.9147661553   8.0414929E-06   4.1868240E-03
      3     -145.9134274889   1.3386663E-03   3.5124525E-03
      4     -145.9151801443  -1.7526554E-03   1.0297817E-03
      5     -145.9153019065  -1.2176218E-04   3.9969096E-04
      6     -145.9153089913  -7.0848158E-06   2.0612060E-04
      7     -145.9153125176  -3.5262335E-06   1.0983915E-04
      8     -145.9153130119  -4.9439012E-07   6.5439221E-05
      9     -145.9153131212  -1.0923588E-07   5.2857086E-05
     10     -145.9153133357  -2.1452843E-07   2.4777398E-05
     11     -145.9153133732  -3.7468510E-08   1.0781862E-05
------------------------------------------------------------

 total:                                   0.681 sec
 * total energy  :  -145.9153134 Eh     change       -0.4453148E-01 Eh
   gradient norm :     0.0868282 Eh/α   predicted    -0.4288033E-01 (  -3.71%)
   displ. norm   :     0.7946876 α      lambda       -0.4264113E-01
   maximum displ.:     0.2750368 α      in ANC's #26, #25, #8, ...

........................................................................
.............................. CYCLE   12 ..............................
........................................................................
------------------------------------------------------------
  cycle        total energy    energy error   density error
------------------------------------------------------------
      1     -145.9442043682  -1.4695520E+02   7.9460428E-03
      2     -145.9441185830   8.5785287E-05   4.8643242E-03
      3     -145.9424989691   1.6196138E-03   4.2006837E-03
      4     -145.9448366166  -2.3376475E-03   1.1184833E-03
      5     -145.9449710945  -1.3447791E-04   4.2113685E-04
      6     -145.9449786717  -7.5771772E-06   2.0875227E-04
      7     -145.9449824445  -3.7728389E-06   1.1605453E-04
      8     -145.9449834199  -9.7540149E-07   6.2090656E-05
      9     -145.9449834579  -3.7963588E-08   4.5240265E-05
     10     -145.9449835781  -1.2016392E-07   2.3783089E-05
     11     -145.9449836217  -4.3675129E-08   1.2348922E-05
------------------------------------------------------------

 total:                                   0.467 sec
 * total energy  :  -145.9449836 Eh     change       -0.2967025E-01 Eh
   gradient norm :     0.0896203 Eh/α   predicted    -0.3478513E-01 (  17.24%)
   displ. norm   :     0.7678955 α      lambda       -0.3963077E-01
   maximum displ.:     0.2539999 α      in ANC's #26, #25, #8, ...

........................................................................
.............................. CYCLE   13 ..............................
........................................................................
------------------------------------------------------------
  cycle        total energy    energy error   density error
------------------------------------------------------------
      1     -145.9691525572  -1.4700466E+02   8.0517670E-03
      2     -145.9691649818  -1.2424656E-05   5.0629603E-03
      3     -145.9680660320   1.0989499E-03   3.9852999E-03
      4     -145.9698705657  -1.8045337E-03   1.1162976E-03
      5     -145.9699909666  -1.2040090E-04   5.1850035E-04
      6     -145.9700144255  -2.3458886E-05   2.3651770E-04
      7     -145.9700199465  -5.5210514E-06   1.2048547E-04
      8     -145.9700209699  -1.0233398E-06   7.2485154E-05
      9     -145.9700211836  -2.1379458E-07   5.2286229E-05
     10     -145.9700213598  -1.7617577E-07   2.3179539E-05
     11     -145.9700213923  -3.2429796E-08   1.0779650E-05
------------------------------------------------------------

 total:                                   0.484 sec
 * total energy  :  -145.9700214 Eh     change       -0.2503777E-01 Eh
   gradient norm :     0.0924447 Eh/α   predicted    -0.3149981E-01 (  25.81%)
   displ. norm   :     0.6500876 α      lambda       -0.2077261E-01
   maximum displ.:     0.2361987 α      in ANC's #15, #26, #8, ...

........................................................................
.............................. CYCLE   14 ..............................
........................................................................
------------------------------------------------------------
  cycle        total energy    energy error   density error
------------------------------------------------------------
      1     -145.9873639175  -1.4703375E+02   4.6082468E-03
      2     -145.9873805122  -1.6594726E-05   2.9381849E-03
      3     -145.9872347522   1.4575997E-04   2.1703108E-03
      4     -145.9876611007  -4.2634845E-04   5.4088325E-04
      5     -145.9876833859  -2.2285269E-05   2.7710561E-04
      6     -145.9876922969  -8.9109992E-06   1.2331438E-04
      7     -145.9876932840  -9.8704476E-07   7.4038065E-05
      8     -145.9876936257  -3.4168369E-07   4.6110577E-05
      9     -145.9876937164  -9.0772375E-08   2.9461455E-05
     10     -145.9876937682  -5.1754512E-08   1.4323285E-05
------------------------------------------------------------

 total:                                   0.577 sec
 * total energy  :  -145.9876938 Eh     change       -0.1767238E-01 Eh
   gradient norm :     0.0916642 Eh/α   predicted    -0.1477571E-01 ( -16.39%)
   displ. norm   :     0.7186278 α      lambda       -0.2448490E-01
   maximum displ.:     0.2096139 α      in ANC's #15, #18, #8, ...

........................................................................
.............................. CYCLE   15 ..............................
........................................................................
------------------------------------------------------------
  cycle        total energy    energy error   density error
------------------------------------------------------------
      1     -146.0043537496  -1.4705076E+02   6.5646433E-03
      2     -146.0047929558  -4.3920626E-04   3.9833005E-03
      3     -146.0053607469  -5.6779104E-04   2.5953310E-03
      4     -146.0057023594  -3.4161247E-04   8.3798441E-04
      5     -146.0057478958  -4.5536486E-05   3.8516202E-04
      6     -146.0057653365  -1.7440635E-05   1.8258645E-04
      7     -146.0057671201  -1.7836032E-06   9.8237129E-05
      8     -146.0057678182  -6.9813274E-07   5.9231827E-05
      9     -146.0057679062  -8.8024166E-08   3.9022830E-05
     10     -146.0057679837  -7.7456775E-08   2.1252705E-05
     11     -146.0057680222  -3.8453635E-08   8.9131669E-06
------------------------------------------------------------

 total:                                   0.513 sec
 * total energy  :  -146.0057680 Eh     change       -0.1807425E-01 Eh
   gradient norm :     0.0831141 Eh/α   predicted    -0.1856479E-01 (   2.71%)
   displ. norm   :     0.7014243 α      lambda       -0.2475231E-01
   maximum displ.:     0.2015247 α      in ANC's #15, #13, #24, ...

........................................................................
.............................. CYCLE   16 ..............................
........................................................................
------------------------------------------------------------
  cycle        total energy    energy error   density error
------------------------------------------------------------
      1     -146.0166566111  -1.4705517E+02   8.6787249E-03
      2     -146.0174547540  -7.9814285E-04   4.9447144E-03
      3     -146.0182495559  -7.9480195E-04   3.4311997E-03
      4     -146.0187653479  -5.1579193E-04   1.3645775E-03
      5     -146.0189384059  -1.7305800E-04   6.1887417E-04
      6     -146.0189785447  -4.0138822E-05   2.3207465E-04
      7     -146.0189823669  -3.8221965E-06   1.2288909E-04
      8     -146.0189832897  -9.2283040E-07   5.9417883E-05
      9     -146.0189833858  -9.6030988E-08   4.1765861E-05
     10     -146.0189834560  -7.0274325E-08   2.0436027E-05
     11     -146.0189834877  -3.1719338E-08   9.6385498E-06
------------------------------------------------------------

 total:                                   0.539 sec
 * total energy  :  -146.0189835 Eh     change       -0.1321547E-01 Eh
   gradient norm :     0.0727635 Eh/α   predicted    -0.1846521E-01 (  39.72%)
   displ. norm   :     0.5605582 α      lambda       -0.1263511E-01
   maximum displ.:     0.1577706 α      in ANC's #16, #24, #21, ...

........................................................................
.............................. CYCLE   17 ..............................
........................................................................
------------------------------------------------------------
  cycle        total energy    energy error   density error
------------------------------------------------------------
      1     -146.0267680600  -1.4707098E+02   5.5956646E-03
      2     -146.0269060517  -1.3799174E-04   3.0070336E-03
      3     -146.0267211190   1.8493274E-04   2.1103679E-03
      4     -146.0270576967  -3.3657775E-04   4.8533373E-04
      5     -146.0270680464  -1.0349726E-05   2.7526081E-04
      6     -146.0270764961  -8.4496181E-06   1.1070776E-04
      7     -146.0270775161  -1.0200803E-06   5.0407941E-05
      8     -146.0270776290  -1.1283421E-07   2.8638948E-05
      9     -146.0270776493  -2.0317430E-08   1.7993600E-05
------------------------------------------------------------

 total:                                   0.488 sec
 * total energy  :  -146.0270776 Eh     change       -0.8094162E-02 Eh
   gradient norm :     0.0582828 Eh/α   predicted    -0.8302705E-02 (   2.58%)
   displ. norm   :     0.5137419 α      lambda       -0.8192078E-02
   maximum displ.:     0.1341533 α      in ANC's #19, #4, #13, ...

........................................................................
.............................. CYCLE   18 ..............................
........................................................................
------------------------------------------------------------
  cycle        total energy    energy error   density error
------------------------------------------------------------
      1     -146.0304623397  -1.4708785E+02   4.9658191E-03
      2     -146.0305231305  -6.0790795E-05   2.8028596E-03
      3     -146.0303203484   2.0278202E-04   1.4067381E-03
      4     -146.0305528437  -2.3249531E-04   4.2486979E-04
      5     -146.0305676486  -1.4804860E-05   2.2896863E-04
      6     -146.0305727664  -5.1177617E-06   8.3936912E-05
      7     -146.0305731807  -4.1428427E-07   4.4207785E-05
      8     -146.0305732683  -8.7653774E-08   2.4125060E-05
      9     -146.0305732709  -2.6040254E-09   1.5271019E-05
------------------------------------------------------------

 total:                                   0.420 sec
 * total energy  :  -146.0305733 Eh     change       -0.3495622E-02 Eh
   gradient norm :     0.0523288 Eh/α   predicted    -0.5177111E-02 (  48.10%)
   displ. norm   :     0.4186317 α      lambda       -0.7389595E-02
   maximum displ.:     0.1412413 α      in ANC's #4, #28, #13, ...

........................................................................
.............................. CYCLE   19 ..............................
........................................................................
------------------------------------------------------------
  cycle        total energy    energy error   density error
------------------------------------------------------------
      1     -146.0343620548  -1.4709925E+02   4.4066123E-03
      2     -146.0344154879  -5.3433160E-05   2.4745475E-03
      3     -146.0343012416   1.1424634E-04   1.1765331E-03
      4     -146.0344243861  -1.2314451E-04   3.9660762E-04
      5     -146.0344372396  -1.2853544E-05   2.4123683E-04
      6     -146.0344431408  -5.9012247E-06   7.8161236E-05
      7     -146.0344432860  -1.4516809E-07   5.0408366E-05
      8     -146.0344433915  -1.0550295E-07   2.7440012E-05
      9     -146.0344434019  -1.0337175E-08   1.4914247E-05
------------------------------------------------------------

 total:                                   0.537 sec
 * total energy  :  -146.0344434 Eh     change       -0.3870131E-02 Eh
   gradient norm :     0.0462655 Eh/α   predicted    -0.4342315E-02 (  12.20%)
   displ. norm   :     0.3859889 α      lambda       -0.5743497E-02
   maximum displ.:     0.1592598 α      in ANC's #4, #30, #16, ...

........................................................................
.............................. CYCLE   20 ..............................
........................................................................
------------------------------------------------------------
  cycle        total energy    energy error   density error
------------------------------------------------------------
      1     -146.0365501155  -1.4710062E+02   4.9525372E-03
      2     -146.0365586029  -8.4874015E-06   2.8563199E-03
      3     -146.0359407645   6.1783839E-04   2.3711970E-03
      4     -146.0367009314  -7.6016686E-04   5.1771935E-04
      5     -146.0367220970  -2.1165632E-05   2.0466629E-04
      6     -146.0367246508  -2.5537856E-06   6.6646802E-05
      7     -146.0367250266  -3.7576092E-07   3.6696743E-05
      8     -146.0367251318  -1.0520685E-07   1.7169058E-05
------------------------------------------------------------

 total:                                   0.435 sec
 * total energy  :  -146.0367251 Eh     change       -0.2281730E-02 Eh
   gradient norm :     0.0421102 Eh/α   predicted    -0.3299603E-02 (  44.61%)
   displ. norm   :     0.3640570 α      lambda       -0.5122948E-02
   maximum displ.:     0.1516236 α      in ANC's #4, #11, #2, ...
 * RMSD in coord.:     1.2470240 α      energy gain  -0.4369506E+01 Eh

generating ANC from exact Hessian ...
Using Lindh-Hessian (1995)
 Shifting diagonal of input Hessian by    9.7056158652036248E-003
 Lowest  eigenvalues of input Hessian
    0.000000    0.000000    0.000000    0.000000    0.000000    0.000000
    0.010000    0.010242    0.010468    0.010763    0.011468    0.011932
    0.012010    0.012166    0.012229    0.012729    0.012897    0.012971
 Highest eigenvalues
    2.192927    2.206534    2.220669    2.227533    2.243185    2.290270


........................................................................
.............................. CYCLE   21 ..............................
........................................................................
------------------------------------------------------------
  cycle        total energy    energy error   density error
------------------------------------------------------------
      1     -146.0388972837  -1.4710220E+02   4.7024785E-03
      2     -146.0389564738  -5.9190061E-05   2.7006849E-03
      3     -146.0387989650   1.5750878E-04   1.2523946E-03
      4     -146.0389705807  -1.7161564E-04   4.6716395E-04
      5     -146.0389940911  -2.3510488E-05   1.8708358E-04
      6     -146.0389967141  -2.6229268E-06   6.9417582E-05
      7     -146.0389972593  -5.4527069E-07   2.7571267E-05
      8     -146.0389972989  -3.9588940E-08   1.5029089E-05
------------------------------------------------------------

 total:                                   0.364 sec
 * total energy  :  -146.0389973 Eh     change       -0.2272167E-02 Eh
   gradient norm :     0.0401222 Eh/α   predicted     0.0000000E+00 (-100.00%)
   displ. norm   :     0.2752102 α      lambda       -0.4684944E-02
   maximum displ.:     0.0848783 α      in ANC's #12, #5, #11, ...

........................................................................
.............................. CYCLE   22 ..............................
........................................................................
------------------------------------------------------------
  cycle        total energy    energy error   density error
------------------------------------------------------------
      1     -146.0424758937  -1.4710640E+02   2.3407724E-03
      2     -146.0424851209  -9.2272069E-06   1.4577881E-03
      3     -146.0423689315   1.1618938E-04   1.1393919E-03
      4     -146.0425230826  -1.5415105E-04   2.5020073E-04
      5     -146.0425285629  -5.4802844E-06   1.2393687E-04
      6     -146.0425298249  -1.2620027E-06   5.0343116E-05
      7     -146.0425299848  -1.5997216E-07   2.5539404E-05
      8     -146.0425300293  -4.4483045E-08   1.2875634E-05
------------------------------------------------------------

 total:                                   0.389 sec
 * total energy  :  -146.0425300 Eh     change       -0.3532730E-02 Eh
   gradient norm :     0.0205951 Eh/α   predicted    -0.2527655E-02 ( -28.45%)
   displ. norm   :     0.4116862 α      lambda       -0.3328202E-02
   maximum displ.:     0.1526003 α      in ANC's #5, #11, #12, ...

........................................................................
.............................. CYCLE   23 ..............................
........................................................................
------------------------------------------------------------
  cycle        total energy    energy error   density error
------------------------------------------------------------
      1     -146.0447113780  -1.4710803E+02   2.7880409E-03
      2     -146.0447208798  -9.5017174E-06   1.7311319E-03
      3     -146.0445667702   1.5410953E-04   1.4061112E-03
      4     -146.0447865746  -2.1980437E-04   3.1005575E-04
      5     -146.0447935573  -6.9827361E-06   1.6520784E-04
      6     -146.0447960049  -2.4475191E-06   6.5061155E-05
      7     -146.0447962563  -2.5144405E-07   3.2401037E-05
      8     -146.0447963341  -7.7783028E-08   1.6337545E-05
------------------------------------------------------------

 total:                                   0.461 sec
 * total energy  :  -146.0447963 Eh     change       -0.2266305E-02 Eh
   gradient norm :     0.0110279 Eh/α   predicted    -0.1946714E-02 ( -14.10%)
   displ. norm   :     0.3810849 α      lambda       -0.1394400E-02
   maximum displ.:     0.1603107 α      in ANC's #5, #11, #10, ...

........................................................................
.............................. CYCLE   24 ..............................
........................................................................
------------------------------------------------------------
  cycle        total energy    energy error   density error
------------------------------------------------------------
      1     -146.0458040822  -1.4710838E+02   2.3820278E-03
      2     -146.0458043993  -3.1711491E-07   1.4613594E-03
      3     -146.0456657433   1.3865605E-04   1.2246790E-03
      4     -146.0458428794  -1.7713610E-04   2.2484420E-04
      5     -146.0458469443  -4.0649232E-06   1.1406035E-04
      6     -146.0458481810  -1.2366862E-06   4.4424802E-05
      7     -146.0458483058  -1.2485214E-07   2.1648069E-05
      8     -146.0458483361  -3.0286799E-08   1.0811134E-05
------------------------------------------------------------

 total:                                   0.298 sec
 * total energy  :  -146.0458483 Eh     change       -0.1052002E-02 Eh
   gradient norm :     0.0120553 Eh/α   predicted    -0.7984548E-03 ( -24.10%)
   displ. norm   :     0.4533125 α      lambda       -0.1245562E-02
   maximum displ.:     0.1996165 α      in ANC's #11, #5, #10, ...

........................................................................
.............................. CYCLE   25 ..............................
........................................................................
------------------------------------------------------------
  cycle        total energy    energy error   density error
------------------------------------------------------------
      1     -146.0467550470  -1.4710943E+02   2.7785479E-03
      2     -146.0467545620   4.8500891E-07   1.6949873E-03
      3     -146.0465601446   1.9441739E-04   1.3897937E-03
      4     -146.0467948031  -2.3465850E-04   2.4238711E-04
      5     -146.0468005664  -5.7633232E-06   1.0751130E-04
      6     -146.0468016669  -1.1004512E-06   4.3118020E-05
      7     -146.0468018063  -1.3939982E-07   2.0390143E-05
      8     -146.0468018250  -1.8739200E-08   9.9430989E-06
------------------------------------------------------------

 total:                                   0.300 sec
 * total energy  :  -146.0468018 Eh     change       -0.9534889E-03 Eh
   gradient norm :     0.0128886 Eh/α   predicted    -0.7507660E-03 ( -21.26%)
   displ. norm   :     0.4736929 α      lambda       -0.1163549E-02
   maximum displ.:     0.2038707 α      in ANC's #11, #5, #7, ...

........................................................................
.............................. CYCLE   26 ..............................
........................................................................
------------------------------------------------------------
  cycle        total energy    energy error   density error
------------------------------------------------------------
      1     -146.0476729927  -1.4711173E+02   2.8160382E-03
      2     -146.0476761952  -3.2024519E-06   1.7034143E-03
      3     -146.0474949919   1.8120325E-04   1.3030614E-03
      4     -146.0477034618  -2.0846984E-04   2.4275369E-04
      5     -146.0477099110  -6.4491824E-06   9.5912371E-05
      6     -146.0477107261  -8.1515481E-07   3.9870229E-05
      7     -146.0477108629  -1.3675458E-07   1.8465907E-05
------------------------------------------------------------

 total:                                   0.265 sec
 * total energy  :  -146.0477109 Eh     change       -0.9090378E-03 Eh
   gradient norm :     0.0122199 Eh/α   predicted    -0.7123182E-03 ( -21.64%)
   displ. norm   :     0.4979274 α      lambda       -0.1115632E-02
   maximum displ.:     0.2467139 α      in ANC's #7, #11, #5, ...

........................................................................
.............................. CYCLE   27 ..............................
........................................................................
------------------------------------------------------------
  cycle        total energy    energy error   density error
------------------------------------------------------------
      1     -146.0485658750  -1.4711398E+02   2.8122342E-03
      2     -146.0485725949  -6.7199037E-06   1.6949237E-03
      3     -146.0484162420   1.5635293E-04   1.1690893E-03
      4     -146.0485897647  -1.7352271E-04   2.2866905E-04
      5     -146.0485952749  -5.5101991E-06   9.1670961E-05
      6     -146.0485959527  -6.7781608E-07   4.0767555E-05
      7     -146.0485960904  -1.3770790E-07   2.0103350E-05
      8     -146.0485961150  -2.4537684E-08   8.6059059E-06
------------------------------------------------------------

 total:                                   0.318 sec
 * total energy  :  -146.0485961 Eh     change       -0.8852521E-03 Eh
   gradient norm :     0.0118476 Eh/α   predicted    -0.6961914E-03 ( -21.36%)
   displ. norm   :     0.5147854 α      lambda       -0.1089498E-02
   maximum displ.:     0.2955477 α      in ANC's #7, #10, #5, ...

........................................................................
.............................. CYCLE   28 ..............................
........................................................................
------------------------------------------------------------
  cycle        total energy    energy error   density error
------------------------------------------------------------
      1     -146.0494372122  -1.4711626E+02   2.6532519E-03
      2     -146.0494475049  -1.0292666E-05   1.5902561E-03
      3     -146.0493547550   9.2749834E-05   9.2926796E-04
      4     -146.0494538052  -9.9050175E-05   2.2571394E-04
      5     -146.0494596042  -5.7989838E-06   8.2717937E-05
      6     -146.0494600503  -4.4609212E-07   3.6569894E-05
      7     -146.0494601236  -7.3324969E-08   2.1751750E-05
      8     -146.0494601691  -4.5527457E-08   8.7421596E-06
------------------------------------------------------------

 total:                                   0.416 sec
 * total energy  :  -146.0494602 Eh     change       -0.8640542E-03 Eh
   gradient norm :     0.0119707 Eh/α   predicted    -0.6891112E-03 ( -20.25%)
   displ. norm   :     0.5284316 α      lambda       -0.1067501E-02
   maximum displ.:     0.3268014 α      in ANC's #7, #10, #5, ...

........................................................................
.............................. CYCLE   29 ..............................
........................................................................
------------------------------------------------------------
  cycle        total energy    energy error   density error
------------------------------------------------------------
      1     -146.0503020910  -1.4711718E+02   2.5210888E-03
      2     -146.0503113950  -9.3039482E-06   1.5046373E-03
      3     -146.0502523230   5.9071988E-05   7.6652775E-04
      4     -146.0503155445  -6.3221503E-05   1.9613126E-04
      5     -146.0503192406  -3.6961023E-06   8.8531147E-05
      6     -146.0503200677  -8.2710346E-07   3.1165613E-05
      7     -146.0503201345  -6.6777289E-08   1.7713149E-05
------------------------------------------------------------

 total:                                   0.292 sec
 * total energy  :  -146.0503201 Eh     change       -0.8599654E-03 Eh
   gradient norm :     0.0133410 Eh/α   predicted    -0.6828111E-03 ( -20.60%)
   displ. norm   :     0.5083070 α      lambda       -0.1388972E-02
   maximum displ.:     0.3370754 α      in ANC's #7, #16, #10, ...

........................................................................
.............................. CYCLE   30 ..............................
........................................................................
------------------------------------------------------------
  cycle        total energy    energy error   density error
------------------------------------------------------------
      1     -146.0508377227  -1.4712569E+02   2.4114253E-03
      2     -146.0508591524  -2.1429705E-05   1.4133384E-03
      3     -146.0508218791   3.7273309E-05   7.0183854E-04
      4     -146.0508683870  -4.6507896E-05   1.8792876E-04
      5     -146.0508705345  -2.1475522E-06   8.7907214E-05
      6     -146.0508710803  -5.4583410E-07   4.2292324E-05
      7     -146.0508711240  -4.3629797E-08   2.3185720E-05
      8     -146.0508711722  -4.8273705E-08   1.2488889E-05
------------------------------------------------------------

 total:                                   0.301 sec
 * total energy  :  -146.0508712 Eh     change       -0.5510378E-03 Eh
   gradient norm :     0.0178107 Eh/α   predicted    -0.8739246E-03 (  58.60%)
   displ. norm   :     0.5926579 α      lambda       -0.1919509E-02
   maximum displ.:     0.3280379 α      in ANC's #7, #10, #11, ...

........................................................................
.............................. CYCLE   31 ..............................
........................................................................
------------------------------------------------------------
  cycle        total energy    energy error   density error
------------------------------------------------------------
      1     -146.0516925001  -1.4711652E+02   3.0302968E-03
      2     -146.0517090554  -1.6555221E-05   1.8111130E-03
      3     -146.0516537760   5.5279404E-05   7.0790195E-04
      4     -146.0517180432  -6.4267287E-05   1.6491649E-04
      5     -146.0517189575  -9.1421501E-07   1.0143647E-04
      6     -146.0517198889  -9.3144465E-07   4.3437396E-05
      7     -146.0517199788  -8.9853586E-08   2.7845576E-05
      8     -146.0517200535  -7.4773396E-08   9.3829382E-06
------------------------------------------------------------

 total:                                   0.325 sec
 * total energy  :  -146.0517201 Eh     change       -0.8488813E-03 Eh
   gradient norm :     0.0215098 Eh/α   predicted    -0.1296862E-02 (  52.77%)
   displ. norm   :     0.1114779 α      lambda       -0.7291317E-03
   maximum displ.:     0.0442099 α      in ANC's #11, #7, #16, ...

........................................................................
.............................. CYCLE   32 ..............................
........................................................................
------------------------------------------------------------
  cycle        total energy    energy error   density error
------------------------------------------------------------
      1     -146.0522719057  -1.4711837E+02   7.6518403E-04
      2     -146.0522746217  -2.7159662E-06   4.6930181E-04
      3     -146.0522665368   8.0849138E-06   2.9894290E-04
      4     -146.0522766353  -1.0098530E-05   7.8700652E-05
      5     -146.0522771570  -5.2166141E-07   4.1932339E-05
      6     -146.0522773095  -1.5257089E-07   1.8519373E-05
------------------------------------------------------------

 total:                                   0.236 sec
 * total energy  :  -146.0522773 Eh     change       -0.5572560E-03 Eh
   gradient norm :     0.0130499 Eh/α   predicted    -0.3690996E-03 ( -33.76%)
   displ. norm   :     0.4168779 α      lambda       -0.1208309E-02
   maximum displ.:     0.1937364 α      in ANC's #7, #16, #10, ...

........................................................................
.............................. CYCLE   33 ..............................
........................................................................
------------------------------------------------------------
  cycle        total energy    energy error   density error
------------------------------------------------------------
      1     -146.0531507277  -1.4712117E+02   2.0205777E-03
      2     -146.0531569286  -6.2008865E-06   1.2284601E-03
      3     -146.0531100798   4.6848731E-05   6.0275152E-04
      4     -146.0531608529  -5.0773104E-05   1.4809621E-04
      5     -146.0531628247  -1.9717562E-06   7.5258925E-05
      6     -146.0531631874  -3.6269776E-07   3.5164735E-05
      7     -146.0531632271  -3.9720561E-08   1.7240856E-05
------------------------------------------------------------

 total:                                   0.249 sec
 * total energy  :  -146.0531632 Eh     change       -0.8859176E-03 Eh
   gradient norm :     0.0079817 Eh/α   predicted    -0.7091517E-03 ( -19.95%)
   displ. norm   :     0.6533544 α      lambda       -0.1150388E-02
   maximum displ.:     0.3391492 α      in ANC's #7, #10, #16, ...

........................................................................
.............................. CYCLE   34 ..............................
........................................................................
------------------------------------------------------------
  cycle        total energy    energy error   density error
------------------------------------------------------------
      1     -146.0539723450  -1.4711879E+02   2.8778330E-03
      2     -146.0539813032  -8.9582162E-06   1.7304605E-03
      3     -146.0539484002   3.2903049E-05   4.9172591E-04
      4     -146.0539857690  -3.7368894E-05   1.1944844E-04
      5     -146.0539867300  -9.6090670E-07   5.8261649E-05
      6     -146.0539868830  -1.5304173E-07   2.6958555E-05
      7     -146.0539869127  -2.9727119E-08   1.0566488E-05
------------------------------------------------------------

 total:                                   0.247 sec
 * total energy  :  -146.0539869 Eh     change       -0.8236856E-03 Eh
   gradient norm :     0.0154867 Eh/α   predicted    -0.8207345E-03 (  -0.36%)
   displ. norm   :     0.4879809 α      lambda       -0.1158667E-02
   maximum displ.:     0.2587157 α      in ANC's #16, #4, #10, ...

........................................................................
.............................. CYCLE   35 ..............................
........................................................................
------------------------------------------------------------
  cycle        total energy    energy error   density error
------------------------------------------------------------
      1     -146.0547558407  -1.4712308E+02   2.7856601E-03
      2     -146.0547710846  -1.5243924E-05   1.6559877E-03
      3     -146.0547367212   3.4363478E-05   5.9158301E-04
      4     -146.0547768395  -4.0118352E-05   1.4392517E-04
      5     -146.0547779230  -1.0834821E-06   7.5216192E-05
      6     -146.0547782034  -2.8038426E-07   3.6061410E-05
      7     -146.0547782674  -6.4038517E-08   1.8392754E-05
------------------------------------------------------------

 total:                                   0.272 sec
 * total energy  :  -146.0547783 Eh     change       -0.7913547E-03 Eh
   gradient norm :     0.0156573 Eh/α   predicted    -0.7172913E-03 (  -9.36%)
   displ. norm   :     0.5390372 α      lambda       -0.1135301E-02
   maximum displ.:     0.2854984 α      in ANC's #16, #7, #10, ...

........................................................................
.............................. CYCLE   36 ..............................
........................................................................
------------------------------------------------------------
  cycle        total energy    energy error   density error
------------------------------------------------------------
      1     -146.0555050488  -1.4712147E+02   2.2626510E-03
      2     -146.0555226454  -1.7596661E-05   1.3762399E-03
      3     -146.0555021708   2.0474626E-05   4.6755177E-04
      4     -146.0555253866  -2.3215799E-05   1.7006338E-04
      5     -146.0555277651  -2.3784825E-06   9.7734346E-05
      6     -146.0555282965  -5.3144390E-07   5.2949951E-05
      7     -146.0555284418  -1.4523306E-07   2.0771495E-05
      8     -146.0555284926  -5.0881482E-08   9.3897394E-06
------------------------------------------------------------

 total:                                   0.304 sec
 * total energy  :  -146.0555285 Eh     change       -0.7502252E-03 Eh
   gradient norm :     0.0132494 Eh/α   predicted    -0.7325924E-03 (  -2.35%)
   displ. norm   :     0.4040306 α      lambda       -0.1169840E-02
   maximum displ.:     0.2227166 α      in ANC's #16, #4, #18, ...

........................................................................
.............................. CYCLE   37 ..............................
........................................................................
------------------------------------------------------------
  cycle        total energy    energy error   density error
------------------------------------------------------------
      1     -146.0557616126  -1.4712997E+02   2.7178740E-03
      2     -146.0557791510  -1.7538377E-05   1.5847419E-03
      3     -146.0557275780   5.1573069E-05   6.9835629E-04
      4     -146.0557841127  -5.6534746E-05   2.0397456E-04
      5     -146.0557873679  -3.2551585E-06   1.0786843E-04
      6     -146.0557884959  -1.1280692E-06   4.7381312E-05
      7     -146.0557886283  -1.3233497E-07   1.8127830E-05
------------------------------------------------------------

 total:                                   0.368 sec
 * total energy  :  -146.0557886 Eh     change       -0.2601356E-03 Eh
   gradient norm :     0.0195470 Eh/α   predicted    -0.6804028E-03 ( 161.56%)
   displ. norm   :     0.5244625 α      lambda       -0.1482318E-02
   maximum displ.:     0.2274007 α      in ANC's #16, #7, #4, ...

........................................................................
.............................. CYCLE   38 ..............................
........................................................................
------------------------------------------------------------
  cycle        total energy    energy error   density error
------------------------------------------------------------
      1     -146.0564633073  -1.4712184E+02   2.4963456E-03
      2     -146.0564743050  -1.0997691E-05   1.4954351E-03
      3     -146.0564397643   3.4540665E-05   5.3173469E-04
      4     -146.0564791798  -3.9415416E-05   1.2937611E-04
      5     -146.0564801920  -1.0122913E-06   7.0901731E-05
      6     -146.0564803590  -1.6690683E-07   4.3385681E-05
      7     -146.0564805169  -1.5795160E-07   1.9352611E-05
------------------------------------------------------------

 total:                                   0.269 sec
 * total energy  :  -146.0564805 Eh     change       -0.6918886E-03 Eh
   gradient norm :     0.0156413 Eh/α   predicted    -0.9450221E-03 (  36.59%)
   displ. norm   :     0.1753553 α      lambda       -0.6349532E-03
   maximum displ.:     0.0911967 α      in ANC's #5, #12, #4, ...

........................................................................
.............................. CYCLE   39 ..............................
........................................................................
------------------------------------------------------------
  cycle        total energy    energy error   density error
------------------------------------------------------------
      1     -146.0567687725  -1.4712121E+02   1.2338698E-03
      2     -146.0567808013  -1.2028763E-05   7.8874675E-04
      3     -146.0567713118   9.4895038E-06   4.1951642E-04
      4     -146.0567849684  -1.3656621E-05   1.2181284E-04
      5     -146.0567863287  -1.3602761E-06   6.7527540E-05
      6     -146.0567866204  -2.9168126E-07   3.8058911E-05
      7     -146.0567866732  -5.2818478E-08   2.0453211E-05
      8     -146.0567867153  -4.2113413E-08   7.8233037E-06
------------------------------------------------------------

 total:                                   0.336 sec
 * total energy  :  -146.0567867 Eh     change       -0.3061984E-03 Eh
   gradient norm :     0.0138498 Eh/α   predicted    -0.3272441E-03 (   6.87%)
   displ. norm   :     0.2692904 α      lambda       -0.6744802E-03
   maximum displ.:     0.0982764 α      in ANC's #16, #2, #12, ...

........................................................................
.............................. CYCLE   40 ..............................
........................................................................
------------------------------------------------------------
  cycle        total energy    energy error   density error
------------------------------------------------------------
      1     -146.0571656026  -1.4712631E+02   1.3706929E-03
      2     -146.0571737856  -8.1829529E-06   8.2612339E-04
      3     -146.0571548108   1.8974772E-05   4.9143263E-04
      4     -146.0571790149  -2.4204110E-05   1.1754320E-04
      5     -146.0571797940  -7.7910224E-07   7.1455933E-05
      6     -146.0571802786  -4.8458787E-07   3.2821168E-05
      7     -146.0571803295  -5.0867726E-08   1.4381565E-05
------------------------------------------------------------

 total:                                   0.297 sec
 * total energy  :  -146.0571803 Eh     change       -0.3936142E-03 Eh
   gradient norm :     0.0096712 Eh/α   predicted    -0.3616966E-03 (  -8.11%)
   displ. norm   :     0.4621485 α      lambda       -0.6071095E-03
   maximum displ.:     0.1654589 α      in ANC's #16, #2, #10, ...

........................................................................
.............................. CYCLE   41 ..............................
........................................................................
------------------------------------------------------------
  cycle        total energy    energy error   density error
------------------------------------------------------------
      1     -146.0575762806  -1.4712481E+02   2.2640834E-03
      2     -146.0575830323  -6.7517032E-06   1.3508679E-03
      3     -146.0575565747   2.6457657E-05   4.8726297E-04
      4     -146.0575861639  -2.9589217E-05   1.1817136E-04
      5     -146.0575870779  -9.1406190E-07   6.6378156E-05
      6     -146.0575874483  -3.7034016E-07   3.7628884E-05
      7     -146.0575875321  -8.3764547E-08   1.8200793E-05
------------------------------------------------------------

 total:                                   0.283 sec
 * total energy  :  -146.0575875 Eh     change       -0.4072026E-03 Eh
   gradient norm :     0.0083992 Eh/α   predicted    -0.3683916E-03 (  -9.53%)
   displ. norm   :     0.3764667 α      lambda       -0.4865790E-03
   maximum displ.:     0.1272018 α      in ANC's #2, #12, #3, ...

........................................................................
.............................. CYCLE   42 ..............................
........................................................................
------------------------------------------------------------
  cycle        total energy    energy error   density error
------------------------------------------------------------
      1     -146.0578679008  -1.4712534E+02   1.8849403E-03
      2     -146.0578739790  -6.0781589E-06   1.1293302E-03
      3     -146.0578081238   6.5855210E-05   7.0978911E-04
      4     -146.0578808064  -7.2682644E-05   1.7097757E-04
      5     -146.0578835994  -2.7930285E-06   7.0385972E-05
      6     -146.0578839795  -3.8002440E-07   4.4161735E-05
      7     -146.0578841487  -1.6929576E-07   1.5072332E-05
------------------------------------------------------------

 total:                                   0.267 sec
 * total energy  :  -146.0578841 Eh     change       -0.2966167E-03 Eh
   gradient norm :     0.0095467 Eh/α   predicted    -0.2777718E-03 (  -6.35%)
   displ. norm   :     0.3581796 α      lambda       -0.4917081E-03
   maximum displ.:     0.1498622 α      in ANC's #12, #3, #2, ...
 * RMSD in coord.:     0.9513837 α      energy gain  -0.2115902E-01 Eh

generating ANC from exact Hessian ...
Using Lindh-Hessian (1995)
 Shifting diagonal of input Hessian by    9.7172592582432729E-003
 Lowest  eigenvalues of input Hessian
    0.000000    0.000000    0.000000    0.000000    0.000000    0.000000
    0.010000    0.010216    0.010414    0.010586    0.011514    0.011836
    0.012138    0.012425    0.012640    0.012923    0.012947    0.013744
 Highest eigenvalues
    2.216589    2.227331    2.239957    2.249756    2.275001    2.293603


........................................................................
.............................. CYCLE   43 ..............................
........................................................................
------------------------------------------------------------
  cycle        total energy    energy error   density error
------------------------------------------------------------
      1     -146.0581390117  -1.4712711E+02   1.9474632E-03
      2     -146.0581409856  -1.9738695E-06   1.1784830E-03
      3     -146.0580417102   9.9275369E-05   9.3498892E-04
      4     -146.0581604565  -1.1874628E-04   2.1153477E-04
      5     -146.0581645067  -4.0501828E-06   8.7890082E-05
      6     -146.0581653194  -8.1274598E-07   3.8698938E-05
      7     -146.0581653970  -7.7617841E-08   1.7592124E-05
------------------------------------------------------------

 total:                                   0.260 sec
 * total energy  :  -146.0581654 Eh     change       -0.2812483E-03 Eh
   gradient norm :     0.0110129 Eh/α   predicted     0.0000000E+00 (-100.00%)
   displ. norm   :     0.1290545 α      lambda       -0.4489349E-03
   maximum displ.:     0.0809433 α      in ANC's #6, #9, #8, ...

........................................................................
.............................. CYCLE   44 ..............................
........................................................................
------------------------------------------------------------
  cycle        total energy    energy error   density error
------------------------------------------------------------
      1     -146.0585395591  -1.4712779E+02   8.5755630E-04
      2     -146.0585419006  -2.3415313E-06   5.2205393E-04
      3     -146.0585310192   1.0881341E-05   3.2769794E-04
      4     -146.0585447266  -1.3707307E-05   6.0365499E-05
      5     -146.0585449928  -2.6622592E-07   3.1939373E-05
      6     -146.0585450523  -5.9560790E-08   1.4174544E-05
------------------------------------------------------------

 total:                                   0.216 sec
 * total energy  :  -146.0585451 Eh     change       -0.3796553E-03 Eh
   gradient norm :     0.0063818 Eh/α   predicted    -0.2282934E-03 ( -39.87%)
   displ. norm   :     0.4020968 α      lambda       -0.9068484E-03
   maximum displ.:     0.2669390 α      in ANC's #6, #9, #8, ...

........................................................................
.............................. CYCLE   45 ..............................
........................................................................
------------------------------------------------------------
  cycle        total energy    energy error   density error
------------------------------------------------------------
      1     -146.0591683211  -1.4712789E+02   2.2950066E-03
      2     -146.0591843108  -1.5989750E-05   1.3954048E-03
      3     -146.0591105045   7.3806264E-05   8.5197730E-04
      4     -146.0592009829  -9.0478321E-05   1.6161150E-04
      5     -146.0592027131  -1.7302300E-06   8.3803045E-05
      6     -146.0592031611  -4.4797795E-07   4.4671852E-05
      7     -146.0592032823  -1.2123709E-07   2.7795836E-05
      8     -146.0592033682  -8.5901945E-08   9.0174736E-06
------------------------------------------------------------

 total:                                   0.346 sec
 * total energy  :  -146.0592034 Eh     change       -0.6583159E-03 Eh
   gradient norm :     0.0063961 Eh/α   predicted    -0.5267685E-03 ( -19.98%)
   displ. norm   :     0.4106254 α      lambda       -0.5698670E-03
   maximum displ.:     0.2839337 α      in ANC's #6, #9, #3, ...

........................................................................
.............................. CYCLE   46 ..............................
........................................................................
------------------------------------------------------------
  cycle        total energy    energy error   density error
------------------------------------------------------------
      1     -146.0596447301  -1.4712707E+02   2.1352996E-03
      2     -146.0596566510  -1.1920846E-05   1.2930660E-03
      3     -146.0595888665   6.7784510E-05   8.5665686E-04
      4     -146.0596700982  -8.1231681E-05   1.8650085E-04
      5     -146.0596732023  -3.1041581E-06   9.2892822E-05
      6     -146.0596739897  -7.8733279E-07   4.4826441E-05
      7     -146.0596741358  -1.4609734E-07   2.1976213E-05
      8     -146.0596741776  -4.1893117E-08   7.8754667E-06
------------------------------------------------------------

 total:                                   0.438 sec
 * total energy  :  -146.0596742 Eh     change       -0.4708094E-03 Eh
   gradient norm :     0.0100581 Eh/α   predicted    -0.3329777E-03 ( -29.28%)
   displ. norm   :     0.4413201 α      lambda       -0.6095037E-03
   maximum displ.:     0.3020734 α      in ANC's #6, #3, #9, ...

........................................................................
.............................. CYCLE   47 ..............................
........................................................................
------------------------------------------------------------
  cycle        total energy    energy error   density error
------------------------------------------------------------
      1     -146.0601440637  -1.4712669E+02   2.1916968E-03
      2     -146.0601553259  -1.1262286E-05   1.3208416E-03
      3     -146.0600794946   7.5831297E-05   9.3435634E-04
      4     -146.0601707561  -9.1261484E-05   2.1474151E-04
      5     -146.0601758088  -5.0526606E-06   9.0184178E-05
      6     -146.0601764930  -6.8421434E-07   4.3615970E-05
      7     -146.0601766264  -1.3337257E-07   2.1413577E-05
      8     -146.0601766644  -3.8048967E-08   7.4529699E-06
------------------------------------------------------------

 total:                                   0.344 sec
 * total energy  :  -146.0601767 Eh     change       -0.5024868E-03 Eh
   gradient norm :     0.0123683 Eh/α   predicted    -0.3641077E-03 ( -27.54%)
   displ. norm   :     0.4785378 α      lambda       -0.7319238E-03
   maximum displ.:     0.3298348 α      in ANC's #6, #3, #9, ...

........................................................................
.............................. CYCLE   48 ..............................
........................................................................
------------------------------------------------------------
  cycle        total energy    energy error   density error
------------------------------------------------------------
      1     -146.0606913744  -1.4712744E+02   2.3717087E-03
      2     -146.0607024007  -1.1026289E-05   1.4156906E-03
      3     -146.0606071779   9.5222761E-05   1.0595268E-03
      4     -146.0607224554  -1.1527749E-04   2.5702992E-04
      5     -146.0607305113  -8.0558738E-06   9.0180402E-05
      6     -146.0607311145  -6.0318752E-07   4.4338212E-05
      7     -146.0607312722  -1.5773998E-07   2.0362437E-05
      8     -146.0607312992  -2.7045218E-08   7.5629958E-06
------------------------------------------------------------

 total:                                   0.329 sec
 * total energy  :  -146.0607313 Eh     change       -0.5546348E-03 Eh
   gradient norm :     0.0141634 Eh/α   predicted    -0.4497674E-03 ( -18.91%)
   displ. norm   :     0.3683161 α      lambda       -0.7045933E-03
   maximum displ.:     0.2473063 α      in ANC's #6, #3, #2, ...

........................................................................
.............................. CYCLE   49 ..............................
........................................................................
------------------------------------------------------------
  cycle        total energy    energy error   density error
------------------------------------------------------------
      1     -146.0612185273  -1.4713030E+02   1.9586364E-03
      2     -146.0612269688  -8.4415410E-06   1.1550689E-03
      3     -146.0611574838   6.9484967E-05   8.6897698E-04
      4     -146.0612391892  -8.1705388E-05   2.1997924E-04
      5     -146.0612449895  -5.8002709E-06   7.7306550E-05
      6     -146.0612454835  -4.9402220E-07   3.6255911E-05
      7     -146.0612455809  -9.7341285E-08   1.6530957E-05
------------------------------------------------------------

 total:                                   0.333 sec
 * total energy  :  -146.0612456 Eh     change       -0.5142816E-03 Eh
   gradient norm :     0.0127846 Eh/α   predicted    -0.4000898E-03 ( -22.20%)
   displ. norm   :     0.4047404 α      lambda       -0.5959803E-03
   maximum displ.:     0.2637214 α      in ANC's #6, #3, #2, ...

........................................................................
.............................. CYCLE   50 ..............................
........................................................................
------------------------------------------------------------
  cycle        total energy    energy error   density error
------------------------------------------------------------
      1     -146.0616573364  -1.4713031E+02   2.1607841E-03
      2     -146.0616651596  -7.8232648E-06   1.2906946E-03
      3     -146.0615655060   9.9653631E-05   9.7473883E-04
      4     -146.0616828373  -1.1733136E-04   2.1936609E-04
      5     -146.0616880573  -5.2199100E-06   8.5350874E-05
      6     -146.0616888195  -7.6225805E-07   4.0392019E-05
      7     -146.0616889362  -1.1668729E-07   1.7916582E-05
[...]
    32  16 S       37   9 F                                       1.6651834
    20   6 C       38  16 S                                       1.8399783
    38  16 S       39   9 F                                       1.6737832
    38  16 S       40   9 F                                       1.6531337
    38  16 S       41   9 F                                       1.6144325
    38  16 S       42   9 F                                       1.6623510
    38  16 S       43   9 F                                       1.6646682
    16   6 C       44  16 S                                       1.8534280 (max)
    44  16 S       45   9 F                                       1.6430683
    44  16 S       46   9 F                                       1.6570744
    44  16 S       47   9 F                                       1.6165600
    44  16 S       48   9 F                                       1.6605795
    44  16 S       49   9 F                                       1.6842373
    31   6 C       50   1 H                                       1.0885427
    31   6 C       51   1 H                                       1.0928629
    31   6 C       52   1 H                                       1.0925125
    30   6 C       53   1 H                                       1.0888209
    30   6 C       54   1 H                                       1.0914071
    30   6 C       55   1 H                                       1.0932168
    56   6 C       57   6 C                                       1.3914828
    57   6 C       58   6 C                                       1.4220154
    58   6 C       59   6 C                                       1.4286860
    59   6 C       60   6 C                                       1.4212859
    56   6 C       61   6 C                                       1.3853591
    60   6 C       61   6 C                                       1.3551556
    58   6 C       62   6 C                                       1.4297882
    62   6 C       63   6 C                                       1.4041544
    63   6 C       64   6 C                                       1.4259921
    59   6 C       65   7 N                                       1.3306505
    64   6 C       65   7 N                                       1.3260794
    62   6 C       66   6 C                                       1.4282251
    66   6 C       67   6 C                                       1.4318559
    67   6 C       68   7 N                                       1.3313005
    63   6 C       69   6 C                                       1.4274116
    68   7 N       69   6 C                                       1.3250201
    69   6 C       70   6 C                                       1.4181787
    70   6 C       71   6 C                                       1.3711493
    64   6 C       72   6 C                                       1.4154779
    71   6 C       72   6 C                                       1.3712496
    66   6 C       73   6 C                                       1.4225886
    73   6 C       74   6 C                                       1.3887879
    74   6 C       75   6 C                                       1.3865552
    67   6 C       76   6 C                                       1.4206680
    75   6 C       76   6 C                                       1.3550679
    73   6 C       77   8 O                                       1.3374260
    57   6 C       78   8 O                                       1.3343619
    60   6 C       79   1 H                                       1.0741913
    56   6 C       80   1 H                                       1.0739942 (min)
Note: The following floating-point exceptions are signalling: IEEE_UNDERFLOW_FLAG
normal termination of xtb
    72   6 C       81   1 H                                       1.0761355
    70   6 C       82   1 H                                       1.0765756
    76   6 C       83   1 H                                       1.0753811
    74   6 C       84   1 H                                       1.0750687
    77   8 O       85   6 C                                       1.4162271
    78   8 O       86   6 C                                       1.4204608
    61   6 C       87  16 S                                       1.8532788
    87  16 S       88   9 F                                       1.6736400
    87  16 S       89   9 F                                       1.6515320
    87  16 S       90   9 F                                       1.6252328
    87  16 S       91   9 F                                       1.6837776
    87  16 S       92   9 F                                       1.6541856
    75   6 C       93  16 S                                       1.8454352
    93  16 S       94   9 F                                       1.6643509
    93  16 S       95   9 F                                       1.6653540
    93  16 S       96   9 F                                       1.6106371
    93  16 S       97   9 F                                       1.6540491
    93  16 S       98   9 F                                       1.6536783
    71   6 C       99  16 S                                       1.8464278
    99  16 S      100   9 F                                       1.6468106
    99  16 S      101   9 F                                       1.6469585
    99  16 S      102   9 F                                       1.6146254
    99  16 S      103   9 F                                       1.6623346
    99  16 S      104   9 F                                       1.6637273
    86   6 C      105   1 H                                       1.0887957
    86   6 C      106   1 H                                       1.0937005
    86   6 C      107   1 H                                       1.0926362
    85   6 C      108   1 H                                       1.0885306
    85   6 C      109   1 H                                       1.0927717
    85   6 C      110   1 H                                       1.0923958

 * 6 distinct bonds (by element types)

   Z      Z             #   av. dist./Å        max./Å        min./Å
   1 H    6 C          24     1.0832772     1.0937005     1.0739942
   6 C    6 C          42     1.4046751     1.4323139     1.3532735
   6 C    7 N           8     1.3291583     1.3339855     1.3250201
   6 C    8 O           8     1.3765013     1.4204608     1.3326544
   6 C   16 S           6     1.8473048     1.8534280     1.8399783
   9 F   16 S          30     1.6516306     1.6842373     1.6106371


optimized geometry written to: xtbopt.mol


           -------------------------------------------------
          | TOTAL ENERGY             -292.192926570339 Eh   |
          | GRADIENT NORM               0.000199001829 Eh/α |
           -------------------------------------------------

------------------------------------------------------------------------
 * finished run on 2025/03/04 at 13:10:25.674     
------------------------------------------------------------------------
 total:
 * wall-time:     0 d,  0 h,  2 min,  1.643 sec
 *  cpu-time:     0 d,  0 h,  5 min, 38.307 sec
 * ratio c/w:     2.781 speedup
 SCF:
 * wall-time:     0 d,  0 h,  0 min,  2.469 sec
 *  cpu-time:     0 d,  0 h,  0 min,  8.484 sec
 * ratio c/w:     3.437 speedup
 ANC optimizer:
 * wall-time:     0 d,  0 h,  1 min, 59.167 sec
 *  cpu-time:     0 d,  0 h,  5 min, 29.818 sec
 * ratio c/w:     2.768 speedup

      -----------------------------------------------------------      
     |                   =====================                   |     
     |                           x T B                           |     
     |                   =====================                   |     
     |                         S. Grimme                         |     
     |          Mulliken Center for Theoretical Chemistry        |     
     |                    University of Bonn                     |     
      -----------------------------------------------------------      

   * xtb version 6.7.1 (edcfbbe) compiled by 'runner@Mac-1732539442253.local' on 2024-11-25

   xtb is free software: you can redistribute it and/or modify it under
   the terms of the GNU Lesser General Public License as published by
   the Free Software Foundation, either version 3 of the License, or
   (at your option) any later version.
   
   xtb is distributed in the hope that it will be useful,
   but WITHOUT ANY WARRANTY; without even the implied warranty of
   MERCHANTABILITY or FITNESS FOR A PARTICULAR PURPOSE.  See the
   GNU Lesser General Public License for more details.
   
   Cite this work as:
   * C. Bannwarth, E. Caldeweyher, S. Ehlert, A. Hansen, P. Pracht,
     J. Seibert, S. Spicher, S. Grimme, WIREs Comput. Mol. Sci., 2020, 11,
     e01493. DOI: 10.1002/wcms.1493
   
   for GFN2-xTB:
   * C. Bannwarth, S. Ehlert and S. Grimme., J. Chem. Theory Comput., 2019,
     15, 1652-1671. DOI: 10.1021/acs.jctc.8b01176
   for GFN1-xTB:
   * S. Grimme, C. Bannwarth, P. Shushkov, J. Chem. Theory Comput., 2017,
     13, 1989-2009. DOI: 10.1021/acs.jctc.7b00118
   for GFN0-xTB:
   * P. Pracht, E. Caldeweyher, S. Ehlert, S. Grimme, ChemRxiv, 2019, preprint.
     DOI: 10.26434/chemrxiv.8326202.v1
   for GFN-FF:
   * S. Spicher and S. Grimme, Angew. Chem. Int. Ed., 2020, 59, 15665-15673.
     DOI: 10.1002/anie.202004239
   
   for ALPB and GBSA implicit solvation:
   * S. Ehlert, M. Stahn, S. Spicher, S. Grimme, J. Chem. Theory Comput.,
     2021, 17, 4250-4261. DOI: 10.1021/acs.jctc.1c00471
   
   for ddCOSMO and CPCM-X implicit solvation:
   * M. Stahn, S. Ehlert, S. Grimme, J. Phys. Chem. A,
     2023, XX, XXXX-XXXX. DOI: 10.1021/acs.jpca.3c04382
   
   for DFT-D4:
   * E. Caldeweyher, C. Bannwarth and S. Grimme, J. Chem. Phys., 2017,
     147, 034112. DOI: 10.1063/1.4993215
   * E. Caldeweyher, S. Ehlert, A. Hansen, H. Neugebauer, S. Spicher,
     C. Bannwarth and S. Grimme, J. Chem. Phys., 2019, 150, 154122.
     DOI: 10.1063/1.5090222
   * E. Caldeweyher, J.-M. Mewes, S. Ehlert and S. Grimme, Phys. Chem. Chem. Phys.
     2020, 22, 8499-8512. DOI: 10.1039/D0CP00502A
   
   for sTDA-xTB:
   * S. Grimme and C. Bannwarth, J. Chem. Phys., 2016, 145, 054103.
     DOI: 10.1063/1.4959605
   
   in the mass-spec context:
   * V. Asgeirsson, C. Bauer and S. Grimme, Chem. Sci., 2017, 8, 4879.
     DOI: 10.1039/c7sc00601b
   * J. Koopman and S. Grimme, ACS Omega 2019, 4, 12, 15120-15133.
     DOI: 10.1021/acsomega.9b02011
   
   for metadynamics refer to:
   * S. Grimme, J. Chem. Theory Comput., 2019, 155, 2847-2862
     DOI: 10.1021/acs.jctc.9b00143
   
   for SPH calculations refer to:
   * S. Spicher and S. Grimme, J. Chem. Theory Comput., 2021, 17, 1701-1714
     DOI: 10.1021/acs.jctc.0c01306
   
   for ONIOM refer to:
   * C. Plett, A. Katbashev, S. Ehlert, S. Grimme, M. Bursch,
     Phys. Chem. Chem. Phys., 2023, 25, 17860-17868. DOI: 10.1039/D3CP02178E
   
   for DIPRO refer to:
   * J. Kohn, N. Gildemeister, S. Grimme, D. Fazzi, A. Hansen,
     J. Chem. Phys., 2023, just accepted.
   
   for PTB refer to:
   * S. Grimme, M. Mueller, A. Hansen, J. Chem. Phys., 2023, 158, 124111.
     DOI: 10.1063/5.0137838
   
   with help from (in alphabetical order)
   P. Atkinson, C. Bannwarth, F. Bohle, G. Brandenburg, E. Caldeweyher
   M. Checinski, S. Dohm, S. Ehlert, S. Ehrlich, I. Gerasimov, C. Hölzer
   A. Katbashev, J. Kohn, J. Koopman, C. Lavigne, S. Lehtola, F. März, M. Müller,
   F. Musil, H. Neugebauer, J. Pisarek, C. Plett, P. Pracht, F. Pultar,
   J. Seibert, P. Shushkov, S. Spicher, M. Stahn, M. Steiner, T. Strunk,
   J. Stückrath, T. Rose, and J. Unsleber
   
 * started run on 2025/03/04 at 13:10:25.713     
   ID    Z sym.   atoms
    1    6 C      1-9, 11, 12, 14-21, 30, 31, 56-64, 66, 67, 69-76, 85, 86
    2    7 N      10, 13, 65, 68
    3    8 O      22, 23, 77, 78
    4    1 H      24-29, 50-55, 79-84, 105-110
    5   16 S      32, 38, 44, 87, 93, 99
    6    9 F      33-37, 39-43, 45-49, 88-92, 94-98, 100-104

           -------------------------------------------------
          |                Calculation Setup                |
           -------------------------------------------------

          program call               : xtb opt_dimer.mol --dipro 0.3 --chrg 0 --uhf 2 --spinpol --tblite
          coordinate file            : opt_dimer.mol
          omp threads                :                     8


molecular fragmentation (1/2 indicates fragments):
111111111111111111111111111111111111111111111111111111122222222222222222
22222222222222222222222222222222222222
# atoms in fragment 1/2:    55    55
 fragment masses (1/2) :      705.50      705.50
CMA distance (Bohr)    :  13.968
constraining FC (au)   :  0.0500
Wavefunction read from restart file
           -------------------------------------------------
          |                    D I P R O                    |
           -------------------------------------------------
Calculation for dimer 
--------------------- 
  
charge of dimer :   0.
unpaired e- of dimer :  2
repulsion energy          2.1461611555208E+00 Eh
dispersion energy         7.6290934113174E-03 Eh
number of electrons       4.8200000000000E+02 e
integral cutoff           1.8403572253217E+01 bohr

------------------------------------------------------------
  cycle        total energy    energy error   density error
------------------------------------------------------------
      1     -291.1760277193  -2.9332982E+02   2.5978472E-01
      2     -291.7049624802  -5.2893476E-01   1.3650162E-01
      3     -290.8968453120   8.0811717E-01   9.5271198E-02
      4     -288.9778208410   1.9190245E+00   8.3089715E-02
      5     -291.7369118688  -2.7590910E+00   4.3039564E-02
      6     -292.0484473224  -3.1153545E-01   2.5740671E-02
      7     -292.1389008481  -9.0453526E-02   1.8854857E-02
      8     -292.1771665052  -3.8265657E-02   1.3681291E-02
      9     -292.1803137534  -3.1472483E-03   9.8324357E-03
     10     -292.1854115905  -5.0978371E-03   4.6452519E-03
     11     -292.1872169959  -1.8054053E-03   3.9469184E-03
     12     -292.1876715897  -4.5459388E-04   2.6951697E-03
     13     -292.1885192167  -8.4762694E-04   1.3170329E-03
     14     -292.1887641336  -2.4491693E-04   7.7645051E-04
     15     -292.1888469305  -8.2796925E-05   4.0862521E-04
     16     -292.1888598349  -1.2904348E-05   2.3629241E-04
     17     -292.1888641246  -4.2897308E-06   1.3592203E-04
     18     -292.1888654103  -1.2856700E-06   4.9280925E-05
     19     -292.1888656776  -2.6734648E-07   1.5518499E-05
------------------------------------------------------------

electronic energy        -2.9434265592656E+02 Eh
total energy             -2.9218886567763E+02 Eh

 total:                                   1.747 sec
 - repulsion                              0.000 sec (  0%)
 - dispersion                             0.003 sec (  0%)
 - coulomb                                0.001 sec (  0%)
 - hamiltonian                            0.007 sec (  0%)
 - scc                                    1.736 sec ( 99%)

Found 2 fragments!
Fragment 1:  1-55
Fragment 2:  56-110

[Info] Fragment spin read from .UHFfrag
Calculation for fragment 1
 ------------------------------
   
charge of fragment :   0.
unpaired e- of fragment :  1
------------------------------------------------------------
  cycle        total energy    energy error   density error
------------------------------------------------------------
      1     -145.5481928647  -1.4662204E+02   2.5922810E-01
      2     -145.8808160231  -3.3262316E-01   1.3626011E-01
      3     -145.8415893435   3.9226680E-02   8.5045342E-02
      4     -146.0199475329  -1.7835819E-01   3.5010932E-02
      5     -146.0529063924  -3.2958860E-02   1.6425134E-02
      6     -146.0577437948  -4.8374024E-03   1.1089280E-02
      7     -146.0589273185  -1.1835237E-03   6.3991378E-03
      8     -146.0605644278  -1.6371093E-03   2.3636204E-03
      9     -146.0608939370  -3.2950922E-04   1.2059353E-03
     10     -146.0609549587  -6.1021690E-05   5.3421740E-04
     11     -146.0609696761  -1.4717355E-05   2.2779413E-04
     12     -146.0609715284  -1.8523557E-06   1.0243536E-04
     13     -146.0609718544  -3.2597842E-07   4.4509511E-05
     14     -146.0609718977  -4.3258751E-08   1.6251196E-05
------------------------------------------------------------

 total:                                   0.384 sec
Calculation for fragment 2
 ------------------------------
   
charge of fragment :   0.
unpaired e- of fragment :  1
------------------------------------------------------------
  cycle        total energy    energy error   density error
------------------------------------------------------------
      1     -145.5483925640  -1.4662134E+02   2.6032209E-01
      2     -145.8801026245  -3.3171006E-01   1.3672367E-01
      3     -145.8377860730   4.2316551E-02   8.5797982E-02
      4     -146.0180550255  -1.8026895E-01   3.5135344E-02
      5     -146.0504655845  -3.2410559E-02   1.7052713E-02
      6     -146.0552788334  -4.8132489E-03   1.2104329E-02
      7     -146.0561512683  -8.7243491E-04   8.9038569E-03
      8     -146.0594724600  -3.3211917E-03   3.5633065E-03
      9     -146.0603597073  -8.8724726E-04   1.2404345E-03
     10     -146.0603855556  -2.5848303E-05   4.8549824E-04
     11     -146.0603909462  -5.3906551E-06   2.4496494E-04
     12     -146.0603938080  -2.8617836E-06   1.1072983E-04
     13     -146.0603941081  -3.0003730E-07   5.4561187E-05
     14     -146.0603942013  -9.3282182E-08   1.7863149E-05
------------------------------------------------------------

 total:                                   0.293 sec
   
   ::::::::::::::::::::::::::::::::::::::::::::::
   ::     D I P R O      C O U P L I N G S     ::
   ::::::::::::::::::::::::::::::::::::::::::::::
   
energy threshhold for near-degenerate orbitals near HOMO and LUMO considered for DIPRO:  0.300 eV
no. of orbitals within energy window of frag 1         2
no. of orbitals within energy window of frag 2         2
   
  Fragment 1 SOMO   Fragment 2 SOMO 
--------------------------------------
E_mon(orb) frag1 frag2             -11.679   -11.539 eV
J(AB):               -0.006 eV
S(AB):             0.00027500 Eh
|J(AB,eff)|:            0.003 eV
   
  Fragment 1 SOMO   Fragment 2 LUMO 
--------------------------------------
E_mon(orb) frag1 frag2             -11.679   -11.243 eV
J(AB):               -0.000 eV
S(AB):             0.00001901 Eh
|J(AB,eff)|:            0.000 eV
   
  Fragment 1 LUMO   Fragment 2 SOMO 
--------------------------------------
E_mon(orb) frag1 frag2             -11.397   -11.539 eV
J(AB):               -0.003 eV
S(AB):             0.00012121 Eh
|J(AB,eff)|:            0.002 eV
   
  Fragment 1 LUMO   Fragment 2 LUMO 
--------------------------------------
E_mon(orb) frag1 frag2             -11.397   -11.243 eV
J(AB):                0.004 eV
S(AB):            -0.00011832 Eh
|J(AB,eff)|:            0.003 eV
   
..............................................................................
:  total |J(AB,eff)| for hole transport (occ. MOs) :               0.003 eV  :
:  total |J(AB,eff)| for charge transport (unocc. MOs) :           0.003 eV  :
:  total |J(AB,eff)| for charge transfer (CT) :                    0.002 eV  :
..............................................................................
  
 Please remember, DIPRO is not available for restart!
   
normal termination of dipro
----------------------------------------------------------
 * finished run on 2025/03/04 at 13:10:28.153     
----------------------------------------------------------
 dipro:
 * wall-time:     0 d,  0 h,  0 min,  2.437 sec
 *  cpu-time:     0 d,  0 h,  0 min,  8.670 sec
 * ratio c/w:     3.558 speedup
Reorganization energy (electron): 0.39359577632182013 eV
Reorganization energy (hole): 0.28564563375256125 eV
Electron Transfer integral J: 0.003 eV
Hole Transfer integral J: 0.003 eV
