Optimization of monomers started
      -----------------------------------------------------------      
     |                   =====================                   |     
     |                           x T B                           |     
     |                   =====================                   |     
     |                         S. Grimme                         |     
     |          Mulliken Center for Theoretical Chemistry        |     
     |                    University of Bonn                     |     
      -----------------------------------------------------------      

   * xtb version 6.7.1 (edcfbbe) compiled by 'runner@Mac-1732539442253.local' on 2024-11-25

   xtb is free software: you can redistribute it and/or modify it under
   the terms of the GNU Lesser General Public License as published by
   the Free Software Foundation, either version 3 of the License, or
   (at your option) any later version.
   
   xtb is distributed in the hope that it will be useful,
   but WITHOUT ANY WARRANTY; without even the implied warranty of
   MERCHANTABILITY or FITNESS FOR A PARTICULAR PURPOSE.  See the
   GNU Lesser General Public License for more details.
   
   Cite this work as:
   * C. Bannwarth, E. Caldeweyher, S. Ehlert, A. Hansen, P. Pracht,
     J. Seibert, S. Spicher, S. Grimme, WIREs Comput. Mol. Sci., 2020, 11,
     e01493. DOI: 10.1002/wcms.1493
   
   for GFN2-xTB:
   * C. Bannwarth, S. Ehlert and S. Grimme., J. Chem. Theory Comput., 2019,
     15, 1652-1671. DOI: 10.1021/acs.jctc.8b01176
   for GFN1-xTB:
   * S. Grimme, C. Bannwarth, P. Shushkov, J. Chem. Theory Comput., 2017,
     13, 1989-2009. DOI: 10.1021/acs.jctc.7b00118
   for GFN0-xTB:
   * P. Pracht, E. Caldeweyher, S. Ehlert, S. Grimme, ChemRxiv, 2019, preprint.
     DOI: 10.26434/chemrxiv.8326202.v1
   for GFN-FF:
   * S. Spicher and S. Grimme, Angew. Chem. Int. Ed., 2020, 59, 15665-15673.
     DOI: 10.1002/anie.202004239
   
   for ALPB and GBSA implicit solvation:
   * S. Ehlert, M. Stahn, S. Spicher, S. Grimme, J. Chem. Theory Comput.,
     2021, 17, 4250-4261. DOI: 10.1021/acs.jctc.1c00471
   
   for ddCOSMO and CPCM-X implicit solvation:
   * M. Stahn, S. Ehlert, S. Grimme, J. Phys. Chem. A,
     2023, XX, XXXX-XXXX. DOI: 10.1021/acs.jpca.3c04382
   
   for DFT-D4:
   * E. Caldeweyher, C. Bannwarth and S. Grimme, J. Chem. Phys., 2017,
     147, 034112. DOI: 10.1063/1.4993215
   * E. Caldeweyher, S. Ehlert, A. Hansen, H. Neugebauer, S. Spicher,
     C. Bannwarth and S. Grimme, J. Chem. Phys., 2019, 150, 154122.
     DOI: 10.1063/1.5090222
   * E. Caldeweyher, J.-M. Mewes, S. Ehlert and S. Grimme, Phys. Chem. Chem. Phys.
     2020, 22, 8499-8512. DOI: 10.1039/D0CP00502A
   
   for sTDA-xTB:
   * S. Grimme and C. Bannwarth, J. Chem. Phys., 2016, 145, 054103.
     DOI: 10.1063/1.4959605
   
   in the mass-spec context:
   * V. Asgeirsson, C. Bauer and S. Grimme, Chem. Sci., 2017, 8, 4879.
     DOI: 10.1039/c7sc00601b
   * J. Koopman and S. Grimme, ACS Omega 2019, 4, 12, 15120-15133.
     DOI: 10.1021/acsomega.9b02011
   
   for metadynamics refer to:
   * S. Grimme, J. Chem. Theory Comput., 2019, 155, 2847-2862
     DOI: 10.1021/acs.jctc.9b00143
   
   for SPH calculations refer to:
   * S. Spicher and S. Grimme, J. Chem. Theory Comput., 2021, 17, 1701-1714
     DOI: 10.1021/acs.jctc.0c01306
   
   for ONIOM refer to:
   * C. Plett, A. Katbashev, S. Ehlert, S. Grimme, M. Bursch,
     Phys. Chem. Chem. Phys., 2023, 25, 17860-17868. DOI: 10.1039/D3CP02178E
   
   for DIPRO refer to:
   * J. Kohn, N. Gildemeister, S. Grimme, D. Fazzi, A. Hansen,
     J. Chem. Phys., 2023, just accepted.
   
   for PTB refer to:
   * S. Grimme, M. Mueller, A. Hansen, J. Chem. Phys., 2023, 158, 124111.
     DOI: 10.1063/5.0137838
   
   with help from (in alphabetical order)
   P. Atkinson, C. Bannwarth, F. Bohle, G. Brandenburg, E. Caldeweyher
   M. Checinski, S. Dohm, S. Ehlert, S. Ehrlich, I. Gerasimov, C. Hölzer
   A. Katbashev, J. Kohn, J. Koopman, C. Lavigne, S. Lehtola, F. März, M. Müller,
   F. Musil, H. Neugebauer, J. Pisarek, C. Plett, P. Pracht, F. Pultar,
   J. Seibert, P. Shushkov, S. Spicher, M. Stahn, M. Steiner, T. Strunk,
   J. Stückrath, T. Rose, and J. Unsleber
   
 * started run on 2025/03/13 at 10:44:10.506     
   ID    Z sym.   atoms
    1    6 C      1-9, 11, 12, 14-21, 24-32, 34, 35, 37-44
    2    7 N      10, 13, 33, 36
    3    8 O      22, 23, 45, 46
    4    5 B      47
    5   16 S      48, 54, 60, 66, 72, 78
    6    9 F      49-53, 55-59, 61-65, 67-71, 73-77, 79-83
    7    1 H      84-95

           -------------------------------------------------
          |                Calculation Setup                |
           -------------------------------------------------

          program call               : xtb Base1SF5.mol --opt tight --cycles 500 --chrg 0 --uhf 1 gfn 2
          coordinate file            : Base1SF5.mol
          omp threads                :                     8


molecular fragmentation (1/2 indicates fragments):
111111111111111111111111111111111111111111111111111111111111111111111111
11111111111111111111211
# atoms in fragment 1/2:    94     1
 fragment masses (1/2) :     1360.67        1.01
CMA distance (Bohr)    :  12.422
constraining FC (au)   :  0.0500

           -------------------------------------------------
          |                 G F N 2 - x T B                 |
           -------------------------------------------------

        Reference                      10.1021/acs.jctc.8b01176
      * Hamiltonian:
        H0-scaling (s, p, d)           1.850000    2.230000    2.230000
        zeta-weighting                 0.500000
      * Dispersion:
        s8                             2.700000
        a1                             0.520000
        a2                             5.000000
        s9                             5.000000
      * Repulsion:
        kExp                           1.500000    1.000000
        rExp                           1.000000
      * Coulomb:
        alpha                          2.000000
        third order                    shell-resolved
        anisotropic                    true
        a3                             3.000000
        a5                             4.000000
        cn-shift                       1.200000
        cn-exp                         4.000000
        max-rad                        5.000000


          ...................................................
          :                      SETUP                      :
          :.................................................:
          :  # basis functions                 380          :
          :  # atomic orbitals                 374          :
          :  # shells                          184          :
          :  # electrons                       457          :
          :  max. iterations                   250          :
          :  Hamiltonian                  GFN2-xTB          :
          :  restarted?                      false          :
          :  GBSA solvation                  false          :
          :  PC potential                    false          :
          :  electronic temp.          300.0000000     K    :
          :  accuracy                    1.0000000          :
          :  -> integral cutoff          0.2500000E+02      :
          :  -> integral neglect         0.1000000E-07      :
          :  -> SCF convergence          0.1000000E-05 Eh   :
          :  -> wf. convergence          0.1000000E-03 e    :
          :  Broyden damping             0.4000000          :
          :  net charge                          0          :
          :  unpaired electrons                  1          :
          ...................................................

 iter      E             dE          RMSdq      gap      omega  full diag
   1   -279.3837105 -0.279384E+03  0.753E+00    0.04       0.0  T
   2   -279.2018695  0.181841E+00  0.451E+00    0.15       1.0  T
   3   -262.6518667  0.165500E+02  0.620E+00    0.15       1.0  T
   4   -262.1508577  0.501009E+00  0.577E+00    0.14       1.0  T
   5   -279.4289578 -0.172781E+02  0.229E+00    0.24       1.0  T
   6   -279.8175086 -0.388551E+00  0.136E+00    0.18       1.0  T
   7   -279.8416977 -0.241892E-01  0.108E+00    0.06       1.0  T
   8   -279.9167766 -0.750789E-01  0.737E-01    0.12       1.0  T
   9   -279.9650843 -0.483076E-01  0.522E-01    0.01       1.0  T
  10   -279.9341034  0.309808E-01  0.487E-01    0.03       1.0  T
  11   -279.9302458  0.385763E-02  0.609E-01    0.08       1.0  T
  12   -279.9149767  0.152692E-01  0.590E-01    0.11       1.0  T
  13   -279.9722785 -0.573018E-01  0.309E-01    0.04       1.0  T
  14   -279.9540932  0.181853E-01  0.338E-01    0.07       1.0  T
  15   -279.9556451 -0.155182E-02  0.314E-01    0.04       1.0  T
  16   -279.9845488 -0.289038E-01  0.688E-02    0.01       1.0  T
  17   -279.9848011 -0.252257E-03  0.626E-02    0.01       1.0  T
  18   -279.9847036  0.974831E-04  0.459E-02    0.00       1.0  T
  19   -279.9850862 -0.382599E-03  0.170E-02    0.01       1.0  T
  20   -279.9850976 -0.114385E-04  0.102E-02    0.01       1.0  T
  21   -279.9851059 -0.829103E-05  0.680E-03    0.01       1.5  T
  22   -279.9851148 -0.889859E-05  0.330E-03    0.01       3.1  T
  23   -279.9851098  0.499483E-05  0.494E-03    0.01       2.1  T
  24   -279.9851166 -0.671921E-05  0.776E-04    0.01      13.2  T
  25   -279.9851166 -0.266990E-07  0.392E-04    0.01      26.2  T
  26   -279.9851166 -0.176385E-07  0.196E-04    0.01      52.3  T

   *** convergence criteria satisfied after 26 iterations ***

         #    Occupation            Energy/Eh            Energy/eV
      -------------------------------------------------------------
         1        2.0000           -0.9059514             -24.6522
       ...           ...                  ...                  ...
       223        2.0000           -0.4723000             -12.8519
       224        2.0000           -0.4668797             -12.7044
       225        2.0000           -0.4613420             -12.5538
       226        1.9981           -0.4561883             -12.4135
       227        1.9765           -0.4537946             -12.3484
       228        1.8886           -0.4522385             -12.3060
       229        0.6187           -0.4477820             -12.1848 (HOMO)
       230        0.5181           -0.4474725             -12.1763 (LUMO)
       231                         -0.3900825             -10.6147
       232                         -0.3889302             -10.5833
       233                         -0.3845813             -10.4650
       234                         -0.3830192             -10.4225
       ...                                ...                  ...
       374                          0.8228514              22.3909
      -------------------------------------------------------------
                  HL-Gap            0.0003095 Eh            0.0084 eV
             Fermi-level           -0.4488999 Eh          -12.2152 eV

 SCC (total)                   0 d,  0 h,  0 min,  1.650 sec
 SCC setup                      ...        0 min,  0.001 sec (  0.064%)
 Dispersion                     ...        0 min,  0.001 sec (  0.056%)
 classical contributions        ...        0 min,  0.000 sec (  0.012%)
 integral evaluation            ...        0 min,  0.008 sec (  0.457%)
 iterations                     ...        0 min,  1.592 sec ( 96.466%)
 molecular gradient             ...        0 min,  0.033 sec (  1.971%)
 printout                       ...        0 min,  0.016 sec (  0.973%)

         :::::::::::::::::::::::::::::::::::::::::::::::::::::
         ::                     SUMMARY                     ::
         :::::::::::::::::::::::::::::::::::::::::::::::::::::
         :: total energy            -278.291584403205 Eh    ::
         :: gradient norm              0.490570018564 Eh/a0 ::
         :: HOMO-LUMO gap              0.008422268376 eV    ::
         ::.................................................::
         :: SCC energy              -279.983971367885 Eh    ::
         :: -> isotropic ES            0.155481412485 Eh    ::
         :: -> anisotropic ES         -0.101540198747 Eh    ::
         :: -> anisotropic XC          0.012177451495 Eh    ::
         :: -> dispersion             -0.162701636796 Eh    ::
         :: repulsion energy           1.692386964680 Eh    ::
         :: add. restraining           0.000000000000 Eh    ::
         :: total charge               0.000000000000 e     ::
         :::::::::::::::::::::::::::::::::::::::::::::::::::::

      ----------------------------------------------------------- 
     |                   =====================                   |
     |                        A N C O P T                        |
     |                   =====================                   |
     |               Approximate Normal Coordinate               |
     |                Rational Function Optimizer                |
      ----------------------------------------------------------- 
      ----------------------------------------------------------- 
     |                   =====================                   |
     |                        A N C O P T                        |
     |                   =====================                   |
     |               Approximate Normal Coordinate               |
     |                Rational Function Optimizer                |
      ----------------------------------------------------------- 

          ...................................................
          :                      SETUP                      :
          :.................................................:
          :   optimization level             tight          :
          :   max. optcycles                   500          :
          :   ANC micro-cycles                  20          :
          :   degrees of freedom               279          :
          :.................................................:
          :   RF solver                   davidson          :
          :   write xtbopt.log                true          :
          :   linear?                        false          :
          :   energy convergence         0.1000000E-05 Eh   :
          :   grad. convergence          0.8000000E-03 Eh/α :
          :   maxmium RF displ.          1.0000000          :
          :   Hlow (freq-cutoff)         0.1000000E-01      :
          :   Hmax (freq-cutoff)         5.0000000          :
          :   S6 in model hess.         20.0000000          :
          ...................................................

generating ANC from exact Hessian ...
Using Lindh-Hessian (1995)
 Shifting diagonal of input Hessian by    1.1024336905352119E-002
 Lowest  eigenvalues of input Hessian
    0.010000    0.010682    0.000000    0.000000    0.000000    0.000000
    0.000000    0.000000    0.011081    0.011121    0.011250    0.011500
    0.011594    0.011737    0.011820    0.011943    0.012226    0.012580
 Highest eigenvalues
    1.997650    2.025387    2.053347    2.079145    2.136791    2.181026


........................................................................
.............................. CYCLE    1 ..............................
........................................................................

 iter      E             dE          RMSdq      gap      omega  full diag
   1   -279.9851166 -0.279985E+03  0.791E-05    0.01       0.0  T
   2   -279.9851165  0.645586E-07  0.440E-04    0.01      23.3  T
   3   -279.9851166 -0.632060E-07  0.120E-04    0.01      85.4  T
     SCC iter.                  ...        0 min,  0.187 sec
     gradient                   ...        0 min,  0.032 sec
 * total energy  :  -278.2915844 Eh     change       -0.5911943E-08 Eh
   gradient norm :     0.4905708 Eh/α   predicted     0.0000000E+00 (-100.00%)
   displ. norm   :     0.6175961 α      lambda       -0.2450933E+00
   maximum displ.:     0.1519695 α      in ANC's #149, #144, #182, ...

........................................................................
.............................. CYCLE    2 ..............................
........................................................................

 iter      E             dE          RMSdq      gap      omega  full diag
   1   -280.1902809 -0.280190E+03  0.395E-01    0.01       0.0  T
   2   -279.8457760  0.344505E+00  0.105E+00    0.19       1.0  T
   3   -279.8719802 -0.262042E-01  0.102E+00    0.19       1.0  T
   4   -280.1820336 -0.310053E+00  0.327E-01    0.03       1.0  T
   5   -280.1885174 -0.648371E-02  0.192E-01    0.02       1.0  T
   6   -280.1904304 -0.191302E-02  0.185E-01    0.01       1.0  T
   7   -280.1922766 -0.184621E-02  0.141E-01    0.01       1.0  T
   8   -280.1915168  0.759831E-03  0.140E-01    0.02       1.0  T
   9   -280.1917664 -0.249683E-03  0.124E-01    0.02       1.0  T
  10   -280.1927770 -0.101051E-02  0.826E-02    0.01       1.0  T
  11   -280.1933565 -0.579510E-03  0.690E-02    0.00       1.0  T
  12   -280.1933945 -0.380657E-04  0.661E-02    0.00       1.0  T
  13   -280.1934796 -0.850585E-04  0.558E-02    0.00       1.0  T
  14   -280.1935947 -0.115133E-03  0.315E-02    0.00       1.0  T
  15   -280.1937044 -0.109685E-03  0.124E-02    0.00       1.0  T
  16   -280.1937089 -0.444339E-05  0.625E-03    0.00       1.6  T
  17   -280.1937136 -0.477401E-05  0.462E-03    0.00       2.2  T
  18   -280.1937164 -0.277340E-05  0.175E-03    0.00       5.9  T
  19   -280.1937168 -0.383446E-06  0.410E-04    0.00      25.0  T
  20   -280.1937168 -0.338014E-07  0.333E-04    0.00      30.8  T
     SCC iter.                  ...        0 min,  1.349 sec
     gradient                   ...        0 min,  0.032 sec
 * total energy  :  -278.4964030 Eh     change       -0.2048186E+00 Eh
   gradient norm :     0.3102646 Eh/α   predicted    -0.1693374E+00 ( -17.32%)
   displ. norm   :     0.7262282 α      lambda       -0.1961075E+00
   maximum displ.:     0.1736095 α      in ANC's #149, #100, #144, ...

........................................................................
.............................. CYCLE    3 ..............................
........................................................................

 iter      E             dE          RMSdq      gap      omega  full diag
   1   -280.3980135 -0.280398E+03  0.490E-01    0.03       0.0  T
   2   -280.0001060  0.397908E+00  0.117E+00    0.21       1.0  T
   3   -280.1319183 -0.131812E+00  0.953E-01    0.25       1.0  T
   4   -280.3836180 -0.251700E+00  0.419E-01    0.06       1.0  T
   5   -280.3948050 -0.111870E-01  0.243E-01    0.04       1.0  T
   6   -280.4024779 -0.767294E-02  0.190E-01    0.00       1.0  T
   7   -280.4040178 -0.153984E-02  0.150E-01    0.01       1.0  T
   8   -280.4036348  0.382945E-03  0.144E-01    0.02       1.0  T
   9   -280.4046628 -0.102792E-02  0.119E-01    0.01       1.0  T
  10   -280.4056233 -0.960557E-03  0.677E-02    0.00       1.0  T
  11   -280.4059580 -0.334731E-03  0.337E-02    0.00       1.0  T
  12   -280.4060016 -0.435786E-04  0.200E-02    0.00       1.0  T
  13   -280.4059625  0.391635E-04  0.185E-02    0.00       1.0  T
  14   -280.4060355 -0.730844E-04  0.304E-03    0.00       3.4  T
  15   -280.4060355  0.880094E-07  0.237E-03    0.00       4.3  T
  16   -280.4060356 -0.121416E-06  0.204E-03    0.00       5.0  T
  17   -280.4060363 -0.672694E-06  0.818E-04    0.00      12.5  T
  18   -280.4060364 -0.163549E-06  0.358E-04    0.00      28.6  T
     SCC iter.                  ...        0 min,  1.537 sec
     gradient                   ...        0 min,  0.031 sec
 * total energy  :  -278.6322764 Eh     change       -0.1358734E+00 Eh
   gradient norm :     0.1252343 Eh/α   predicted    -0.1497681E+00 (  10.23%)
   displ. norm   :     0.6447203 α      lambda       -0.6491916E-01
   maximum displ.:     0.1771293 α      in ANC's #63, #56, #45, ...

........................................................................
.............................. CYCLE    4 ..............................
........................................................................

 iter      E             dE          RMSdq      gap      omega  full diag
   1   -280.5160372 -0.280516E+03  0.366E-01    0.01       0.0  T
   2   -280.4931430  0.228942E-01  0.351E-01    0.07       1.0  T
   3   -280.1170813  0.376062E+00  0.115E+00    0.19       1.0  T
   4   -280.4829360 -0.365855E+00  0.425E-01    0.11       1.0  T
   5   -280.4975845 -0.146486E-01  0.258E-01    0.06       1.0  T
   6   -280.5144584 -0.168739E-01  0.110E-01    0.02       1.0  T
   7   -280.5166349 -0.217644E-02  0.551E-02    0.01       1.0  T
   8   -280.5168622 -0.227351E-03  0.330E-02    0.01       1.0  T
   9   -280.5168508  0.114192E-04  0.295E-02    0.01       1.0  T
  10   -280.5168776 -0.268042E-04  0.194E-02    0.01       1.0  T
  11   -280.5168598  0.177593E-04  0.191E-02    0.01       1.0  T
  12   -280.5168165  0.433115E-04  0.205E-02    0.01       1.0  T
  13   -280.5169187 -0.102139E-03  0.465E-03    0.01       2.2  T
  14   -280.5168975  0.211253E-04  0.111E-02    0.01       1.0  T
  15   -280.5169107 -0.131574E-04  0.753E-03    0.01       1.4  T
  16   -280.5169209 -0.101529E-04  0.203E-03    0.01       5.0  T
  17   -280.5169212 -0.348939E-06  0.147E-03    0.01       7.0  T
  18   -280.5169214 -0.165955E-06  0.660E-04    0.01      15.5  T
  19   -280.5169215 -0.994669E-07  0.957E-05    0.01     107.2  T
     SCC iter.                  ...        0 min,  1.198 sec
     gradient                   ...        0 min,  0.032 sec
 * total energy  :  -278.6803474 Eh     change       -0.4807097E-01 Eh
   gradient norm :     0.0798508 Eh/α   predicted    -0.4595188E-01 (  -4.41%)
   displ. norm   :     0.6185796 α      lambda       -0.3444716E-01
   maximum displ.:     0.1717071 α      in ANC's #63, #56, #52, ...

........................................................................
.............................. CYCLE    5 ..............................
........................................................................

 iter      E             dE          RMSdq      gap      omega  full diag
   1   -280.5767361 -0.280577E+03  0.365E-01    0.04       0.0  T
   2   -280.1875941  0.389142E+00  0.117E+00    0.21       1.0  T
   3   -280.5402095 -0.352615E+00  0.413E-01    0.12       1.0  T
   4   -280.5369087  0.330081E-02  0.479E-01    0.16       1.0  T
   5   -280.5718510 -0.349424E-01  0.224E-01    0.05       1.0  T
   6   -280.5812747 -0.942366E-02  0.946E-02    0.01       1.0  T
   7   -280.5814810 -0.206307E-03  0.815E-02    0.01       1.0  T
   8   -280.5817732 -0.292233E-03  0.560E-02    0.01       1.0  T
   9   -280.5816447  0.128554E-03  0.642E-02    0.01       1.0  T
  10   -280.5818839 -0.239248E-03  0.485E-02    0.01       1.0  T
  11   -280.5819094 -0.255019E-04  0.401E-02    0.01       1.0  T
  12   -280.5818694  0.400550E-04  0.341E-02    0.01       1.0  T
  13   -280.5821354 -0.266082E-03  0.103E-02    0.01       1.0  T
  14   -280.5821349  0.579200E-06  0.821E-03    0.01       1.2  T
  15   -280.5821457 -0.108038E-04  0.210E-03    0.01       4.9  T
  16   -280.5821467 -0.101986E-05  0.113E-03    0.01       9.1  T
  17   -280.5821439  0.281207E-05  0.401E-03    0.01       2.6  T
  18   -280.5821461 -0.227598E-05  0.180E-03    0.01       5.7  T
  19   -280.5821468 -0.624549E-06  0.129E-04    0.01      79.3  T
  20   -280.5821468  0.522419E-08  0.166E-04    0.01      61.7  T
     SCC iter.                  ...        0 min,  1.554 sec
     gradient                   ...        0 min,  0.032 sec
 * total energy  :  -278.7049650 Eh     change       -0.2461763E-01 Eh
   gradient norm :     0.0568379 Eh/α   predicted    -0.2381407E-01 (  -3.26%)
   displ. norm   :     0.6470416 α      lambda       -0.2015468E-01
   maximum displ.:     0.2235954 α      in ANC's #39, #63, #45, ...

........................................................................
.............................. CYCLE    6 ..............................
........................................................................

 iter      E             dE          RMSdq      gap      omega  full diag
   1   -280.6015010 -0.280602E+03  0.365E-01    0.01       0.0  T
   2   -280.5670070  0.344939E-01  0.410E-01    0.10       1.0  T
   3   -280.2243110  0.342696E+00  0.112E+00    0.26       1.0  T
   4   -280.5879263 -0.363615E+00  0.308E-01    0.07       1.0  T
   5   -280.6013597 -0.134334E-01  0.108E-01    0.02       1.0  T
   6   -280.6015686 -0.208887E-03  0.724E-02    0.01       1.0  T
   7   -280.6020955 -0.526836E-03  0.554E-02    0.01       1.0  T
   8   -280.6023263 -0.230810E-03  0.470E-02    0.01       1.0  T
   9   -280.6021094  0.216874E-03  0.521E-02    0.02       1.0  T
  10   -280.6022405 -0.131088E-03  0.404E-02    0.02       1.0  T
  11   -280.6023935 -0.153061E-03  0.208E-02    0.01       1.0  T
  12   -280.6024321 -0.385566E-04  0.976E-03    0.01       1.1  T
  13   -280.6024560 -0.239136E-04  0.630E-03    0.01       1.6  T
  14   -280.6024583 -0.229455E-05  0.291E-03    0.01       3.5  T
  15   -280.6024598 -0.146750E-05  0.293E-03    0.01       3.5  T
  16   -280.6024605 -0.747295E-06  0.768E-04    0.01      13.4  T
  17   -280.6024604  0.153410E-06  0.157E-03    0.01       6.5  T
  18   -280.6024606 -0.211953E-06  0.893E-04    0.01      11.5  T
     SCC iter.                  ...        0 min,  1.354 sec
     gradient                   ...        0 min,  0.041 sec
 * total energy  :  -278.7153116 Eh     change       -0.1034658E-01 Eh
   gradient norm :     0.0743614 Eh/α   predicted    -0.1429635E-01 (  38.17%)
   displ. norm   :     0.5297907 α      lambda       -0.1478571E-01
   maximum displ.:     0.1264203 α      in ANC's #15, #25, #45, ...

........................................................................
.............................. CYCLE    7 ..............................
........................................................................

 iter      E             dE          RMSdq      gap      omega  full diag
   1   -280.6197441 -0.280620E+03  0.241E-01    0.02       0.0  T
   2   -280.4858248  0.133919E+00  0.688E-01    0.25       1.0  T
   3   -280.5801026 -0.942778E-01  0.401E-01    0.15       1.0  T
   4   -280.6197966 -0.396940E-01  0.122E-01    0.01       1.0  T
   5   -280.6209619 -0.116534E-02  0.629E-02    0.02       1.0  T
   6   -280.6206856  0.276327E-03  0.566E-02    0.02       1.0  T
   7   -280.6211069 -0.421250E-03  0.419E-02    0.01       1.0  T
   8   -280.6211267 -0.198636E-04  0.365E-02    0.01       1.0  T
   9   -280.6211448 -0.181033E-04  0.233E-02    0.01       1.0  T
  10   -280.6212321 -0.873171E-04  0.631E-03    0.01       1.6  T
  11   -280.6212311  0.108666E-05  0.545E-03    0.01       1.9  T
  12   -280.6212326 -0.153966E-05  0.434E-03    0.01       2.4  T
  13   -280.6212361 -0.351924E-05  0.219E-03    0.01       4.7  T
  14   -280.6212364 -0.258614E-06  0.140E-03    0.01       7.3  T
  15   -280.6212369 -0.522014E-06  0.553E-04    0.01      18.6  T
  16   -280.6212369  0.414504E-07  0.579E-04    0.01      17.7  T
     SCC iter.                  ...        0 min,  1.097 sec
     gradient                   ...        0 min,  0.033 sec
 * total energy  :  -278.7236943 Eh     change       -0.8382673E-02 Eh
   gradient norm :     0.0363683 Eh/α   predicted    -0.9467871E-02 (  12.95%)
   displ. norm   :     0.4357704 α      lambda       -0.5229664E-02
   maximum displ.:     0.1584568 α      in ANC's #8, #15, #16, ...

........................................................................
.............................. CYCLE    8 ..............................
........................................................................

 iter      E             dE          RMSdq      gap      omega  full diag
   1   -280.6303913 -0.280630E+03  0.140E-01    0.01       0.0  T
   2   -280.6113015  0.190898E-01  0.278E-01    0.09       1.0  T
   3   -280.5955904  0.157111E-01  0.370E-01    0.12       1.0  T
   4   -280.6298476 -0.342572E-01  0.713E-02    0.01       1.0  T
   5   -280.6302523 -0.404740E-03  0.425E-02    0.02       1.0  T
   6   -280.6304802 -0.227820E-03  0.209E-02    0.01       1.0  T
   7   -280.6305616 -0.813925E-04  0.854E-03    0.01       1.2  T
   8   -280.6305635 -0.190824E-05  0.701E-03    0.01       1.5  T
   9   -280.6305665 -0.303215E-05  0.410E-03    0.01       2.5  T
  10   -280.6305693 -0.283613E-05  0.111E-03    0.01       9.3  T
  11   -280.6305695 -0.172226E-06  0.522E-04    0.01      19.6  T
  12   -280.6305695 -0.789373E-08  0.279E-04    0.01      36.7  T
     SCC iter.                  ...        0 min,  0.774 sec
     gradient                   ...        0 min,  0.032 sec
 * total energy  :  -278.7277279 Eh     change       -0.4033634E-02 Eh
   gradient norm :     0.0217737 Eh/α   predicted    -0.3111399E-02 ( -22.86%)
   displ. norm   :     0.5823800 α      lambda       -0.4406273E-02
   maximum displ.:     0.2488295 α      in ANC's #8, #15, #16, ...

........................................................................
.............................. CYCLE    9 ..............................
........................................................................

 iter      E             dE          RMSdq      gap      omega  full diag
   1   -280.6404169 -0.280640E+03  0.145E-01    0.02       0.0  T
   2   -280.6397100  0.706884E-03  0.987E-02    0.02       1.0  T
   3   -280.5400827  0.996274E-01  0.590E-01    0.20       1.0  T
   4   -280.6347300 -0.946473E-01  0.162E-01    0.04       1.0  T
   5   -280.6401682 -0.543828E-02  0.480E-02    0.02       1.0  T
   6   -280.6404919 -0.323648E-03  0.151E-02    0.02       1.0  T
   7   -280.6404907  0.119210E-05  0.124E-02    0.02       1.0  T
   8   -280.6404998 -0.908215E-05  0.909E-03    0.02       1.1  T
   9   -280.6404882  0.115945E-04  0.905E-03    0.02       1.1  T
  10   -280.6405051 -0.169118E-04  0.192E-03    0.02       5.3  T
  11   -280.6405058 -0.667848E-06  0.692E-04    0.02      14.8  T
  12   -280.6405058 -0.361567E-07  0.507E-04    0.02      20.3  T
     SCC iter.                  ...        0 min,  0.754 sec
     gradient                   ...        0 min,  0.032 sec
 * total energy  :  -278.7302284 Eh     change       -0.2500476E-02 Eh
   gradient norm :     0.0271576 Eh/α   predicted    -0.2950364E-02 (  17.99%)
   displ. norm   :     0.6113040 α      lambda       -0.4480522E-02
   maximum displ.:     0.2686403 α      in ANC's #15, #8, #16, ...

........................................................................
.............................. CYCLE   10 ..............................
........................................................................

 iter      E             dE          RMSdq      gap      omega  full diag
   1   -280.6478451 -0.280648E+03  0.205E-01    0.03       0.0  T
   2   -280.3127484  0.335097E+00  0.104E+00    0.26       1.0  T
   3   -280.6473422 -0.334594E+00  0.145E-01    0.03       1.0  T
   4   -280.6463029  0.103930E-02  0.141E-01    0.04       1.0  T
   5   -280.6501857 -0.388286E-02  0.688E-02    0.02       1.0  T
   6   -280.6503598 -0.174102E-03  0.488E-02    0.02       1.0  T
   7   -280.6503095  0.503184E-04  0.473E-02    0.02       1.0  T
   8   -280.6506370 -0.327446E-03  0.402E-02    0.02       1.0  T
   9   -280.6506769 -0.399210E-04  0.264E-02    0.02       1.0  T
  10   -280.6507336 -0.567480E-04  0.652E-03    0.02       1.6  T
  11   -280.6507356 -0.197919E-05  0.801E-03    0.02       1.3  T
  12   -280.6507395 -0.384161E-05  0.242E-03    0.02       4.2  T
  13   -280.6507398 -0.306166E-06  0.510E-04    0.02      20.1  T
  14   -280.6507398  0.116921E-07  0.725E-04    0.02      14.2  T
     SCC iter.                  ...        0 min,  0.777 sec
     gradient                   ...        0 min,  0.032 sec
 * total energy  :  -278.7303670 Eh     change       -0.1386306E-03 Eh
   gradient norm :     0.0528092 Eh/α   predicted    -0.3077430E-02 (2119.88%)
   displ. norm   :     0.2239857 α      lambda       -0.4397511E-02
   maximum displ.:     0.0877109 α      in ANC's #8, #16, #15, ...

........................................................................
.............................. CYCLE   11 ..............................
........................................................................

 iter      E             dE          RMSdq      gap      omega  full diag
   1   -280.6451392 -0.280645E+03  0.994E-02    0.02       0.0  T
   2   -280.5726734  0.724658E-01  0.508E-01    0.19       1.0  T
   3   -280.6389842 -0.663108E-01  0.168E-01    0.05       1.0  T
   4   -280.6455433 -0.655919E-02  0.496E-02    0.02       1.0  T
   5   -280.6457215 -0.178172E-03  0.293E-02    0.02       1.0  T
   6   -280.6457299 -0.837036E-05  0.263E-02    0.02       1.0  T
   7   -280.6457380 -0.812218E-05  0.235E-02    0.02       1.0  T
   8   -280.6457684 -0.304119E-04  0.169E-02    0.02       1.0  T
   9   -280.6458180 -0.495535E-04  0.518E-03    0.02       2.0  T
  10   -280.6458237 -0.573600E-05  0.115E-03    0.02       8.9  T
  11   -280.6458233  0.459425E-06  0.152E-03    0.02       6.8  T
  12   -280.6458238 -0.584815E-06  0.460E-04    0.02      22.3  T
  13   -280.6458239 -0.175043E-07  0.236E-04    0.02      43.5  T
     SCC iter.                  ...        0 min,  0.794 sec
     gradient                   ...        0 min,  0.030 sec
 * total energy  :  -278.7326703 Eh     change       -0.2303333E-02 Eh
   gradient norm :     0.0252998 Eh/α   predicted    -0.2309069E-02 (   0.25%)
   displ. norm   :     0.3425322 α      lambda       -0.2943744E-02
   maximum displ.:     0.1168100 α      in ANC's #22, #8, #16, ...

........................................................................
.............................. CYCLE   12 ..............................
........................................................................

 iter      E             dE          RMSdq      gap      omega  full diag
   1   -280.6514682 -0.280651E+03  0.139E-01    0.02       0.0  T
   2   -280.5987904  0.526779E-01  0.445E-01    0.16       1.0  T
   3   -280.6364837 -0.376933E-01  0.253E-01    0.08       1.0  T
   4   -280.6505047 -0.140210E-01  0.102E-01    0.02       1.0  T
   5   -280.6517960 -0.129126E-02  0.364E-02    0.02       1.0  T
   6   -280.6518483 -0.523576E-04  0.292E-02    0.02       1.0  T
   7   -280.6519189 -0.705917E-04  0.219E-02    0.02       1.0  T
   8   -280.6519405 -0.215948E-04  0.182E-02    0.02       1.0  T
   9   -280.6519853 -0.447725E-04  0.813E-03    0.02       1.3  T
  10   -280.6519988 -0.135283E-04  0.121E-03    0.02       8.5  T
  11   -280.6519986  0.228211E-06  0.140E-03    0.02       7.3  T
  12   -280.6519990 -0.368670E-06  0.557E-04    0.02      18.4  T
  13   -280.6519990 -0.673027E-07  0.244E-04    0.02      42.1  T
     SCC iter.                  ...        0 min,  0.862 sec
     gradient                   ...        0 min,  0.033 sec
 * total energy  :  -278.7330251 Eh     change       -0.3547454E-03 Eh
   gradient norm :     0.0307096 Eh/α   predicted    -0.1644571E-02 ( 363.59%)
   displ. norm   :     0.3213642 α      lambda       -0.2452356E-02
   maximum displ.:     0.1524469 α      in ANC's #15, #16, #8, ...

........................................................................
.............................. CYCLE   13 ..............................
........................................................................

 iter      E             dE          RMSdq      gap      omega  full diag
   1   -280.6515189 -0.280652E+03  0.842E-02    0.02       0.0  T
   2   -280.6324460  0.190728E-01  0.273E-01    0.09       1.0  T
   3   -280.6464629 -0.140169E-01  0.148E-01    0.04       1.0  T
   4   -280.6511015 -0.463860E-02  0.626E-02    0.02       1.0  T
   5   -280.6516583 -0.556817E-03  0.114E-02    0.02       1.0  T
   6   -280.6516534  0.491759E-05  0.103E-02    0.02       1.0  T
   7   -280.6516659 -0.125042E-04  0.698E-03    0.02       1.5  T
   8   -280.6516746 -0.868635E-05  0.222E-03    0.02       4.6  T
   9   -280.6516749 -0.354810E-06  0.123E-03    0.02       8.3  T
  10   -280.6516752 -0.283386E-06  0.517E-04    0.02      19.8  T
  11   -280.6516752 -0.396563E-07  0.190E-04    0.02      54.0  T
     SCC iter.                  ...        0 min,  0.814 sec
     gradient                   ...        0 min,  0.032 sec
 * total energy  :  -278.7346598 Eh     change       -0.1634751E-02 Eh
   gradient norm :     0.0144329 Eh/α   predicted    -0.1352815E-02 ( -17.25%)
   displ. norm   :     0.4973626 α      lambda       -0.1733678E-02
   maximum displ.:     0.2259465 α      in ANC's #15, #8, #16, ...

........................................................................
.............................. CYCLE   14 ..............................
........................................................................

 iter      E             dE          RMSdq      gap      omega  full diag
   1   -280.6529400 -0.280653E+03  0.952E-02    0.02       0.0  T
   2   -280.6411810  0.117591E-01  0.219E-01    0.07       1.0  T
   3   -280.6376625  0.351843E-02  0.248E-01    0.07       1.0  T
   4   -280.6524749 -0.148124E-01  0.556E-02    0.02       1.0  T
   5   -280.6529978 -0.522884E-03  0.142E-02    0.02       1.0  T
   6   -280.6530186 -0.208331E-04  0.880E-03    0.02       1.2  T
   7   -280.6530283 -0.961634E-05  0.529E-03    0.02       1.9  T
   8   -280.6530309 -0.267279E-05  0.275E-03    0.02       3.7  T
   9   -280.6530319 -0.967415E-06  0.104E-03    0.02       9.8  T
  10   -280.6530320 -0.110955E-06  0.365E-04    0.02      28.1  T
  11   -280.6530320 -0.389878E-08  0.234E-04    0.02      43.9  T
     SCC iter.                  ...        0 min,  0.741 sec
     gradient                   ...        0 min,  0.033 sec
 * total energy  :  -278.7355327 Eh     change       -0.8728371E-03 Eh
   gradient norm :     0.0187949 Eh/α   predicted    -0.1081271E-02 (  23.88%)
   displ. norm   :     0.4770585 α      lambda       -0.1288322E-02
   maximum displ.:     0.2026443 α      in ANC's #8, #16, #15, ...

........................................................................
.............................. CYCLE   15 ..............................
........................................................................

 iter      E             dE          RMSdq      gap      omega  full diag
   1   -280.6489591 -0.280649E+03  0.714E-02    0.02       0.0  T
   2   -280.6467710  0.218813E-02  0.100E-01    0.03       1.0  T
   3   -280.6309130  0.158579E-01  0.266E-01    0.08       1.0  T
   4   -280.6489212 -0.180082E-01  0.223E-02    0.02       1.0  T
   5   -280.6489523 -0.310645E-04  0.128E-02    0.02       1.0  T
   6   -280.6489824 -0.301172E-04  0.630E-03    0.02       1.6  T
   7   -280.6489856 -0.324376E-05  0.326E-03    0.02       3.1  T
   8   -280.6489874 -0.175972E-05  0.148E-03    0.02       6.9  T
   9   -280.6489875 -0.955100E-07  0.127E-03    0.02       8.1  T
  10   -280.6489878 -0.290339E-06  0.344E-04    0.02      29.8  T
  11   -280.6489878 -0.126606E-07  0.158E-04    0.02      65.1  T
     SCC iter.                  ...        0 min,  0.793 sec
     gradient                   ...        0 min,  0.032 sec
 * total energy  :  -278.7363470 Eh     change       -0.8142964E-03 Eh
   gradient norm :     0.0125479 Eh/α   predicted    -0.7907643E-03 (  -2.89%)
   displ. norm   :     0.4640090 α      lambda       -0.1050034E-02
   maximum displ.:     0.1900500 α      in ANC's #16, #15, #8, ...

........................................................................
.............................. CYCLE   16 ..............................
........................................................................

 iter      E             dE          RMSdq      gap      omega  full diag
   1   -280.6551058 -0.280655E+03  0.842E-02    0.02       0.0  T
   2   -280.6432910  0.118148E-01  0.218E-01    0.06       1.0  T
   3   -280.6458824 -0.259141E-02  0.195E-01    0.06       1.0  T
   4   -280.6550733 -0.919084E-02  0.264E-02    0.02       1.0  T
   5   -280.6551706 -0.973077E-04  0.121E-02    0.02       1.0  T
   6   -280.6551806 -0.100559E-04  0.726E-03    0.02       1.4  T
   7   -280.6551860 -0.540484E-05  0.415E-03    0.02       2.5  T
   8   -280.6551890 -0.290908E-05  0.206E-03    0.02       5.0  T
   9   -280.6551894 -0.464908E-06  0.108E-03    0.02       9.5  T
  10   -280.6551896 -0.158168E-06  0.417E-04    0.02      24.6  T
  11   -280.6551896 -0.332548E-07  0.155E-04    0.02      66.1  T
     SCC iter.                  ...        0 min,  0.790 sec
     gradient                   ...        0 min,  0.032 sec
 * total energy  :  -278.7369370 Eh     change       -0.5900115E-03 Eh
   gradient norm :     0.0134382 Eh/α   predicted    -0.6380578E-03 (   8.14%)
   displ. norm   :     0.3755519 α      lambda       -0.6819363E-03
   maximum displ.:     0.1501610 α      in ANC's #16, #15, #7, ...

........................................................................
.............................. CYCLE   17 ..............................
........................................................................

 iter      E             dE          RMSdq      gap      omega  full diag
   1   -280.6552793 -0.280655E+03  0.528E-02    0.02       0.0  T
   2   -280.6543638  0.915553E-03  0.667E-02    0.03       1.0  T
   3   -280.6420204  0.123433E-01  0.228E-01    0.07       1.0  T
   4   -280.6549775 -0.129571E-01  0.371E-02    0.02       1.0  T
   5   -280.6552789 -0.301389E-03  0.936E-03    0.02       1.1  T
   6   -280.6552640  0.148878E-04  0.110E-02    0.02       1.0  T
   7   -280.6552915 -0.274654E-04  0.374E-03    0.02       2.7  T
   8   -280.6552937 -0.218754E-05  0.135E-03    0.02       7.6  T
   9   -280.6552938 -0.151331E-06  0.917E-04    0.02      11.2  T
  10   -280.6552940 -0.177561E-06  0.266E-04    0.02      38.5  T
     SCC iter.                  ...        0 min,  0.597 sec
     gradient                   ...        0 min,  0.032 sec
 * total energy  :  -278.7374647 Eh     change       -0.5277241E-03 Eh
   gradient norm :     0.0096962 Eh/α   predicted    -0.3890629E-03 ( -26.28%)
   displ. norm   :     0.4534226 α      lambda       -0.7818323E-03
   maximum displ.:     0.1931149 α      in ANC's #7, #16, #26, ...

........................................................................
.............................. CYCLE   18 ..............................
........................................................................

 iter      E             dE          RMSdq      gap      omega  full diag
   1   -280.6558822 -0.280656E+03  0.648E-02    0.02       0.0  T
   2   -280.6557724  0.109851E-03  0.423E-02    0.02       1.0  T
   3   -280.6314745  0.242979E-01  0.304E-01    0.11       1.0  T
   4   -280.6558491 -0.243746E-01  0.212E-02    0.02       1.0  T
   5   -280.6558775 -0.284272E-04  0.125E-02    0.02       1.0  T
   6   -280.6558955 -0.179518E-04  0.665E-03    0.02       1.5  T
   7   -280.6559021 -0.665940E-05  0.248E-03    0.02       4.1  T
   8   -280.6559026 -0.528462E-06  0.150E-03    0.02       6.8  T
   9   -280.6559029 -0.219245E-06  0.775E-04    0.02      13.2  T
  10   -280.6559029 -0.667947E-07  0.365E-04    0.02      28.1  T
     SCC iter.                  ...        0 min,  0.895 sec
     gradient                   ...        0 min,  0.033 sec
 * total energy  :  -278.7380624 Eh     change       -0.5977190E-03 Eh
   gradient norm :     0.0104546 Eh/α   predicted    -0.4712860E-03 ( -21.15%)
   displ. norm   :     0.5193272 α      lambda       -0.7343148E-03
   maximum displ.:     0.2515410 α      in ANC's #7, #26, #14, ...

........................................................................
.............................. CYCLE   19 ..............................
........................................................................

 iter      E             dE          RMSdq      gap      omega  full diag
   1   -280.6568955 -0.280657E+03  0.717E-02    0.02       0.0  T
   2   -280.6563139  0.581631E-03  0.631E-02    0.02       1.0  T
   3   -280.6282239  0.280900E-01  0.330E-01    0.12       1.0  T
   4   -280.6566591 -0.284352E-01  0.339E-02    0.02       1.0  T
   5   -280.6568670 -0.207979E-03  0.167E-02    0.02       1.0  T
   6   -280.6569149 -0.478449E-04  0.535E-03    0.02       1.9  T
   7   -280.6569174 -0.252729E-05  0.230E-03    0.02       4.5  T
   8   -280.6569179 -0.459255E-06  0.129E-03    0.02       8.0  T
   9   -280.6569179 -0.578948E-07  0.903E-04    0.02      11.4  T
  10   -280.6569181 -0.167999E-06  0.332E-04    0.02      30.9  T
     SCC iter.                  ...        0 min,  0.569 sec
     gradient                   ...        0 min,  0.037 sec
 * total energy  :  -278.7386407 Eh     change       -0.5782230E-03 Eh
   gradient norm :     0.0112344 Eh/α   predicted    -0.4661837E-03 ( -19.38%)
   displ. norm   :     0.5498052 α      lambda       -0.7607992E-03
   maximum displ.:     0.2950198 α      in ANC's #7, #14, #26, ...

........................................................................
.............................. CYCLE   20 ..............................
........................................................................

 iter      E             dE          RMSdq      gap      omega  full diag
   1   -280.6564809 -0.280656E+03  0.790E-02    0.02       0.0  T
   2   -280.6503529  0.612795E-02  0.160E-01    0.05       1.0  T
   3   -280.6465121  0.384080E-02  0.202E-01    0.06       1.0  T
   4   -280.6563062 -0.979410E-02  0.326E-02    0.02       1.0  T
   5   -280.6565315 -0.225256E-03  0.560E-03    0.02       1.8  T
   6   -280.6565301  0.133874E-05  0.468E-03    0.02       2.2  T
   7   -280.6565330 -0.289187E-05  0.263E-03    0.02       3.9  T
   8   -280.6565338 -0.756106E-06  0.144E-03    0.02       7.1  T
   9   -280.6565340 -0.222633E-06  0.612E-04    0.02      16.8  T
  10   -280.6565341 -0.617655E-07  0.242E-04    0.02      42.4  T
     SCC iter.                  ...        0 min,  0.776 sec
     gradient                   ...        0 min,  0.032 sec
 * total energy  :  -278.7392585 Eh     change       -0.6178049E-03 Eh
   gradient norm :     0.0114328 Eh/α   predicted    -0.4953953E-03 ( -19.81%)
   displ. norm   :     0.5862777 α      lambda       -0.8798346E-03
   maximum displ.:     0.3290840 α      in ANC's #7, #14, #26, ...
 * RMSD in coord.:     0.6878477 α      energy gain  -0.4476741E+00 Eh

generating ANC from exact Hessian ...
Using Lindh-Hessian (1995)
 Shifting diagonal of input Hessian by    1.0505329230121235E-002
 Lowest  eigenvalues of input Hessian
    0.010000    0.000000    0.000000    0.000000    0.000000    0.000000
    0.000000    0.010589    0.010618    0.010768    0.010790    0.011186
    0.011344    0.011508    0.011682    0.011796    0.012492    0.012507
 Highest eigenvalues
    2.266313    2.279758    2.287518    2.290016    2.297073    2.308110


........................................................................
.............................. CYCLE   21 ..............................
........................................................................

 iter      E             dE          RMSdq      gap      omega  full diag
   1   -280.6583518 -0.280658E+03  0.850E-02    0.02       0.0  T
   2   -280.6555247  0.282715E-02  0.115E-01    0.03       1.0  T
   3   -280.6373356  0.181891E-01  0.287E-01    0.10       1.0  T
   4   -280.6580094 -0.206738E-01  0.408E-02    0.03       1.0  T
   5   -280.6583593 -0.349893E-03  0.120E-02    0.02       1.0  T
   6   -280.6583771 -0.177362E-04  0.704E-03    0.02       1.5  T
   7   -280.6583847 -0.767057E-05  0.379E-03    0.02       2.7  T
   8   -280.6583860 -0.125978E-05  0.254E-03    0.02       4.0  T
   9   -280.6583869 -0.931479E-06  0.113E-03    0.02       9.1  T
  10   -280.6583872 -0.269561E-06  0.317E-04    0.02      32.4  T
  11   -280.6583872  0.444874E-08  0.295E-04    0.02      34.8  T
     SCC iter.                  ...        0 min,  0.699 sec
     gradient                   ...        0 min,  0.032 sec
 * total energy  :  -278.7399945 Eh     change       -0.7360627E-03 Eh
   gradient norm :     0.0116918 Eh/α   predicted     0.0000000E+00 (-100.00%)
   displ. norm   :     0.1428528 α      lambda       -0.4912140E-03
   maximum displ.:     0.0689554 α      in ANC's #22, #16, #10, ...

........................................................................
.............................. CYCLE   22 ..............................
........................................................................

 iter      E             dE          RMSdq      gap      omega  full diag
   1   -280.6596954 -0.280660E+03  0.344E-02    0.02       0.0  T
   2   -280.6594886  0.206736E-03  0.350E-02    0.02       1.0  T
   3   -280.6520591  0.742949E-02  0.172E-01    0.05       1.0  T
   4   -280.6596377 -0.757854E-02  0.165E-02    0.02       1.0  T
   5   -280.6596928 -0.551543E-04  0.636E-03    0.02       1.6  T
   6   -280.6596977 -0.484957E-05  0.333E-03    0.02       3.1  T
   7   -280.6596989 -0.125267E-05  0.201E-03    0.02       5.1  T
   8   -280.6596997 -0.788682E-06  0.812E-04    0.02      12.6  T
   9   -280.6596998 -0.659780E-07  0.442E-04    0.02      23.2  T
     SCC iter.                  ...        0 min,  0.628 sec
     gradient                   ...        0 min,  0.032 sec
 * total energy  :  -278.7404153 Eh     change       -0.4207547E-03 Eh
   gradient norm :     0.0070753 Eh/α   predicted    -0.2506206E-03 ( -40.44%)
   displ. norm   :     0.4428576 α      lambda       -0.1055822E-02
   maximum displ.:     0.2021700 α      in ANC's #22, #16, #10, ...

........................................................................
.............................. CYCLE   23 ..............................
........................................................................

 iter      E             dE          RMSdq      gap      omega  full diag
   1   -280.6605236 -0.280661E+03  0.902E-02    0.02       0.0  T
   2   -280.6570327  0.349081E-02  0.129E-01    0.04       1.0  T
   3   -280.6404430  0.165897E-01  0.280E-01    0.08       1.0  T
   4   -280.6601951 -0.197520E-01  0.441E-02    0.02       1.0  T
   5   -280.6604563 -0.261207E-03  0.234E-02    0.02       1.0  T
   6   -280.6605650 -0.108760E-03  0.632E-03    0.02       1.6  T
   7   -280.6605626  0.238194E-05  0.518E-03    0.02       2.0  T
   8   -280.6605677 -0.509178E-05  0.242E-03    0.02       4.2  T
   9   -280.6605678 -0.972574E-07  0.185E-03    0.02       5.5  T
  10   -280.6605686 -0.755590E-06  0.406E-04    0.02      25.3  T
  11   -280.6605686 -0.128169E-07  0.257E-04    0.02      40.0  T
     SCC iter.                  ...        0 min,  0.735 sec
     gradient                   ...        0 min,  0.030 sec
 * total energy  :  -278.7411536 Eh     change       -0.7383119E-03 Eh
   gradient norm :     0.0060471 Eh/α   predicted    -0.6315002E-03 ( -14.47%)
   displ. norm   :     0.4062079 α      lambda       -0.5419779E-03
   maximum displ.:     0.1585295 α      in ANC's #16, #22, #10, ...

........................................................................
.............................. CYCLE   24 ..............................
........................................................................

 iter      E             dE          RMSdq      gap      omega  full diag
   1   -280.6600541 -0.280660E+03  0.700E-02    0.02       0.0  T
   2   -280.6571864  0.286774E-02  0.114E-01    0.04       1.0  T
   3   -280.6500890  0.709734E-02  0.199E-01    0.06       1.0  T
   4   -280.6600038 -0.991482E-02  0.225E-02    0.02       1.0  T
   5   -280.6600645 -0.606599E-04  0.111E-02    0.02       1.0  T
   6   -280.6600795 -0.149845E-04  0.587E-03    0.02       1.7  T
   7   -280.6600825 -0.297765E-05  0.289E-03    0.02       3.6  T
   8   -280.6600840 -0.153772E-05  0.117E-03    0.02       8.8  T
   9   -280.6600842 -0.159260E-06  0.666E-04    0.02      15.4  T
  10   -280.6600842 -0.531531E-07  0.329E-04    0.02      31.2  T
     SCC iter.                  ...        0 min,  0.816 sec
     gradient                   ...        0 min,  0.033 sec
 * total energy  :  -278.7415913 Eh     change       -0.4377450E-03 Eh
   gradient norm :     0.0090288 Eh/α   predicted    -0.3157039E-03 ( -27.88%)
   displ. norm   :     0.5567145 α      lambda       -0.6833181E-03
   maximum displ.:     0.2404243 α      in ANC's #16, #10, #22, ...

........................................................................
.............................. CYCLE   25 ..............................
........................................................................

 iter      E             dE          RMSdq      gap      omega  full diag
   1   -280.6586041 -0.280659E+03  0.885E-02    0.02       0.0  T
   2   -280.6546338  0.397035E-02  0.137E-01    0.04       1.0  T
   3   -280.6421602  0.124736E-01  0.255E-01    0.08       1.0  T
   4   -280.6585731 -0.164128E-01  0.238E-02    0.02       1.0  T
   5   -280.6586267 -0.536436E-04  0.123E-02    0.02       1.0  T
   6   -280.6586428 -0.161354E-04  0.783E-03    0.02       1.3  T
   7   -280.6586513 -0.846190E-05  0.291E-03    0.02       3.5  T
   8   -280.6586515 -0.204927E-06  0.212E-03    0.02       4.8  T
   9   -280.6586521 -0.542564E-06  0.109E-03    0.02       9.4  T
  10   -280.6586522 -0.130014E-06  0.517E-04    0.02      19.8  T
  11   -280.6586522 -0.217517E-07  0.329E-04    0.02      31.2  T
     SCC iter.                  ...        0 min,  0.667 sec
     gradient                   ...        0 min,  0.034 sec
 * total energy  :  -278.7421304 Eh     change       -0.5390955E-03 Eh
   gradient norm :     0.0111610 Eh/α   predicted    -0.4475512E-03 ( -16.98%)
   displ. norm   :     0.4985081 α      lambda       -0.6538235E-03
   maximum displ.:     0.2289874 α      in ANC's #16, #10, #7, ...

........................................................................
.............................. CYCLE   26 ..............................
........................................................................

 iter      E             dE          RMSdq      gap      omega  full diag
   1   -280.6578977 -0.280658E+03  0.766E-02    0.02       0.0  T
   2   -280.6569957  0.902063E-03  0.769E-02    0.03       1.0  T
   3   -280.6314744  0.255212E-01  0.319E-01    0.10       1.0  T
   4   -280.6575780 -0.261036E-01  0.379E-02    0.02       1.0  T
   5   -280.6578776 -0.299553E-03  0.167E-02    0.02       1.0  T
   6   -280.6578951 -0.175591E-04  0.114E-02    0.02       1.0  T
   7   -280.6579221 -0.269593E-04  0.362E-03    0.02       2.8  T
   8   -280.6579234 -0.130353E-05  0.232E-03    0.02       4.4  T
   9   -280.6579239 -0.459504E-06  0.125E-03    0.02       8.2  T
  10   -280.6579240 -0.124921E-06  0.657E-04    0.02      15.6  T
  11   -280.6579241 -0.787608E-07  0.261E-04    0.02      39.3  T
     SCC iter.                  ...        0 min,  0.850 sec
     gradient                   ...        0 min,  0.032 sec
 * total energy  :  -278.7426222 Eh     change       -0.4918069E-03 Eh
   gradient norm :     0.0131970 Eh/α   predicted    -0.4081530E-03 ( -17.01%)
   displ. norm   :     0.3641130 α      lambda       -0.7272371E-03
   maximum displ.:     0.1564164 α      in ANC's #16, #4, #27, ...

........................................................................
.............................. CYCLE   27 ..............................
........................................................................

 iter      E             dE          RMSdq      gap      omega  full diag
   1   -280.6596002 -0.280660E+03  0.603E-02    0.02       0.0  T
   2   -280.6580848  0.151537E-02  0.828E-02    0.03       1.0  T
   3   -280.6460442  0.120406E-01  0.232E-01    0.07       1.0  T
   4   -280.6592535 -0.132093E-01  0.423E-02    0.02       1.0  T
   5   -280.6595316 -0.278085E-03  0.213E-02    0.02       1.0  T
   6   -280.6596257 -0.941599E-04  0.412E-03    0.02       2.5  T
   7   -280.6596269 -0.115922E-05  0.214E-03    0.02       4.8  T
   8   -280.6596270 -0.159120E-06  0.153E-03    0.02       6.7  T
   9   -280.6596271 -0.135963E-07  0.126E-03    0.02       8.2  T
  10   -280.6596274 -0.305493E-06  0.346E-04    0.02      29.6  T
  11   -280.6596274  0.363514E-09  0.294E-04    0.02      34.9  T
     SCC iter.                  ...        0 min,  0.660 sec
     gradient                   ...        0 min,  0.032 sec
 * total energy  :  -278.7431640 Eh     change       -0.5417303E-03 Eh
   gradient norm :     0.0133149 Eh/α   predicted    -0.4118271E-03 ( -23.98%)
   displ. norm   :     0.3591309 α      lambda       -0.6799533E-03
   maximum displ.:     0.1378025 α      in ANC's #4, #16, #10, ...

........................................................................
.............................. CYCLE   28 ..............................
........................................................................

 iter      E             dE          RMSdq      gap      omega  full diag
   1   -280.6613284 -0.280661E+03  0.578E-02    0.02       0.0  T
   2   -280.6520744  0.925392E-02  0.191E-01    0.06       1.0  T
   3   -280.6583699 -0.629544E-02  0.114E-01    0.04       1.0  T
   4   -280.6612149 -0.284506E-02  0.336E-02    0.02       1.0  T
   5   -280.6613533 -0.138383E-03  0.178E-02    0.02       1.0  T
   6   -280.6614023 -0.489762E-04  0.435E-03    0.02       2.4  T
   7   -280.6614045 -0.217551E-05  0.186E-03    0.02       5.5  T
   8   -280.6614047 -0.223380E-06  0.121E-03    0.02       8.5  T
   9   -280.6614048 -0.739303E-07  0.806E-04    0.02      12.7  T
  10   -280.6614049 -0.774472E-07  0.356E-04    0.02      28.8  T
     SCC iter.                  ...        0 min,  0.541 sec
     gradient                   ...        0 min,  0.032 sec
 * total energy  :  -278.7436908 Eh     change       -0.5268558E-03 Eh
   gradient norm :     0.0123146 Eh/α   predicted    -0.3838266E-03 ( -27.15%)
   displ. norm   :     0.4918345 α      lambda       -0.7412063E-03
   maximum displ.:     0.1958039 α      in ANC's #4, #10, #16, ...

........................................................................
.............................. CYCLE   29 ..............................
........................................................................

 iter      E             dE          RMSdq      gap      omega  full diag
   1   -280.6619039 -0.280662E+03  0.722E-02    0.02       0.0  T
   2   -280.6508164  0.110875E-01  0.211E-01    0.06       1.0  T
   3   -280.6566990 -0.588261E-02  0.149E-01    0.05       1.0  T
   4   -280.6619272 -0.522822E-02  0.213E-02    0.02       1.0  T
   5   -280.6619539 -0.267231E-04  0.140E-02    0.02       1.0  T
   6   -280.6619832 -0.292382E-04  0.416E-03    0.02       2.5  T
   7   -280.6619846 -0.138759E-05  0.174E-03    0.02       5.9  T
   8   -280.6619847 -0.157481E-06  0.124E-03    0.02       8.3  T
   9   -280.6619848 -0.116792E-06  0.688E-04    0.02      14.9  T
  10   -280.6619849 -0.514579E-07  0.309E-04    0.02      33.2  T
     SCC iter.                  ...        0 min,  0.587 sec
     gradient                   ...        0 min,  0.030 sec
 * total energy  :  -278.7442948 Eh     change       -0.6039795E-03 Eh
   gradient norm :     0.0112789 Eh/α   predicted    -0.4602731E-03 ( -23.79%)
   displ. norm   :     0.5160219 α      lambda       -0.8205282E-03
   maximum displ.:     0.2226439 α      in ANC's #4, #10, #16, ...

........................................................................
.............................. CYCLE   30 ..............................
........................................................................

 iter      E             dE          RMSdq      gap      omega  full diag
   1   -280.6635782 -0.280664E+03  0.806E-02    0.02       0.0  T
   2   -280.6552066  0.837152E-02  0.187E-01    0.05       1.0  T
   3   -280.6553249 -0.118270E-03  0.184E-01    0.06       1.0  T
   4   -280.6633391 -0.801417E-02  0.378E-02    0.02       1.0  T
   5   -280.6636000 -0.260913E-03  0.169E-02    0.02       1.0  T
   6   -280.6636375 -0.374523E-04  0.689E-03    0.02       1.5  T
   7   -280.6636447 -0.727538E-05  0.312E-03    0.02       3.3  T
   8   -280.6636458 -0.106036E-05  0.183E-03    0.02       5.6  T
   9   -280.6636463 -0.551049E-06  0.489E-04    0.02      21.0  T
  10   -280.6636463 -0.653932E-08  0.375E-04    0.02      27.3  T
     SCC iter.                  ...        0 min,  0.737 sec
     gradient                   ...        0 min,  0.038 sec
 * total energy  :  -278.7449296 Eh     change       -0.6348366E-03 Eh
   gradient norm :     0.0087780 Eh/α   predicted    -0.5195093E-03 ( -18.17%)
   displ. norm   :     0.7291385 α      lambda       -0.7897433E-03
   maximum displ.:     0.3007755 α      in ANC's #16, #4, #10, ...

........................................................................
.............................. CYCLE   31 ..............................
........................................................................

 iter      E             dE          RMSdq      gap      omega  full diag
   1   -280.6603889 -0.280660E+03  0.105E-01    0.02       0.0  T
   2   -280.6595930  0.795924E-03  0.851E-02    0.03       1.0  T
   3   -280.6071372  0.524558E-01  0.444E-01    0.17       1.0  T
   4   -280.6597278 -0.525906E-01  0.610E-02    0.03       1.0  T
   5   -280.6602872 -0.559381E-03  0.300E-02    0.02       1.0  T
   6   -280.6603850 -0.978156E-04  0.165E-02    0.02       1.0  T
   7   -280.6604337 -0.487399E-04  0.691E-03    0.02       1.5  T
   8   -280.6604353 -0.154036E-05  0.557E-03    0.02       1.8  T
   9   -280.6604392 -0.394380E-05  0.296E-03    0.02       3.5  T
  10   -280.6604407 -0.151260E-05  0.101E-03    0.02      10.1  T
  11   -280.6604408 -0.749983E-07  0.788E-04    0.02      13.0  T
  12   -280.6604408 -0.130116E-07  0.664E-04    0.02      15.4  T
     SCC iter.                  ...        0 min,  0.760 sec
     gradient                   ...        0 min,  0.030 sec
 * total energy  :  -278.7454549 Eh     change       -0.5252959E-03 Eh
   gradient norm :     0.0125471 Eh/α   predicted    -0.6048044E-03 (  15.14%)
   displ. norm   :     0.4354391 α      lambda       -0.9315842E-03
   maximum displ.:     0.2007775 α      in ANC's #4, #16, #2, ...

........................................................................
.............................. CYCLE   32 ..............................
........................................................................

 iter      E             dE          RMSdq      gap      omega  full diag
   1   -280.6650964 -0.280665E+03  0.859E-02    0.02       0.0  T
   2   -280.6599255  0.517091E-02  0.148E-01    0.05       1.0  T
   3   -280.6475027  0.124227E-01  0.267E-01    0.08       1.0  T
   4   -280.6641028 -0.166001E-01  0.770E-02    0.03       1.0  T
   5   -280.6648338 -0.730978E-03  0.378E-02    0.03       1.0  T
   6   -280.6651783 -0.344570E-03  0.627E-03    0.02       1.6  T
   7   -280.6651806 -0.224438E-05  0.373E-03    0.02       2.8  T
   8   -280.6651762  0.439604E-05  0.510E-03    0.02       2.0  T
   9   -280.6651797 -0.355666E-05  0.299E-03    0.02       3.4  T
  10   -280.6651819 -0.217340E-05  0.583E-04    0.02      17.6  T
  11   -280.6651819 -0.948205E-09  0.506E-04    0.02      20.3  T
  12   -280.6651820 -0.421209E-07  0.214E-04    0.02      47.9  T
     SCC iter.                  ...        0 min,  0.703 sec
     gradient                   ...        0 min,  0.030 sec
 * total energy  :  -278.7459798 Eh     change       -0.5248438E-03 Eh
   gradient norm :     0.0090007 Eh/α   predicted    -0.5541097E-03 (   5.58%)
   displ. norm   :     0.5661207 α      lambda       -0.4854973E-03
   maximum displ.:     0.2438470 α      in ANC's #4, #16, #10, ...

........................................................................
.............................. CYCLE   33 ..............................
........................................................................

 iter      E             dE          RMSdq      gap      omega  full diag
   1   -280.6628903 -0.280663E+03  0.798E-02    0.02       0.0  T
   2   -280.6616023  0.128808E-02  0.858E-02    0.03       1.0  T
   3   -280.6362537  0.253485E-01  0.321E-01    0.10       1.0  T
   4   -280.6625916 -0.263379E-01  0.426E-02    0.03       1.0  T
   5   -280.6628684 -0.276798E-03  0.175E-02    0.02       1.0  T
   6   -280.6628947 -0.263496E-04  0.110E-02    0.02       1.0  T
   7   -280.6629198 -0.250783E-04  0.373E-03    0.03       2.8  T
   8   -280.6629208 -0.995891E-06  0.257E-03    0.02       4.0  T
   9   -280.6629213 -0.527248E-06  0.159E-03    0.02       6.5  T
  10   -280.6629217 -0.338657E-06  0.671E-04    0.02      15.3  T
  11   -280.6629217 -0.737835E-07  0.272E-04    0.03      37.7  T
     SCC iter.                  ...        0 min,  0.679 sec
     gradient                   ...        0 min,  0.030 sec
 * total energy  :  -278.7463626 Eh     change       -0.3828087E-03 Eh
   gradient norm :     0.0089752 Eh/α   predicted    -0.3205522E-03 ( -16.26%)
   displ. norm   :     0.5052040 α      lambda       -0.5305845E-03
   maximum displ.:     0.2327701 α      in ANC's #4, #16, #2, ...

........................................................................
.............................. CYCLE   34 ..............................
........................................................................

 iter      E             dE          RMSdq      gap      omega  full diag
   1   -280.6637176 -0.280664E+03  0.729E-02    0.03       0.0  T
   2   -280.6637131  0.448609E-05  0.432E-02    0.03       1.0  T
   3   -280.6592981  0.441502E-02  0.133E-01    0.04       1.0  T
   4   -280.6604933 -0.119527E-02  0.112E-01    0.04       1.0  T
   5   -280.6637091 -0.321573E-02  0.126E-02    0.03       1.0  T
   6   -280.6637326 -0.235859E-04  0.507E-03    0.03       2.0  T
   7   -280.6637344 -0.176193E-05  0.336E-03    0.03       3.1  T
   8   -280.6637361 -0.172907E-05  0.151E-03    0.03       6.8  T
   9   -280.6637363 -0.194847E-06  0.861E-04    0.03      11.9  T
  10   -280.6637364 -0.782429E-07  0.352E-04    0.03      29.1  T
     SCC iter.                  ...        0 min,  0.664 sec
     gradient                   ...        0 min,  0.031 sec
 * total energy  :  -278.7467522 Eh     change       -0.3896237E-03 Eh
   gradient norm :     0.0068725 Eh/α   predicted    -0.3330049E-03 ( -14.53%)
   displ. norm   :     0.4338292 α      lambda       -0.3567578E-03
   maximum displ.:     0.1986806 α      in ANC's #4, #16, #2, ...

........................................................................
.............................. CYCLE   35 ..............................
........................................................................

 iter      E             dE          RMSdq      gap      omega  full diag
   1   -280.6653577 -0.280665E+03  0.631E-02    0.03       0.0  T
   2   -280.6646394  0.718248E-03  0.642E-02    0.03       1.0  T
   3   -280.6460640  0.185754E-01  0.273E-01    0.09       1.0  T
   4   -280.6652102 -0.191461E-01  0.293E-02    0.03       1.0  T
   5   -280.6653361 -0.125985E-03  0.141E-02    0.03       1.0  T
   6   -280.6653694 -0.332178E-04  0.532E-03    0.03       1.9  T
   7   -280.6653726 -0.326136E-05  0.299E-03    0.03       3.4  T
   8   -280.6653738 -0.121179E-05  0.177E-03    0.03       5.8  T
   9   -280.6653742 -0.356365E-06  0.905E-04    0.03      11.3  T
  10   -280.6653743 -0.774000E-07  0.460E-04    0.03      22.3  T
     SCC iter.                  ...        0 min,  0.650 sec
     gradient                   ...        0 min,  0.031 sec
 * total energy  :  -278.7470206 Eh     change       -0.2683575E-03 Eh
   gradient norm :     0.0062014 Eh/α   predicted    -0.2119535E-03 ( -21.02%)
   displ. norm   :     0.4787109 α      lambda       -0.3176433E-03
   maximum displ.:     0.2162604 α      in ANC's #4, #2, #16, ...

........................................................................
.............................. CYCLE   36 ..............................
........................................................................

 iter      E             dE          RMSdq      gap      omega  full diag
   1   -280.6665109 -0.280667E+03  0.707E-02    0.03       0.0  T
   2   -280.6638707  0.264024E-02  0.109E-01    0.04       1.0  T
   3   -280.6547516  0.911910E-02  0.216E-01    0.07       1.0  T
   4   -280.6662891 -0.115376E-01  0.359E-02    0.03       1.0  T
   5   -280.6665026 -0.213466E-03  0.154E-02    0.03       1.0  T
   6   -280.6665397 -0.371044E-04  0.486E-03    0.03       2.1  T
   7   -280.6665415 -0.173902E-05  0.329E-03    0.03       3.1  T
   8   -280.6665430 -0.153170E-05  0.175E-03    0.03       5.9  T
   9   -280.6665430 -0.373587E-07  0.148E-03    0.03       6.9  T
  10   -280.6665433 -0.322740E-06  0.580E-04    0.03      17.7  T
  11   -280.6665434 -0.652609E-07  0.232E-04    0.03      44.1  T
     SCC iter.                  ...        0 min,  0.719 sec
     gradient                   ...        0 min,  0.032 sec
 * total energy  :  -278.7472450 Eh     change       -0.2244302E-03 Eh
   gradient norm :     0.0067878 Eh/α   predicted    -0.1952210E-03 ( -13.01%)
   displ. norm   :     0.5015186 α      lambda       -0.3245780E-03
   maximum displ.:     0.2177457 α      in ANC's #4, #2, #16, ...

........................................................................
.............................. CYCLE   37 ..............................
........................................................................

 iter      E             dE          RMSdq      gap      omega  full diag
   1   -280.6671112 -0.280667E+03  0.757E-02    0.03       0.0  T
   2   -280.6610953  0.601590E-02  0.159E-01    0.05       1.0  T
   3   -280.6597618  0.133348E-02  0.174E-01    0.06       1.0  T
   4   -280.6669787 -0.721686E-02  0.328E-02    0.03       1.0  T
   5   -280.6671301 -0.151420E-03  0.139E-02    0.03       1.0  T
   6   -280.6671618 -0.316458E-04  0.348E-03    0.03       2.9  T
   7   -280.6671617  0.961239E-07  0.267E-03    0.03       3.8  T
   8   -280.6671618 -0.172165E-06  0.222E-03    0.03       4.6  T
   9   -280.6671624 -0.548961E-06  0.106E-03    0.03       9.7  T
  10   -280.6671626 -0.227633E-06  0.286E-04    0.03      35.9  T
  11   -280.6671626 -0.346876E-08  0.203E-04    0.03      50.6  T
     SCC iter.                  ...        0 min,  0.580 sec
     gradient                   ...        0 min,  0.031 sec
 * total energy  :  -278.7474606 Eh     change       -0.2156077E-03 Eh
   gradient norm :     0.0063975 Eh/α   predicted    -0.2031121E-03 (  -5.80%)
   displ. norm   :     0.4039399 α      lambda       -0.2379667E-03
   maximum displ.:     0.1750394 α      in ANC's #2, #4, #16, ...

........................................................................
.............................. CYCLE   38 ..............................
........................................................................

 iter      E             dE          RMSdq      gap      omega  full diag
   1   -280.6681956 -0.280668E+03  0.614E-02    0.03       0.0  T
   2   -280.6618311  0.636449E-02  0.161E-01    0.05       1.0  T
   3   -280.6648680 -0.303684E-02  0.118E-01    0.05       1.0  T
   4   -280.6680977 -0.322972E-02  0.285E-02    0.03       1.0  T
   5   -280.6682286 -0.130928E-03  0.884E-03    0.03       1.2  T
   6   -280.6682390 -0.103782E-04  0.350E-03    0.03       2.9  T
   7   -280.6682411 -0.206978E-05  0.136E-03    0.03       7.5  T
   8   -280.6682411 -0.541215E-07  0.983E-04    0.03      10.4  T
   9   -280.6682412 -0.115310E-06  0.480E-04    0.03      21.4  T
     SCC iter.                  ...        0 min,  0.629 sec
     gradient                   ...        0 min,  0.031 sec
 * total energy  :  -278.7476464 Eh     change       -0.1857876E-03 Eh
   gradient norm :     0.0055779 Eh/α   predicted    -0.1383986E-03 ( -25.51%)
   displ. norm   :     0.5566719 α      lambda       -0.2676766E-03
   maximum displ.:     0.2394862 α      in ANC's #2, #4, #16, ...

........................................................................
.............................. CYCLE   39 ..............................
........................................................................

 iter      E             dE          RMSdq      gap      omega  full diag
   1   -280.6667832 -0.280667E+03  0.776E-02    0.03       0.0  T
   2   -280.6667550  0.281558E-04  0.481E-02    0.03       1.0  T
   3   -280.6528579  0.138971E-01  0.234E-01    0.07       1.0  T
   4   -280.6644123 -0.115544E-01  0.969E-02    0.04       1.0  T
   5   -280.6667746 -0.236234E-02  0.135E-02    0.03       1.0  T
   6   -280.6667898 -0.151417E-04  0.794E-03    0.03       1.3  T
   7   -280.6668001 -0.103530E-04  0.458E-03    0.03       2.2  T
   8   -280.6668034 -0.323380E-05  0.150E-03    0.03       6.8  T
   9   -280.6668031  0.320152E-06  0.137E-03    0.03       7.5  T
  10   -280.6668035 -0.453887E-06  0.331E-04    0.03      31.0  T
  11   -280.6668035 -0.230102E-08  0.258E-04    0.03      39.7  T
     SCC iter.                  ...        0 min,  0.736 sec
     gradient                   ...        0 min,  0.031 sec
 * total energy  :  -278.7478052 Eh     change       -0.1588202E-03 Eh
   gradient norm :     0.0071074 Eh/α   predicted    -0.1753159E-03 (  10.39%)
   displ. norm   :     0.4203258 α      lambda       -0.4276678E-03
   maximum displ.:     0.2271359 α      in ANC's #9, #2, #3, ...

........................................................................
.............................. CYCLE   40 ..............................
........................................................................

 iter      E             dE          RMSdq      gap      omega  full diag
   1   -280.6727345 -0.280673E+03  0.888E-02    0.03       0.0  T
   2   -280.6725114  0.223050E-03  0.637E-02    0.03       1.0  T
   3   -280.6410788  0.314326E-01  0.347E-01    0.13       1.0  T
   4   -280.6712310 -0.301522E-01  0.775E-02    0.03       1.0  T
   5   -280.6726885 -0.145751E-02  0.242E-02    0.03       1.0  T
   6   -280.6727098 -0.212904E-04  0.190E-02    0.03       1.0  T
   7   -280.6727884 -0.785545E-04  0.652E-03    0.03       1.6  T
   8   -280.6727935 -0.515182E-05  0.383E-03    0.03       2.7  T
   9   -280.6727950 -0.149030E-05  0.223E-03    0.03       4.6  T
  10   -280.6727958 -0.751170E-06  0.808E-04    0.03      12.7  T
  11   -280.6727958 -0.203718E-07  0.657E-04    0.03      15.6  T
     SCC iter.                  ...        0 min,  0.584 sec
     gradient                   ...        0 min,  0.031 sec
 * total energy  :  -278.7478354 Eh     change       -0.3017153E-04 Eh
   gradient norm :     0.0108925 Eh/α   predicted    -0.2516169E-03 ( 733.95%)
   displ. norm   :     0.2617886 α      lambda       -0.3867766E-03
   maximum displ.:     0.1101735 α      in ANC's #4, #10, #2, ...

........................................................................
.............................. CYCLE   41 ..............................
........................................................................

 iter      E             dE          RMSdq      gap      omega  full diag
   1   -280.6678687 -0.280668E+03  0.525E-02    0.03       0.0  T
   2   -280.6667578  0.111086E-02  0.768E-02    0.03       1.0  T
   3   -280.6609689  0.578890E-02  0.165E-01    0.06       1.0  T
   4   -280.6674664 -0.649748E-02  0.431E-02    0.03       1.0  T
   5   -280.6678390 -0.372555E-03  0.203E-02    0.03       1.0  T
   6   -280.6678935 -0.545548E-04  0.906E-03    0.03       1.1  T
   7   -280.6679092 -0.156411E-04  0.359E-03    0.03       2.9  T
   8   -280.6679102 -0.105134E-05  0.268E-03    0.03       3.8  T
   9   -280.6679106 -0.381725E-06  0.178E-03    0.03       5.8  T
  10   -280.6679113 -0.662340E-06  0.621E-04    0.03      16.5  T
  11   -280.6679113 -0.587904E-07  0.343E-04    0.03      29.9  T
     SCC iter.                  ...        0 min,  0.698 sec
     gradient                   ...        0 min,  0.030 sec
 * total energy  :  -278.7480081 Eh     change       -0.1727548E-03 Eh
   gradient norm :     0.0073327 Eh/α   predicted    -0.2066451E-03 (  19.62%)
   displ. norm   :     0.1658686 α      lambda       -0.2312676E-03
   maximum displ.:     0.0707310 α      in ANC's #16, #2, #17, ...

........................................................................
.............................. CYCLE   42 ..............................
........................................................................

 iter      E             dE          RMSdq      gap      omega  full diag
   1   -280.6667725 -0.280667E+03  0.466E-02    0.03       0.0  T
   2   -280.6482404  0.185321E-01  0.270E-01    0.09       1.0  T
   3   -280.6662034 -0.179630E-01  0.568E-02    0.03       1.0  T
   4   -280.6660799  0.123516E-03  0.555E-02    0.03       1.0  T
   5   -280.6668992 -0.819367E-03  0.125E-02    0.03       1.0  T
   6   -280.6668939  0.537221E-05  0.119E-02    0.03       1.0  T
   7   -280.6669291 -0.352437E-04  0.287E-03    0.03       3.6  T
   8   -280.6669292 -0.610531E-07  0.252E-03    0.03       4.1  T
   9   -280.6669295 -0.393844E-06  0.201E-03    0.03       5.1  T
  10   -280.6669305 -0.968394E-06  0.522E-04    0.03      19.7  T
  11   -280.6669305 -0.170229E-07  0.345E-04    0.03      29.8  T
     SCC iter.                  ...        0 min,  0.600 sec
     gradient                   ...        0 min,  0.032 sec
 * total energy  :  -278.7480851 Eh     change       -0.7697789E-04 Eh
   gradient norm :     0.0051734 Eh/α   predicted    -0.1188179E-03 (  54.35%)
   displ. norm   :     0.1579878 α      lambda       -0.1194149E-03
   maximum displ.:     0.0852992 α      in ANC's #2, #9, #3, ...
 * RMSD in coord.:     0.8489218 α      energy gain  -0.8826659E-02 Eh

generating ANC from exact Hessian ...
Using Lindh-Hessian (1995)
 Shifting diagonal of input Hessian by    9.9207480367437609E-003
 Lowest  eigenvalues of input Hessian
    0.000000    0.000000    0.000000    0.000000    0.000000    0.000000
    0.010000    0.010061    0.010199    0.010321    0.010475    0.010785
    0.010838    0.011038    0.011306    0.011704    0.011917    0.012495
 Highest eigenvalues
    2.266974    2.276805    2.281783    2.286179    2.287568    2.294201


........................................................................
.............................. CYCLE   43 ..............................
........................................................................

 iter      E             dE          RMSdq      gap      omega  full diag
   1   -280.6677477 -0.280668E+03  0.252E-02    0.03       0.0  T
   2   -280.6675990  0.148651E-03  0.277E-02    0.03       1.0  T
   3   -280.6640287  0.357033E-02  0.121E-01    0.04       1.0  T
   4   -280.6675626 -0.353393E-02  0.263E-02    0.03       1.0  T
   5   -280.6677379 -0.175299E-03  0.838E-03    0.03       1.2  T
   6   -280.6677464 -0.851706E-05  0.471E-03    0.03       2.2  T
   7   -280.6677519 -0.546384E-05  0.123E-03    0.03       8.4  T
   8   -280.6677516  0.289669E-06  0.147E-03    0.03       7.0  T
   9   -280.6677519 -0.304975E-06  0.889E-04    0.03      11.5  T
  10   -280.6677521 -0.207285E-06  0.164E-04    0.03      62.5  T
     SCC iter.                  ...        0 min,  0.583 sec
     gradient                   ...        0 min,  0.032 sec
 * total energy  :  -278.7481794 Eh     change       -0.9426272E-04 Eh
   gradient norm :     0.0032538 Eh/α   predicted     0.0000000E+00 (-100.00%)
   displ. norm   :     0.0538806 α      lambda       -0.5405210E-04
   maximum displ.:     0.0183646 α      in ANC's #16, #1, #12, ...

........................................................................
[...]
   
   for SPH calculations refer to:
   * S. Spicher and S. Grimme, J. Chem. Theory Comput., 2021, 17, 1701-1714
     DOI: 10.1021/acs.jctc.0c01306
   
   for ONIOM refer to:
   * C. Plett, A. Katbashev, S. Ehlert, S. Grimme, M. Bursch,
     Phys. Chem. Chem. Phys., 2023, 25, 17860-17868. DOI: 10.1039/D3CP02178E
   
   for DIPRO refer to:
   * J. Kohn, N. Gildemeister, S. Grimme, D. Fazzi, A. Hansen,
     J. Chem. Phys., 2023, just accepted.
   
   for PTB refer to:
   * S. Grimme, M. Mueller, A. Hansen, J. Chem. Phys., 2023, 158, 124111.
     DOI: 10.1063/5.0137838
   
   with help from (in alphabetical order)
   P. Atkinson, C. Bannwarth, F. Bohle, G. Brandenburg, E. Caldeweyher
   M. Checinski, S. Dohm, S. Ehlert, S. Ehrlich, I. Gerasimov, C. Hölzer
   A. Katbashev, J. Kohn, J. Koopman, C. Lavigne, S. Lehtola, F. März, M. Müller,
   F. Musil, H. Neugebauer, J. Pisarek, C. Plett, P. Pracht, F. Pultar,
   J. Seibert, P. Shushkov, S. Spicher, M. Stahn, M. Steiner, T. Strunk,
   J. Stückrath, T. Rose, and J. Unsleber
   
 * started run on 2025/03/13 at 11:05:27.392     
   ID    Z sym.   atoms
    1    6 C      1-9, 11, 12, 14-21, 24-32, 34, 35, 37-44, 96-104, 106, 107,
                  109-116, 119-127, 129, 130, 132-139
    2    7 N      10, 13, 33, 36, 105, 108, 128, 131
    3    8 O      22, 23, 45, 46, 117, 118, 140, 141
    4    5 B      47, 142
    5   16 S      48, 54, 60, 66, 72, 78, 143, 149, 155, 161, 167, 173
    6    9 F      49-53, 55-59, 61-65, 67-71, 73-77, 79-83, 144-148, 150-154,
                  156-160, 162-166, 168-172, 174-178
    7    1 H      84-95, 179-190

           -------------------------------------------------
          |                Calculation Setup                |
           -------------------------------------------------

          program call               : xtb opt_dimer.mol --dipro 0.3 --chrg 0 --uhf 2
          coordinate file            : opt_dimer.mol
          omp threads                :                     8


molecular fragmentation (1/2 indicates fragments):
111111111111111111111111111111111111111111111111111111111111111111111111
111111111111111111111112222222222222222222222222222222222222222222222222
2222222222222222222222222222222222222222222222
# atoms in fragment 1/2:    95    95
 fragment masses (1/2) :     1361.68     1361.68
CMA distance (Bohr)    :  12.428
constraining FC (au)   :  0.0500

           -------------------------------------------------
          |                 G F N 2 - x T B                 |
           -------------------------------------------------

        Reference                      10.1021/acs.jctc.8b01176
      * Hamiltonian:
        H0-scaling (s, p, d)           1.850000    2.230000    2.230000
        zeta-weighting                 0.500000
      * Dispersion:
        s8                             2.700000
        a1                             0.520000
        a2                             5.000000
        s9                             5.000000
      * Repulsion:
        kExp                           1.500000    1.000000
        rExp                           1.000000
      * Coulomb:
        alpha                          2.000000
        third order                    shell-resolved
        anisotropic                    true
        a3                             3.000000
        a5                             4.000000
        cn-shift                       1.200000
        cn-exp                         4.000000
        max-rad                        5.000000

q/qsh data taken from xtbrestart
CAMM data taken from xtbrestart
           -------------------------------------------------
          |                    D I P R O                    |
           -------------------------------------------------
Calculation for dimer 
--------------------- 
  
charge of dimer :   0.
unpaired e- of dimer :  2
repulsion energy          3.8604240207944E+00 Eh
dispersion energy         3.0951636255223E-02 Eh
number of electrons       9.1400000000000E+02 e
integral cutoff           1.9311100799991E+01 bohr

------------------------------------------------------------
  cycle        total energy    energy error   density error
------------------------------------------------------------
      1     -555.2458158158  -5.5913719E+02   2.8376817E-01
      2     -556.1137847880  -8.6796897E-01   1.5296984E-01
      3     -530.0340115272   2.6079773E+01   1.5997675E-01
      4     -373.4137618478   1.5662025E+02   2.9067621E-01
      5     -530.9113322636  -1.5749757E+02   1.4424933E-01
      6     -553.3952732728  -2.2483941E+01   8.0871874E-02
      7     -554.1185896223  -7.2331635E-01   6.8259286E-02
      8     -556.9548723642  -2.8362827E+00   4.4166496E-02
      9     -557.1908263124  -2.3595395E-01   3.7485406E-02
     10     -557.4378609580  -2.4703465E-01   3.0222936E-02
     11     -557.5370243177  -9.9163360E-02   2.3896032E-02
     12     -557.6442462324  -1.0722191E-01   1.6913117E-02
     13     -557.6068567682   3.7389464E-02   1.5900179E-02
     14     -557.6566859559  -4.9829188E-02   1.1001980E-02
     15     -557.5328711693   1.2381479E-01   1.5617738E-02
     16     -557.6400385098  -1.0716734E-01   8.3098530E-03
     17     -557.6525304308  -1.2491921E-02   7.6513966E-03
     18     -557.6705257170  -1.7995286E-02   5.5956027E-03
     19     -557.6858063942  -1.5280677E-02   6.5106040E-03
     20     -557.6887945505  -2.9881563E-03   5.1616403E-03
     21     -557.6886740760   1.2047448E-04   5.1353313E-03
     22     -557.6902099657  -1.5358898E-03   4.2074217E-03
     23     -557.6927636395  -2.5536738E-03   2.9945490E-03
     24     -557.6952999581  -2.5363185E-03   1.4850290E-03
     25     -557.6956875527  -3.8759466E-04   6.4434907E-04
     26     -557.6957463672  -5.8814502E-05   4.9452453E-04
     27     -557.6957565982  -1.0231002E-05   4.0807517E-04
     28     -557.6958269609  -7.0362701E-05   1.6803485E-04
     29     -557.6958339128  -6.9518859E-06   8.6663595E-05
     30     -557.6958346795  -7.6664014E-07   5.7075534E-05
     31     -557.6958356806  -1.0011895E-06   3.8275244E-05
     32     -557.6958360602  -3.7951645E-07   2.7033389E-05
     33     -557.6958361952  -1.3499550E-07   1.6864631E-05
------------------------------------------------------------

electronic energy        -5.6158721185220E+02 Eh
total energy             -5.5769583619515E+02 Eh

 total:                                  12.012 sec
 - repulsion                              0.000 sec (  0%)
 - dispersion                             0.012 sec (  0%)
 - coulomb                                0.005 sec (  0%)
 - hamiltonian                            0.023 sec (  0%)
 - scc                                   11.972 sec ( 99%)

Found 2 fragments!
Fragment 1:  1-95
Fragment 2:  96-190

[Info] Fragment spin read from .UHFfrag
Calculation for fragment 1
 ------------------------------
   
charge of fragment :   0.
unpaired e- of fragment :  1
------------------------------------------------------------
  cycle        total energy    energy error   density error
------------------------------------------------------------
      1     -277.5400840746  -2.7947241E+02   2.8435351E-01
      2     -278.2389582127  -6.9887414E-01   1.5187481E-01
      3     -276.9588037374   1.2801545E+00   1.0637548E-01
      4     -270.3707833706   6.5880204E+00   1.2954019E-01
      5     -278.2348782316  -7.8640949E+00   5.2280711E-02
      6     -278.3632074228  -1.2832919E-01   3.4558747E-02
      7     -278.6312144968  -2.6800707E-01   3.3056804E-02
      8     -278.7417689010  -1.1055440E-01   1.9196809E-02
      9     -278.7324713157   9.2975852E-03   1.8347167E-02
     10     -278.7389347141  -6.4633983E-03   1.2674796E-02
     11     -278.7265322214   1.2402493E-02   1.2034723E-02
     12     -278.7570460711  -3.0513850E-02   5.1129257E-03
     13     -278.7519723350   5.0737360E-03   6.6730295E-03
     14     -278.7605656244  -8.5932894E-03   2.7854086E-03
     15     -278.7625299932  -1.9643687E-03   1.1263368E-03
     16     -278.7622928008   2.3719241E-04   1.4610243E-03
     17     -278.7626564835  -3.6368268E-04   5.5857722E-04
     18     -278.7626490117   7.4717520E-06   4.8764225E-04
     19     -278.7626825660  -3.3554254E-05   1.7695630E-04
     20     -278.7626848280  -2.2620652E-06   9.1296214E-05
     21     -278.7626861977  -1.3696579E-06   2.2418222E-05
     22     -278.7626861830   1.4657701E-08   1.6101092E-05
------------------------------------------------------------

 total:                                   3.664 sec
Calculation for fragment 2
 ------------------------------
   
charge of fragment :   0.
unpaired e- of fragment :  1
------------------------------------------------------------
  cycle        total energy    energy error   density error
------------------------------------------------------------
      1     -277.5517557853  -2.7948542E+02   2.8314843E-01
      2     -278.3102506680  -7.5849488E-01   1.5071030E-01
      3     -277.8655957950   4.4465487E-01   1.0198994E-01
      4     -277.8914540671  -2.5858272E-02   6.3462112E-02
      5     -278.2939492094  -4.0249514E-01   4.4900596E-02
      6     -278.6418196344  -3.4787043E-01   2.8286534E-02
      7     -278.7406168157  -9.8797181E-02   1.8546410E-02
      8     -278.7490042924  -8.3874767E-03   1.5145640E-02
      9     -278.7596001055  -1.0595813E-02   1.1045715E-02
     10     -278.7537437100   5.8563955E-03   1.0195938E-02
     11     -278.7612913925  -7.5476826E-03   7.6478113E-03
     12     -278.7655402957  -4.2489031E-03   5.9873660E-03
     13     -278.7736301680  -8.0898723E-03   2.0696868E-03
     14     -278.7734423941   1.8777387E-04   1.9867792E-03
     15     -278.7743793455  -9.3695131E-04   5.0649015E-04
     16     -278.7743660599   1.3285596E-05   4.1294259E-04
     17     -278.7743983064  -3.2246580E-05   1.8138091E-04
     18     -278.7744038968  -5.5904056E-06   8.7649607E-05
     19     -278.7744054961  -1.5992317E-06   2.4138272E-05
     20     -278.7744055467  -5.0625601E-08   9.5617981E-06
------------------------------------------------------------

 total:                                   1.431 sec
   
   ::::::::::::::::::::::::::::::::::::::::::::::
   ::     D I P R O      C O U P L I N G S     ::
   ::::::::::::::::::::::::::::::::::::::::::::::
   
energy threshhold for near-degenerate orbitals near HOMO and LUMO considered for DIPRO:  0.300 eV
no. of orbitals within energy window of frag 1         6
no. of orbitals within energy window of frag 2         6
   
  Fragment 1 SOMO-3  Fragment 2 SOMO-3
--------------------------------------
E_mon(orb) frag1 frag2             -12.575   -12.378 eV
J(AB):                0.008 eV
S(AB):            -0.00028573 Eh
|J(AB,eff)|:            0.004 eV
   
  Fragment 1 SOMO-3  Fragment 2 SOMO-2
--------------------------------------
E_mon(orb) frag1 frag2             -12.575   -12.249 eV
J(AB):                0.004 eV
S(AB):            -0.00014743 Eh
|J(AB,eff)|:            0.002 eV
   
  Fragment 1 SOMO-3  Fragment 2 SOMO-1
--------------------------------------
E_mon(orb) frag1 frag2             -12.575   -12.287 eV
J(AB):               -0.002 eV
S(AB):             0.00010540 Eh
|J(AB,eff)|:            0.001 eV
   
  Fragment 1 SOMO-3  Fragment 2 SOMO 
--------------------------------------
E_mon(orb) frag1 frag2             -12.575   -12.179 eV
J(AB):               -0.001 eV
S(AB):             0.00005341 Eh
|J(AB,eff)|:            0.001 eV
   
  Fragment 1 SOMO-3  Fragment 2 LUMO 
--------------------------------------
E_mon(orb) frag1 frag2             -12.575   -11.917 eV
J(AB):                0.008 eV
S(AB):            -0.00033207 Eh
|J(AB,eff)|:            0.004 eV
   
  Fragment 1 SOMO-3  Fragment 2 LUMO+1
--------------------------------------
E_mon(orb) frag1 frag2             -12.575   -11.887 eV
J(AB):                0.001 eV
S(AB):            -0.00008215 Eh
|J(AB,eff)|:            0.000 eV
   
  Fragment 1 SOMO-2  Fragment 2 SOMO-3
--------------------------------------
E_mon(orb) frag1 frag2             -12.363   -12.378 eV
J(AB):               -0.006 eV
S(AB):             0.00022978 Eh
|J(AB,eff)|:            0.003 eV
   
  Fragment 1 SOMO-2  Fragment 2 SOMO-2
--------------------------------------
E_mon(orb) frag1 frag2             -12.363   -12.249 eV
J(AB):               -0.006 eV
S(AB):             0.00024342 Eh
|J(AB,eff)|:            0.003 eV
   
  Fragment 1 SOMO-2  Fragment 2 SOMO-1
--------------------------------------
E_mon(orb) frag1 frag2             -12.363   -12.287 eV
J(AB):                0.002 eV
S(AB):            -0.00008621 Eh
|J(AB,eff)|:            0.001 eV
   
  Fragment 1 SOMO-2  Fragment 2 SOMO 
--------------------------------------
E_mon(orb) frag1 frag2             -12.363   -12.179 eV
J(AB):               -0.002 eV
S(AB):             0.00007024 Eh
|J(AB,eff)|:            0.001 eV
   
  Fragment 1 SOMO-2  Fragment 2 LUMO 
--------------------------------------
E_mon(orb) frag1 frag2             -12.363   -11.917 eV
J(AB):                0.001 eV
S(AB):            -0.00004982 Eh
|J(AB,eff)|:            0.000 eV
   
  Fragment 1 SOMO-2  Fragment 2 LUMO+1
--------------------------------------
E_mon(orb) frag1 frag2             -12.363   -11.887 eV
J(AB):                0.004 eV
S(AB):            -0.00010438 Eh
|J(AB,eff)|:            0.002 eV
   
  Fragment 1 SOMO-1  Fragment 2 SOMO-3
--------------------------------------
E_mon(orb) frag1 frag2             -12.240   -12.378 eV
J(AB):                0.000 eV
S(AB):             0.00000760 Eh
|J(AB,eff)|:            0.000 eV
   
  Fragment 1 SOMO-1  Fragment 2 SOMO-2
--------------------------------------
E_mon(orb) frag1 frag2             -12.240   -12.249 eV
J(AB):               -0.003 eV
S(AB):             0.00015821 Eh
|J(AB,eff)|:            0.001 eV
   
  Fragment 1 SOMO-1  Fragment 2 SOMO-1
--------------------------------------
E_mon(orb) frag1 frag2             -12.240   -12.287 eV
J(AB):                0.015 eV
S(AB):            -0.00065800 Eh
|J(AB,eff)|:            0.007 eV
   
  Fragment 1 SOMO-1  Fragment 2 SOMO 
--------------------------------------
E_mon(orb) frag1 frag2             -12.240   -12.179 eV
J(AB):                0.001 eV
S(AB):            -0.00003436 Eh
|J(AB,eff)|:            0.000 eV
   
  Fragment 1 SOMO-1  Fragment 2 LUMO 
--------------------------------------
E_mon(orb) frag1 frag2             -12.240   -11.917 eV
J(AB):                0.002 eV
S(AB):            -0.00008295 Eh
|J(AB,eff)|:            0.001 eV
   
  Fragment 1 SOMO-1  Fragment 2 LUMO+1
--------------------------------------
E_mon(orb) frag1 frag2             -12.240   -11.887 eV
J(AB):               -0.012 eV
S(AB):             0.00046176 Eh
|J(AB,eff)|:            0.007 eV
   
  Fragment 1 SOMO   Fragment 2 SOMO-3
--------------------------------------
E_mon(orb) frag1 frag2             -12.191   -12.378 eV
J(AB):               -0.000 eV
S(AB):             0.00001560 Eh
|J(AB,eff)|:            0.000 eV
   
  Fragment 1 SOMO   Fragment 2 SOMO-2
--------------------------------------
E_mon(orb) frag1 frag2             -12.191   -12.249 eV
J(AB):                0.002 eV
S(AB):            -0.00006851 Eh
|J(AB,eff)|:            0.001 eV
   
  Fragment 1 SOMO   Fragment 2 SOMO-1
--------------------------------------
E_mon(orb) frag1 frag2             -12.191   -12.287 eV
J(AB):               -0.001 eV
S(AB):             0.00005549 Eh
|J(AB,eff)|:            0.001 eV
   
  Fragment 1 SOMO   Fragment 2 SOMO 
--------------------------------------
E_mon(orb) frag1 frag2             -12.191   -12.179 eV
J(AB):                0.001 eV
S(AB):            -0.00005788 Eh
|J(AB,eff)|:            0.000 eV
   
  Fragment 1 SOMO   Fragment 2 LUMO 
--------------------------------------
E_mon(orb) frag1 frag2             -12.191   -11.917 eV
J(AB):                0.000 eV
S(AB):            -0.00000359 Eh
|J(AB,eff)|:            0.000 eV
   
  Fragment 1 SOMO   Fragment 2 LUMO+1
--------------------------------------
E_mon(orb) frag1 frag2             -12.191   -11.887 eV
J(AB):                0.001 eV
S(AB):            -0.00002392 Eh
|J(AB,eff)|:            0.000 eV
   
  Fragment 1 LUMO   Fragment 2 SOMO-3
--------------------------------------
E_mon(orb) frag1 frag2             -11.918   -12.378 eV
J(AB):                0.003 eV
S(AB):            -0.00011919 Eh
|J(AB,eff)|:            0.002 eV
   
  Fragment 1 LUMO   Fragment 2 SOMO-2
--------------------------------------
E_mon(orb) frag1 frag2             -11.918   -12.249 eV
J(AB):                0.003 eV
S(AB):            -0.00009076 Eh
|J(AB,eff)|:            0.001 eV
   
  Fragment 1 LUMO   Fragment 2 SOMO-1
--------------------------------------
E_mon(orb) frag1 frag2             -11.918   -12.287 eV
J(AB):               -0.003 eV
S(AB):             0.00013105 Eh
|J(AB,eff)|:            0.002 eV
   
  Fragment 1 LUMO   Fragment 2 SOMO 
--------------------------------------
E_mon(orb) frag1 frag2             -11.918   -12.179 eV
J(AB):               -0.001 eV
S(AB):             0.00005413 Eh
|J(AB,eff)|:            0.001 eV
   
  Fragment 1 LUMO   Fragment 2 LUMO 
--------------------------------------
E_mon(orb) frag1 frag2             -11.918   -11.917 eV
J(AB):                0.000 eV
S(AB):            -0.00000439 Eh
|J(AB,eff)|:            0.000 eV
   
  Fragment 1 LUMO   Fragment 2 LUMO+1
--------------------------------------
E_mon(orb) frag1 frag2             -11.918   -11.887 eV
J(AB):               -0.003 eV
S(AB):             0.00010592 Eh
|J(AB,eff)|:            0.002 eV
   
  Fragment 1 LUMO+1  Fragment 2 SOMO-3
--------------------------------------
E_mon(orb) frag1 frag2             -11.897   -12.378 eV
J(AB):               -0.004 eV
S(AB):             0.00013930 Eh
|J(AB,eff)|:            0.002 eV
   
  Fragment 1 LUMO+1  Fragment 2 SOMO-2
--------------------------------------
E_mon(orb) frag1 frag2             -11.897   -12.249 eV
J(AB):               -0.006 eV
S(AB):             0.00023094 Eh
|J(AB,eff)|:            0.004 eV
   
  Fragment 1 LUMO+1  Fragment 2 SOMO-1
--------------------------------------
E_mon(orb) frag1 frag2             -11.897   -12.287 eV
J(AB):                0.004 eV
S(AB):            -0.00013849 Eh
|J(AB,eff)|:            0.002 eV
   
  Fragment 1 LUMO+1  Fragment 2 SOMO 
--------------------------------------
E_mon(orb) frag1 frag2             -11.897   -12.179 eV
J(AB):               -0.001 eV
S(AB):             0.00004563 Eh
|J(AB,eff)|:            0.001 eV
   
  Fragment 1 LUMO+1  Fragment 2 LUMO 
--------------------------------------
E_mon(orb) frag1 frag2             -11.897   -11.917 eV
J(AB):               -0.003 eV
S(AB):             0.00012217 Eh
|J(AB,eff)|:            0.002 eV
   
  Fragment 1 LUMO+1  Fragment 2 LUMO+1
--------------------------------------
E_mon(orb) frag1 frag2             -11.897   -11.887 eV
J(AB):                0.005 eV
S(AB):            -0.00016290 Eh
|J(AB,eff)|:            0.003 eV
   
..............................................................................
:  total |J(AB,eff)| for hole transport (occ. MOs) :               0.010 eV  :
:  total |J(AB,eff)| for charge transport (unocc. MOs) :           0.004 eV  :
:  total |J(AB,eff)| for charge transfer (CT) :                    0.010 eV  :
..............................................................................
  
 Please remember, DIPRO is not available for restart!
   
normal termination of dipro
----------------------------------------------------------
 * finished run on 2025/03/13 at 11:05:44.569     
----------------------------------------------------------
 dipro:
 * wall-time:     0 d,  0 h,  0 min, 17.165 sec
 *  cpu-time:     0 d,  0 h,  1 min,  8.821 sec
 * ratio c/w:     4.009 speedup
Reorganization energy (electron): 0.19622531913305954 eV
Reorganization energy (hole): 0.24787313272495543 eV
Electron Transfer integral J: 0.004 eV
Hole Transfer integral J: 0.01 eV
