      -----------------------------------------------------------      
     |                   =====================                   |     
     |                           x T B                           |     
     |                   =====================                   |     
     |                         S. Grimme                         |     
     |          Mulliken Center for Theoretical Chemistry        |     
     |                    University of Bonn                     |     
      -----------------------------------------------------------      

   * xtb version 6.6.1 (8d0f1dd) compiled by 'runner@Mac-1690902418499.local' on 2023-08-01

   xtb is free software: you can redistribute it and/or modify it under
   the terms of the GNU Lesser General Public License as published by
   the Free Software Foundation, either version 3 of the License, or
   (at your option) any later version.
   
   xtb is distributed in the hope that it will be useful,
   but WITHOUT ANY WARRANTY; without even the implied warranty of
   MERCHANTABILITY or FITNESS FOR A PARTICULAR PURPOSE.  See the
   GNU Lesser General Public License for more details.
   
   Cite this work as:
   * C. Bannwarth, E. Caldeweyher, S. Ehlert, A. Hansen, P. Pracht,
     J. Seibert, S. Spicher, S. Grimme, WIREs Comput. Mol. Sci., 2020, 11,
     e01493. DOI: 10.1002/wcms.1493
   
   for GFN2-xTB:
   * C. Bannwarth, S. Ehlert and S. Grimme., J. Chem. Theory Comput., 2019,
     15, 1652-1671. DOI: 10.1021/acs.jctc.8b01176
   for GFN1-xTB:
   * S. Grimme, C. Bannwarth, P. Shushkov, J. Chem. Theory Comput., 2017,
     13, 1989-2009. DOI: 10.1021/acs.jctc.7b00118
   for GFN0-xTB:
   * P. Pracht, E. Caldeweyher, S. Ehlert, S. Grimme, ChemRxiv, 2019, preprint.
     DOI: 10.26434/chemrxiv.8326202.v1
   for GFN-FF:
   * S. Spicher and S. Grimme, Angew. Chem. Int. Ed., 2020, 59, 15665-15673.
     DOI: 10.1002/anie.202004239
   
   for ALPB and GBSA implicit solvation:
   * S. Ehlert, M. Stahn, S. Spicher, S. Grimme, J. Chem. Theory Comput.,
     2021, 17, 4250-4261. DOI: 10.1021/acs.jctc.1c00471
   
   for DFT-D4:
   * E. Caldeweyher, C. Bannwarth and S. Grimme, J. Chem. Phys., 2017,
     147, 034112. DOI: 10.1063/1.4993215
   * E. Caldeweyher, S. Ehlert, A. Hansen, H. Neugebauer, S. Spicher,
     C. Bannwarth and S. Grimme, J. Chem. Phys., 2019, 150, 154122.
     DOI: 10.1063/1.5090222
   * E. Caldeweyher, J.-M. Mewes, S. Ehlert and S. Grimme, Phys. Chem. Chem. Phys.
     2020, 22, 8499-8512. DOI: 10.1039/D0CP00502A
   
   for sTDA-xTB:
   * S. Grimme and C. Bannwarth, J. Chem. Phys., 2016, 145, 054103.
     DOI: 10.1063/1.4959605
   
   in the mass-spec context:
   * V. Asgeirsson, C. Bauer and S. Grimme, Chem. Sci., 2017, 8, 4879.
     DOI: 10.1039/c7sc00601b
   * J. Koopman and S. Grimme, ACS Omega 2019, 4, 12, 15120-15133.
     DOI: 10.1021/acsomega.9b02011
   
   for metadynamics refer to:
   * S. Grimme, J. Chem. Theory Comput., 2019, 155, 2847-2862
     DOI: 10.1021/acs.jctc.9b00143
   
   for SPH calculations refer to:
   * S. Spicher and S. Grimme, J. Chem. Theory Comput., 2021, 17, 1701-1714
     DOI: 10.1021/acs.jctc.0c01306
   
   with help from (in alphabetical order)
   P. Atkinson, C. Bannwarth, F. Bohle, G. Brandenburg, E. Caldeweyher
   M. Checinski, S. Dohm, S. Ehlert, S. Ehrlich, I. Gerasimov, C. Hölzer
   A. Katbashev, J. Koopman, C. Lavigne, S. Lehtola, F. März, M. Müller,
   F. Musil, H. Neugebauer, J. Pisarek, C. Plett, P. Pracht, F. Pultar,
   J. Seibert, P. Shushkov, S. Spicher, M. Stahn, M. Steiner, T. Strunk,
   J. Stückrath, T. Rose, and J. Unsleber
   
 * started run on 2024/11/14 at 11:21:52.009     

           -------------------------------------------------
          |                Calculation Setup                |
           -------------------------------------------------

          program call               : xtb opt_anion_Nitro4.mol --gfn2 --sp --chrg -1 --uhf 0
          coordinate file            : opt_anion_Nitro4.mol
          omp threads                :                     8

   ID    Z sym.   atoms
    1    6 C      1-35, 39, 40, 42-45
    2   35 Br     36
    3    7 N      37, 46, 48
    4   14 Si     38
    5    8 O      41, 47, 49
    6    1 H      50-90
########################################################################
[WARNING] Please study the warnings concerning your input carefully
-1- prog_main: Charge in sdf/mol input was overwritten
########################################################################

           -------------------------------------------------
          |                 G F N 2 - x T B                 |
           -------------------------------------------------

        Reference                      10.1021/acs.jctc.8b01176
      * Hamiltonian:
        H0-scaling (s, p, d)           1.850000    2.230000    2.230000
        zeta-weighting                 0.500000
      * Dispersion:
        s8                             2.700000
        a1                             0.520000
        a2                             5.000000
        s9                             5.000000
      * Repulsion:
        kExp                           1.500000    1.000000
        rExp                           1.000000
      * Coulomb:
        alpha                          2.000000
        third order                    shell-resolved
        anisotropic                    true
        a3                             3.000000
        a5                             4.000000
        cn-shift                       1.200000
        cn-exp                         4.000000
        max-rad                        5.000000

q/qsh data taken from xtbrestart
CAMM data taken from xtbrestart

          ...................................................
          :                      SETUP                      :
          :.................................................:
          :  # basis functions                 249          :
          :  # atomic orbitals                 247          :
          :  # shells                          141          :
          :  # electrons                       250          :
          :  max. iterations                   250          :
          :  Hamiltonian                  GFN2-xTB          :
          :  restarted?                       true          :
          :  GBSA solvation                  false          :
          :  PC potential                    false          :
          :  electronic temp.          300.0000000     K    :
          :  accuracy                    1.0000000          :
          :  -> integral cutoff          0.2500000E+02      :
          :  -> integral neglect         0.1000000E-07      :
          :  -> SCF convergence          0.1000000E-05 Eh   :
          :  -> wf. convergence          0.1000000E-03 e    :
          :  Broyden damping             0.4000000          :
          ...................................................

 iter      E             dE          RMSdq      gap      omega  full diag
   1   -137.7186052 -0.137719E+03  0.117E+00    1.81       0.0  T
   2   -137.6252790  0.933261E-01  0.993E-01    0.05       1.0  T
   3   -137.7204418 -0.951627E-01  0.729E-01    1.50       1.0  T
   4   -137.7496287 -0.291869E-01  0.420E-01    0.76       1.0  T
   5   -137.7547256 -0.509691E-02  0.286E-01    0.36       1.0  T
   6   -137.5855121  0.169213E+00  0.952E-01    0.06       1.0  T
   7   -137.7591991 -0.173687E+00  0.226E-01    0.26       1.0  T
   8   -137.7611701 -0.197101E-02  0.183E-01    0.20       1.0  T
   9   -137.7610165  0.153612E-03  0.178E-01    0.21       1.0  T
  10   -137.7637907 -0.277427E-02  0.124E-01    0.16       1.0  T
  11   -137.7628761  0.914595E-03  0.138E-01    0.08       1.0  T
  12   -137.7652986 -0.242252E-02  0.832E-02    0.09       1.0  T
  13   -137.7660099 -0.711225E-03  0.561E-02    0.10       1.0  T
  14   -137.7665767 -0.566821E-03  0.151E-02    0.11       1.0  T
  15   -137.7666019 -0.252391E-04  0.920E-03    0.11       1.1  T
  16   -137.7666171 -0.151953E-04  0.150E-03    0.11       7.0  T
  17   -137.7666131  0.407578E-05  0.469E-03    0.12       2.2  T
  18   -137.7666171 -0.402050E-05  0.126E-03    0.11       8.4  T
  19   -137.7666173 -0.250944E-06  0.319E-04    0.11      33.0  T
  20   -137.7666173 -0.445675E-08  0.144E-04    0.11      73.1  T

   *** convergence criteria satisfied after 20 iterations ***

         #    Occupation            Energy/Eh            Energy/eV
      -------------------------------------------------------------
         1        2.0000           -0.7362921             -20.0355
       ...           ...                  ...                  ...
       119        2.0000           -0.2728027              -7.4233
       120        2.0000           -0.2621881              -7.1345
       121        2.0000           -0.2589621              -7.0467
       122        2.0000           -0.2358689              -6.4183
       123        2.0000           -0.2327049              -6.3322
       124        2.0000           -0.2267955              -6.1714
       125        1.8025           -0.1699328              -4.6241 (HOMO)
       126        0.1969           -0.1657281              -4.5097 (LUMO)
       127        0.0007           -0.1602459              -4.3605
       128                         -0.1467272              -3.9927
       129                         -0.1337482              -3.6395
       130                         -0.1107852              -3.0146
       ...                                ...                  ...
       247                          0.8506913              23.1485
      -------------------------------------------------------------
                  HL-Gap            0.0042046 Eh            0.1144 eV
             Fermi-level           -0.1678323 Eh           -4.5669 eV

 SCC (total)                   0 d,  0 h,  0 min,  0.878 sec
 SCC setup                      ...        0 min,  0.000 sec (  0.023%)
 Dispersion                     ...        0 min,  0.001 sec (  0.085%)
 classical contributions        ...        0 min,  0.000 sec (  0.021%)
 integral evaluation            ...        0 min,  0.004 sec (  0.443%)
 iterations                     ...        0 min,  0.850 sec ( 96.744%)
 molecular gradient             ...        0 min,  0.023 sec (  2.614%)
 printout                       ...        0 min,  0.001 sec (  0.070%)

         :::::::::::::::::::::::::::::::::::::::::::::::::::::
         ::                     SUMMARY                     ::
         :::::::::::::::::::::::::::::::::::::::::::::::::::::
         :: total energy            -135.714250810102 Eh    ::
         :: gradient norm              0.000521962066 Eh/a0 ::
         :: HOMO-LUMO gap              0.114413896192 eV    ::
         ::.................................................::
         :: SCC energy              -137.766617329347 Eh    ::
         :: -> isotropic ES            0.222981755866 Eh    ::
         :: -> anisotropic ES          0.015062088937 Eh    ::
         :: -> anisotropic XC          0.039250367933 Eh    ::
         :: -> dispersion             -0.136240303211 Eh    ::
         :: repulsion energy           2.048298546515 Eh    ::
         :: add. restraining           0.000000000000 Eh    ::
         :: total charge              -1.000003961909 e     ::
         :::::::::::::::::::::::::::::::::::::::::::::::::::::

           -------------------------------------------------
          |                Property Printout                |
           -------------------------------------------------

    * Orbital Energies and Occupations

         #    Occupation            Energy/Eh            Energy/eV
      -------------------------------------------------------------
         1        2.0000           -0.7362921             -20.0355
       ...           ...                  ...                  ...
       113        2.0000           -0.3077342              -8.3739
       114        2.0000           -0.3055328              -8.3140
       115        2.0000           -0.2984571              -8.1214
       116        2.0000           -0.2980387              -8.1100
       117        2.0000           -0.2885874              -7.8529
       118        2.0000           -0.2819752              -7.6729
       119        2.0000           -0.2728027              -7.4233
       120        2.0000           -0.2621881              -7.1345
       121        2.0000           -0.2589621              -7.0467
       122        2.0000           -0.2358689              -6.4183
       123        2.0000           -0.2327049              -6.3322
       124        2.0000           -0.2267955              -6.1714
       125        1.8025           -0.1699328              -4.6241 (HOMO)
       126        0.1969           -0.1657281              -4.5097 (LUMO)
       127        0.0007           -0.1602459              -4.3605
       128                         -0.1467272              -3.9927
       129                         -0.1337482              -3.6395
       130                         -0.1107852              -3.0146
       131                         -0.1024298              -2.7873
       132                         -0.1004092              -2.7323
       133                         -0.0937614              -2.5514
       134                         -0.0897432              -2.4420
       135                         -0.0891633              -2.4263
       136                         -0.0877351              -2.3874
       ...                                ...                  ...
       247                          0.8506913              23.1485
      -------------------------------------------------------------
                  HL-Gap            0.0042046 Eh            0.1144 eV
             Fermi-level           -0.1678323 Eh           -4.5669 eV

     #   Z          covCN         q      C6AA      α(0)
     1   6 C        2.927    -0.037    28.928     8.820
     2   6 C        2.989    -0.042    29.028     8.838
     3   6 C        2.918     0.074    26.344     8.417
     4   6 C        3.002    -0.039    28.960     8.828
     5   6 C        2.987     0.014    27.696     8.633
     6   6 C        2.988     0.013    27.726     8.637
     7   6 C        2.979     0.017    27.615     8.620
     8   6 C        2.986     0.014    27.697     8.633
     9   6 C        2.918    -0.027    28.667     8.780
    10   6 C        2.914    -0.034    28.842     8.807
    11   6 C        3.060    -0.018    28.389     8.738
    12   6 C        3.083     0.045    26.907     8.504
    13   6 C        2.907    -0.056    29.399     8.891
    14   6 C        2.928    -0.044    29.084     8.844
    15   6 C        3.062    -0.023    28.524     8.758
    16   6 C        3.083     0.038    27.049     8.526
    17   6 C        2.980     0.001    27.990     8.678
    18   6 C        2.985    -0.004    28.107     8.696
    19   6 C        2.927    -0.051    29.262     8.871
    20   6 C        2.906    -0.059    29.474     8.902
    21   6 C        2.981     0.002    27.982     8.677
    22   6 C        2.987     0.004    27.937     8.670
    23   6 C        2.913    -0.038    28.954     8.823
    24   6 C        2.917    -0.046    29.143     8.853
    25   6 C        2.968     0.014    27.689     8.631
    26   6 C        2.919    -0.043    29.067     8.841
    27   6 C        2.918    -0.040    29.003     8.831
    28   6 C        2.924    -0.049    29.207     8.863
    29   6 C        2.901     0.048    26.926     8.508
    30   6 C        3.889     0.054    19.618     6.297
    31   6 C        3.891     0.055    19.601     6.294
    32   6 C        3.760    -0.101    22.482     6.760
    33   6 C        3.758    -0.102    22.494     6.762
    34   6 C        3.758    -0.102    22.491     6.761
    35   6 C        3.760    -0.102    22.488     6.760
    36  35 Br       1.080    -0.202   190.672    22.264
    37   7 N        2.795    -0.064    22.475     7.041
    38  14 Si       3.506     0.482   100.810    19.417
    39   6 C        3.699    -0.169    23.972     7.002
    40   6 C        3.713     0.097    19.096     6.244
    41   8 O        1.702    -0.324    19.422     5.950
    42   6 C        3.648    -0.209    25.019     7.186
    43   6 C        3.648    -0.207    24.983     7.181
    44   6 C        3.648    -0.207    24.975     7.180
    45   6 C        3.642     0.161    18.327     6.155
    46   7 N        2.799     0.100    19.524     6.562
    47   8 O        0.922    -0.577    25.528     6.776
    48   7 N        2.800     0.095    19.608     6.577
    49   8 O        0.922    -0.581    25.608     6.786
    50   1 H        0.925     0.032     2.554     2.499
    51   1 H        0.925     0.024     2.674     2.557
    52   1 H        0.925     0.057     2.237     2.339
    53   1 H        0.925     0.039     2.463     2.454
    54   1 H        0.925     0.063     2.159     2.298
    55   1 H        0.925     0.020     2.729     2.583
    56   1 H        0.925     0.038     2.471     2.458
    57   1 H        0.925     0.063     2.160     2.299
    58   1 H        0.925     0.021     2.725     2.581
    59   1 H        0.925     0.034     2.536     2.490
    60   1 H        0.925     0.024     2.673     2.557
    61   1 H        0.925     0.058     2.220     2.330
    62   1 H        0.926     0.076     2.025     2.225
    63   1 H        0.925     0.015     2.817     2.625
    64   1 H        0.926     0.080     1.977     2.199
    65   1 H        0.925     0.014     2.825     2.628
    66   1 H        0.925     0.007     2.946     2.684
    67   1 H        0.925     0.010     2.884     2.656
    68   1 H        0.926     0.004     2.983     2.701
    69   1 H        0.923     0.020     2.737     2.587
    70   1 H        0.923     0.020     2.727     2.582
    71   1 H        0.923     0.001     3.045     2.729
    72   1 H        0.923    -0.001     3.082     2.745
    73   1 H        0.925     0.046     2.365     2.405
    74   1 H        0.925     0.039     2.458     2.452
    75   1 H        0.925     0.033     2.541     2.493
    76   1 H        0.925     0.038     2.470     2.458
    77   1 H        0.925     0.033     2.547     2.496
    78   1 H        0.925     0.033     2.547     2.496
    79   1 H        0.925     0.027     2.629     2.535
    80   1 H        0.925     0.033     2.538     2.491
    81   1 H        0.925     0.031     2.575     2.510
    82   1 H        0.925     0.034     2.531     2.488
    83   1 H        0.925     0.035     2.517     2.481
    84   1 H        0.926     0.010     2.897     2.662
    85   1 H        0.925     0.016     2.799     2.616
    86   1 H        0.925     0.017     2.787     2.611
    87   1 H        0.925     0.017     2.776     2.605
    88   1 H        0.925     0.025     2.661     2.551
    89   1 H        0.926     0.035     2.513     2.479
    90   1 H        0.926     0.047     2.364     2.404

 Mol. C6AA /au·bohr⁶  :     107434.342275
 Mol. C8AA /au·bohr⁸  :    2826802.413768
 Mol. α(0) /au        :        518.113228


Wiberg/Mayer (AO) data.
largest (>0.10) Wiberg bond orders for each atom

 ---------------------------------------------------------------------------
     #   Z sym  total        # sym  WBO       # sym  WBO       # sym  WBO
 ---------------------------------------------------------------------------
     1   6 C    3.974 --     2 C    1.501     6 C    1.319    88 H    0.967
                             4 C    0.101
     2   6 C    3.958 --     1 C    1.501     3 C    1.330    89 H    0.970
     3   6 C    3.920 --     4 C    1.495     2 C    1.330    36 Br   0.950
     4   6 C    3.973 --     3 C    1.495     5 C    1.293    90 H    0.961
                             1 C    0.101
     5   6 C    3.969 --     4 C    1.293     6 C    1.260     7 C    1.195
     6   6 C    3.977 --     1 C    1.319     5 C    1.260    10 C    1.216
     7   6 C    3.955 --     8 C    1.279    11 C    1.245     5 C    1.195
     8   6 C    3.978 --    14 C    1.305     7 C    1.279     9 C    1.213
     9   6 C    3.978 --    10 C    1.630     8 C    1.213    86 H    0.968
    10   6 C    3.979 --     9 C    1.630     6 C    1.216    87 H    0.967
    11   6 C    3.953 --    12 C    1.278     7 C    1.245    15 C    1.190
    12   6 C    3.940 --    13 C    1.324    11 C    1.278    37 N    1.124
    13   6 C    3.945 --    14 C    1.487    12 C    1.324    84 H    0.966
    14   6 C    3.930 --    13 C    1.487     8 C    1.305    85 H    0.969
    15   6 C    3.956 --    16 C    1.277    17 C    1.247    11 C    1.190
    16   6 C    3.929 --    20 C    1.326    15 C    1.277    37 N    1.116
    17   6 C    3.969 --    18 C    1.290    15 C    1.247    21 C    1.180
    18   6 C    3.983 --    19 C    1.295    17 C    1.290    24 C    1.214
    19   6 C    3.921 --    20 C    1.492    18 C    1.295    67 H    0.970
    20   6 C    3.956 --    19 C    1.492    16 C    1.326    68 H    0.966
    21   6 C    3.979 --    28 C    1.331    22 C    1.257    17 C    1.180
    22   6 C    3.977 --    27 C    1.297    21 C    1.257    23 C    1.228
    23   6 C    3.976 --    24 C    1.618    22 C    1.228    65 H    0.968
    24   6 C    3.960 --    23 C    1.618    18 C    1.214    66 H    0.968
    25   6 C    3.980 --    28 C    1.423    26 C    1.279    29 C    1.103
    26   6 C    3.967 --    27 C    1.544    25 C    1.279    62 H    0.951
    27   6 C    3.981 --    26 C    1.544    22 C    1.297    63 H    0.968
    28   6 C    3.978 --    25 C    1.423    21 C    1.331    64 H    0.945
    29   6 C    3.947 --    46 N    1.258    48 N    1.248    25 C    1.103
                            47 O    0.133    49 O    0.128
    30   6 C    3.978 --    33 C    0.998    32 C    0.987    31 C    0.962
                            46 N    0.933
    31   6 C    3.979 --    34 C    0.998    35 C    0.985    30 C    0.962
                            48 N    0.934
    32   6 C    3.991 --    30 C    0.987    60 H    0.985    59 H    0.983
                            61 H    0.979
    33   6 C    3.993 --    30 C    0.998    58 H    0.986    56 H    0.983
                            57 H    0.979
    34   6 C    3.993 --    31 C    0.998    55 H    0.986    53 H    0.982
                            54 H    0.979
    35   6 C    3.990 --    31 C    0.985    51 H    0.985    50 H    0.985
                            52 H    0.981
    36  35 Br   1.063 --     3 C    0.950
    37   7 N    3.514 --    12 C    1.124    16 C    1.116    45 C    1.023
    38  14 Si   3.617 --    44 C    0.901    43 C    0.898    42 C    0.890
                            39 C    0.855
    39   6 C    3.973 --    40 C    1.021    74 H    0.982    73 H    0.978
                            38 Si   0.855
    40   6 C    3.952 --    39 C    1.021    41 O    0.978    71 H    0.971
                            72 H    0.970
    41   8 O    2.067 --    40 C    0.978    45 C    0.965
    42   6 C    3.979 --    79 H    0.992    80 H    0.989    78 H    0.989
                            38 Si   0.890
    43   6 C    3.980 --    81 H    0.988    82 H    0.988    83 H    0.987
                            38 Si   0.898
    44   6 C    3.981 --    77 H    0.988    75 H    0.987    76 H    0.986
                            38 Si   0.901
    45   6 C    3.957 --    37 N    1.023    41 O    0.965    69 H    0.956
                            70 H    0.955
    46   7 N    3.577 --    29 C    1.258    47 O    1.120    30 C    0.933
                            48 N    0.117
    47   8 O    1.484 --    46 N    1.120    29 C    0.133
    48   7 N    3.553 --    29 C    1.248    49 O    1.114    31 C    0.934
                            46 N    0.117
    49   8 O    1.447 --    48 N    1.114    29 C    0.128
    50   1 H    0.999 --    35 C    0.985
    51   1 H    0.999 --    35 C    0.985
    52   1 H    0.996 --    35 C    0.981
    53   1 H    0.998 --    34 C    0.982
    54   1 H    0.995 --    34 C    0.979
    55   1 H    0.999 --    34 C    0.986
    56   1 H    0.998 --    33 C    0.983
    57   1 H    0.995 --    33 C    0.979
    58   1 H    0.999 --    33 C    0.986
    59   1 H    0.999 --    32 C    0.983
    60   1 H    0.999 --    32 C    0.985
    61   1 H    0.996 --    32 C    0.979
    62   1 H    0.993 --    26 C    0.951
    63   1 H    0.999 --    27 C    0.968
    64   1 H    0.993 --    28 C    0.945
    65   1 H    0.998 --    23 C    0.968
    66   1 H    0.999 --    24 C    0.968
    67   1 H    0.999 --    19 C    0.970
    68   1 H    0.999 --    20 C    0.966
    69   1 H    0.999 --    45 C    0.956
Note: The following floating-point exceptions are signalling: IEEE_UNDERFLOW_FLAG
normal termination of xtb
    70   1 H    0.998 --    45 C    0.955
    71   1 H    1.000 --    40 C    0.971
    72   1 H    1.000 --    40 C    0.970
    73   1 H    0.998 --    39 C    0.978
    74   1 H    0.998 --    39 C    0.982
    75   1 H    0.999 --    44 C    0.987
    76   1 H    0.999 --    44 C    0.986
    77   1 H    0.999 --    44 C    0.988
    78   1 H    0.999 --    42 C    0.989
    79   1 H    0.999 --    42 C    0.992
    80   1 H    0.999 --    42 C    0.989
    81   1 H    0.999 --    43 C    0.988
    82   1 H    0.999 --    43 C    0.988
    83   1 H    0.999 --    43 C    0.987
    84   1 H    0.998 --    13 C    0.966
    85   1 H    0.999 --    14 C    0.969
    86   1 H    0.999 --     9 C    0.968
    87   1 H    0.998 --    10 C    0.967
    88   1 H    0.999 --     1 C    0.967
    89   1 H    0.998 --     2 C    0.970
    90   1 H    0.997 --     4 C    0.961
 ---------------------------------------------------------------------------

Topologies differ in bond orders
Writing corrected topology to xtbtopo.mol

molecular dipole:
                 x           y           z       tot (Debye)
 q only:        5.254       1.330       5.648
   full:        5.479       2.416       5.118      20.021
molecular quadrupole (traceless):
                xx          xy          yy          xz          yz          zz
 q only:        2.168      -8.740      16.149     -48.186      -6.228     -18.318
  q+dip:       12.892     -20.354      13.459     -44.544      -3.698     -26.351
   full:        9.735     -18.896       9.177     -48.824      -6.703     -18.912


           -------------------------------------------------
          | TOTAL ENERGY             -135.714250810102 Eh   |
          | GRADIENT NORM               0.000521962066 Eh/α |
          | HOMO-LUMO GAP               0.114413896192 eV   |
           -------------------------------------------------
########################################################################
[WARNING] Runtime exception occurred
-2- restart_readRestart: Multiplicity missmatch in restart file.
-1- restart_readRestart: Number of electron missmatch in restart file.
########################################################################

------------------------------------------------------------------------
 * finished run on 2024/11/14 at 11:21:52.899     
------------------------------------------------------------------------
 total:
 * wall-time:     0 d,  0 h,  0 min,  0.889 sec
 *  cpu-time:     0 d,  0 h,  0 min,  2.933 sec
 * ratio c/w:     3.298 speedup
 SCF:
 * wall-time:     0 d,  0 h,  0 min,  0.879 sec
 *  cpu-time:     0 d,  0 h,  0 min,  2.912 sec
 * ratio c/w:     3.314 speedup

