      -----------------------------------------------------------      
     |                   =====================                   |     
     |                           x T B                           |     
     |                   =====================                   |     
     |                         S. Grimme                         |     
     |          Mulliken Center for Theoretical Chemistry        |     
     |                    University of Bonn                     |     
      -----------------------------------------------------------      

   * xtb version 6.6.1 (8d0f1dd) compiled by 'runner@Mac-1690902418499.local' on 2023-08-01

   xtb is free software: you can redistribute it and/or modify it under
   the terms of the GNU Lesser General Public License as published by
   the Free Software Foundation, either version 3 of the License, or
   (at your option) any later version.
   
   xtb is distributed in the hope that it will be useful,
   but WITHOUT ANY WARRANTY; without even the implied warranty of
   MERCHANTABILITY or FITNESS FOR A PARTICULAR PURPOSE.  See the
   GNU Lesser General Public License for more details.
   
   Cite this work as:
   * C. Bannwarth, E. Caldeweyher, S. Ehlert, A. Hansen, P. Pracht,
     J. Seibert, S. Spicher, S. Grimme, WIREs Comput. Mol. Sci., 2020, 11,
     e01493. DOI: 10.1002/wcms.1493
   
   for GFN2-xTB:
   * C. Bannwarth, S. Ehlert and S. Grimme., J. Chem. Theory Comput., 2019,
     15, 1652-1671. DOI: 10.1021/acs.jctc.8b01176
   for GFN1-xTB:
   * S. Grimme, C. Bannwarth, P. Shushkov, J. Chem. Theory Comput., 2017,
     13, 1989-2009. DOI: 10.1021/acs.jctc.7b00118
   for GFN0-xTB:
   * P. Pracht, E. Caldeweyher, S. Ehlert, S. Grimme, ChemRxiv, 2019, preprint.
     DOI: 10.26434/chemrxiv.8326202.v1
   for GFN-FF:
   * S. Spicher and S. Grimme, Angew. Chem. Int. Ed., 2020, 59, 15665-15673.
     DOI: 10.1002/anie.202004239
   
   for ALPB and GBSA implicit solvation:
   * S. Ehlert, M. Stahn, S. Spicher, S. Grimme, J. Chem. Theory Comput.,
     2021, 17, 4250-4261. DOI: 10.1021/acs.jctc.1c00471
   
   for DFT-D4:
   * E. Caldeweyher, C. Bannwarth and S. Grimme, J. Chem. Phys., 2017,
     147, 034112. DOI: 10.1063/1.4993215
   * E. Caldeweyher, S. Ehlert, A. Hansen, H. Neugebauer, S. Spicher,
     C. Bannwarth and S. Grimme, J. Chem. Phys., 2019, 150, 154122.
     DOI: 10.1063/1.5090222
   * E. Caldeweyher, J.-M. Mewes, S. Ehlert and S. Grimme, Phys. Chem. Chem. Phys.
     2020, 22, 8499-8512. DOI: 10.1039/D0CP00502A
   
   for sTDA-xTB:
   * S. Grimme and C. Bannwarth, J. Chem. Phys., 2016, 145, 054103.
     DOI: 10.1063/1.4959605
   
   in the mass-spec context:
   * V. Asgeirsson, C. Bauer and S. Grimme, Chem. Sci., 2017, 8, 4879.
     DOI: 10.1039/c7sc00601b
   * J. Koopman and S. Grimme, ACS Omega 2019, 4, 12, 15120-15133.
     DOI: 10.1021/acsomega.9b02011
   
   for metadynamics refer to:
   * S. Grimme, J. Chem. Theory Comput., 2019, 155, 2847-2862
     DOI: 10.1021/acs.jctc.9b00143
   
   for SPH calculations refer to:
   * S. Spicher and S. Grimme, J. Chem. Theory Comput., 2021, 17, 1701-1714
     DOI: 10.1021/acs.jctc.0c01306
   
   with help from (in alphabetical order)
   P. Atkinson, C. Bannwarth, F. Bohle, G. Brandenburg, E. Caldeweyher
   M. Checinski, S. Dohm, S. Ehlert, S. Ehrlich, I. Gerasimov, C. Hölzer
   A. Katbashev, J. Koopman, C. Lavigne, S. Lehtola, F. März, M. Müller,
   F. Musil, H. Neugebauer, J. Pisarek, C. Plett, P. Pracht, F. Pultar,
   J. Seibert, P. Shushkov, S. Spicher, M. Stahn, M. Steiner, T. Strunk,
   J. Stückrath, T. Rose, and J. Unsleber
   
 * started run on 2024/11/14 at 11:19:58.466     

           -------------------------------------------------
          |                Calculation Setup                |
           -------------------------------------------------

          program call               : xtb Nitro4.mol --opt --gfn2 --chrg -1 --uhf 0 --tight
          coordinate file            : Nitro4.mol
          omp threads                :                     8

   ID    Z sym.   atoms
    1    6 C      1-35, 39, 40, 42-45
    2   35 Br     36
    3    7 N      37, 46, 48
    4   14 Si     38
    5    8 O      41, 47, 49
    6    1 H      50-90
########################################################################
[WARNING] Please study the warnings concerning your input carefully
-1- prog_main_parseArguments: Unknown option '--tight' provided
########################################################################

           -------------------------------------------------
          |                 G F N 2 - x T B                 |
           -------------------------------------------------

        Reference                      10.1021/acs.jctc.8b01176
      * Hamiltonian:
        H0-scaling (s, p, d)           1.850000    2.230000    2.230000
        zeta-weighting                 0.500000
      * Dispersion:
        s8                             2.700000
        a1                             0.520000
        a2                             5.000000
        s9                             5.000000
      * Repulsion:
        kExp                           1.500000    1.000000
        rExp                           1.000000
      * Coulomb:
        alpha                          2.000000
        third order                    shell-resolved
        anisotropic                    true
        a3                             3.000000
        a5                             4.000000
        cn-shift                       1.200000
        cn-exp                         4.000000
        max-rad                        5.000000

q/qsh data taken from xtbrestart
CAMM data taken from xtbrestart

          ...................................................
          :                      SETUP                      :
          :.................................................:
          :  # basis functions                 249          :
          :  # atomic orbitals                 247          :
          :  # shells                          141          :
          :  # electrons                       250          :
          :  max. iterations                   250          :
          :  Hamiltonian                  GFN2-xTB          :
          :  restarted?                       true          :
          :  GBSA solvation                  false          :
          :  PC potential                    false          :
          :  electronic temp.          300.0000000     K    :
          :  accuracy                    1.0000000          :
          :  -> integral cutoff          0.2500000E+02      :
          :  -> integral neglect         0.1000000E-07      :
          :  -> SCF convergence          0.1000000E-05 Eh   :
          :  -> wf. convergence          0.1000000E-03 e    :
          :  Broyden damping             0.4000000          :
          ...................................................

 iter      E             dE          RMSdq      gap      omega  full diag
   1   -137.3135221 -0.137314E+03  0.298E+00    1.51       0.0  T
   2   -136.4356052  0.877917E+00  0.342E+00    0.97       1.0  T
   3   -137.2031418 -0.767537E+00  0.166E+00    0.19       1.0  T
   4   -137.3688126 -0.165671E+00  0.181E+00    0.56       1.0  T
   5   -137.3527111  0.161015E-01  0.130E+00    0.37       1.0  T
   6   -137.3739433 -0.212322E-01  0.116E+00    0.31       1.0  T
   7   -137.3808288 -0.688550E-02  0.104E+00    0.27       1.0  T
   8   -137.3975500 -0.167212E-01  0.787E-01    0.14       1.0  T
   9   -137.3959995  0.155051E-02  0.709E-01    0.20       1.0  T
  10   -137.3779991  0.180003E-01  0.473E-01    0.04       1.0  T
  11   -137.4156005 -0.376014E-01  0.112E-01    0.10       1.0  T
  12   -137.4087484  0.685212E-02  0.360E-01    0.16       1.0  T
  13   -136.7385480  0.670200E+00  0.389E+00    0.12       1.0  T
  14   -137.4150844 -0.676536E+00  0.185E-01    0.09       1.0  T
  15   -137.1713598  0.243725E+00  0.228E+00    0.02       1.0  T
  16   -137.3922288 -0.220869E+00  0.724E-01    0.05       1.0  T
  17   -137.3614619  0.307669E-01  0.107E+00    0.04       1.0  T
  18   -137.3983954 -0.369335E-01  0.612E-01    0.06       1.0  T
  19   -137.4092730 -0.108776E-01  0.378E-01    0.07       1.0  T
  20   -137.4163888 -0.711577E-02  0.448E-02    0.10       1.0  T
  21   -137.4164043 -0.154786E-04  0.604E-02    0.11       1.0  T
  22   -137.4161902  0.214016E-03  0.894E-02    0.11       1.0  T
  23   -137.4162637 -0.734247E-04  0.773E-02    0.11       1.0  T
  24   -137.4164842 -0.220564E-03  0.390E-02    0.11       1.0  T
  25   -137.4165333 -0.490702E-04  0.256E-02    0.10       1.0  T
  26   -137.4165535 -0.202209E-04  0.169E-02    0.10       1.0  T
  27   -137.4165584 -0.483607E-05  0.143E-02    0.10       1.0  T
  28   -137.4165650 -0.662465E-05  0.828E-03    0.10       1.3  T
  29   -137.4165685 -0.348860E-05  0.162E-03    0.10       6.5  T
  30   -137.4165686 -0.109894E-06  0.848E-04    0.10      12.4  T
  31   -137.4165686 -0.379565E-07  0.440E-05    0.10     239.8  T

   *** convergence criteria satisfied after 31 iterations ***

         #    Occupation            Energy/Eh            Energy/eV
      -------------------------------------------------------------
         1        2.0000           -0.7431271             -20.2215
       ...           ...                  ...                  ...
       119        2.0000           -0.2707992              -7.3688
       120        2.0000           -0.2660635              -7.2400
       121        2.0000           -0.2638943              -7.1809
       122        2.0000           -0.2609594              -7.1011
       123        2.0000           -0.2520906              -6.8597
       124        2.0000           -0.2430385              -6.6134
       125        1.7161           -0.1823524              -4.9621 (HOMO)
       126        0.2131           -0.1786228              -4.8606 (LUMO)
       127        0.0708           -0.1775033              -4.8301
       128        0.0000           -0.1683339              -4.5806
       129        0.0000           -0.1655375              -4.5045
       130                         -0.1430021              -3.8913
       ...                                ...                  ...
       247                          1.0326567              28.1000
      -------------------------------------------------------------
                  HL-Gap            0.0037296 Eh            0.1015 eV
             Fermi-level           -0.1806431 Eh           -4.9155 eV

 SCC (total)                   0 d,  0 h,  0 min,  1.590 sec
 SCC setup                      ...        0 min,  0.000 sec (  0.013%)
 Dispersion                     ...        0 min,  0.001 sec (  0.047%)
 classical contributions        ...        0 min,  0.000 sec (  0.010%)
 integral evaluation            ...        0 min,  0.004 sec (  0.247%)
 iterations                     ...        0 min,  1.546 sec ( 97.248%)
 molecular gradient             ...        0 min,  0.036 sec (  2.273%)
 printout                       ...        0 min,  0.003 sec (  0.161%)

         :::::::::::::::::::::::::::::::::::::::::::::::::::::
         ::                     SUMMARY                     ::
         :::::::::::::::::::::::::::::::::::::::::::::::::::::
         :: total energy            -135.525816592214 Eh    ::
         :: gradient norm              0.278336403999 Eh/a0 ::
         :: HOMO-LUMO gap              0.101487675053 eV    ::
         ::.................................................::
         :: SCC energy              -137.416568622234 Eh    ::
         :: -> isotropic ES            0.199577061391 Eh    ::
         :: -> anisotropic ES          0.025702289742 Eh    ::
         :: -> anisotropic XC          0.041404561062 Eh    ::
         :: -> dispersion             -0.136602934738 Eh    ::
         :: repulsion energy           1.886971566842 Eh    ::
         :: add. restraining           0.000000000000 Eh    ::
         :: total charge              -1.000000058042 e     ::
         :::::::::::::::::::::::::::::::::::::::::::::::::::::

      ----------------------------------------------------------- 
     |                   =====================                   |
     |                        A N C O P T                        |
     |                   =====================                   |
     |               Approximate Normal Coordinate               |
     |                Rational Function Optimizer                |
      ----------------------------------------------------------- 

          ...................................................
          :                      SETUP                      :
          :.................................................:
          :   optimization level            normal          :
          :   max. optcycles                   270          :
          :   ANC micro-cycles                  20          :
          :   degrees of freedom               264          :
          :.................................................:
          :   RF solver                   davidson          :
          :   write xtbopt.log                true          :
          :   linear?                        false          :
          :   energy convergence         0.5000000E-05 Eh   :
          :   grad. convergence          0.1000000E-02 Eh/α :
          :   maxmium RF displ.          1.0000000          :
          :   Hlow (freq-cutoff)         0.1000000E-01      :
          :   Hmax (freq-cutoff)         5.0000000          :
          :   S6 in model hess.         20.0000000          :
          ...................................................

generating ANC from model Hessian ...
Using Lindh-Hessian (1995)
 Shifting diagonal of input Hessian by    1.0034317246020490E-002
 Lowest  eigenvalues of input Hessian
    0.010000    0.000000    0.000000    0.000000    0.000000    0.000000
    0.000000    0.010051    0.010068    0.010121    0.010192    0.010242
    0.010603    0.010755    0.010927    0.010980    0.011446    0.011670
 Highest eigenvalues
    2.041671    2.077576    2.100387    2.168990    2.177518    2.538587


........................................................................
.............................. CYCLE    1 ..............................
........................................................................

 iter      E             dE          RMSdq      gap      omega  full diag
   1   -137.4165686 -0.137417E+03  0.143E-04    0.10       0.0  T
   2   -137.4165677  0.894699E-06  0.394E-03    0.10       2.7  T
   3   -137.4165686 -0.895659E-06  0.548E-05    0.10     192.2  T
   4   -137.4165686  0.104885E-08  0.135E-04    0.10      77.8  T
     SCC iter.                  ...        0 min,  0.142 sec
     gradient                   ...        0 min,  0.024 sec
 * total energy  :  -135.5258166 Eh     change        0.1148436E-08 Eh
   gradient norm :     0.2783343 Eh/α   predicted     0.0000000E+00 (-100.00%)
   displ. norm   :     0.4756040 α      lambda       -0.7940984E-01
   maximum displ.:     0.1488254 α      in ANC's #68, #57, #50, ...

........................................................................
.............................. CYCLE    2 ..............................
........................................................................

 iter      E             dE          RMSdq      gap      omega  full diag
   1   -137.4838375 -0.137484E+03  0.719E-01    0.24       0.0  T
   2   -136.6082276  0.875610E+00  0.419E+00    0.84       1.0  T
   3   -137.4701359 -0.861908E+00  0.728E-01    0.23       1.0  T
   4   -137.5097001 -0.395643E-01  0.484E-01    0.14       1.0  T
   5   -137.4993035  0.103966E-01  0.535E-01    0.30       1.0  T
   6   -137.5112550 -0.119515E-01  0.356E-01    0.14       1.0  T
   7   -137.5101486  0.110644E-02  0.475E-01    0.07       1.0  T
   8   -137.4905664  0.195822E-01  0.765E-01    0.05       1.0  T
   9   -137.4810366  0.952979E-02  0.880E-01    0.05       1.0  T
  10   -137.5196586 -0.386220E-01  0.964E-02    0.12       1.0  T
  11   -137.5199861 -0.327506E-03  0.705E-02    0.10       1.0  T
  12   -137.5200122 -0.261038E-04  0.672E-02    0.11       1.0  T
  13   -137.5197106  0.301537E-03  0.997E-02    0.12       1.0  T
  14   -137.5201356 -0.425014E-03  0.462E-02    0.11       1.0  T
  15   -137.5202413 -0.105688E-03  0.101E-02    0.11       1.0  T
  16   -137.5202473 -0.594919E-05  0.352E-03    0.11       3.0  T
  17   -137.5202251  0.221888E-04  0.208E-02    0.10       1.0  T
  18   -137.5202450 -0.198794E-04  0.723E-03    0.11       1.5  T
  19   -137.5202477 -0.270419E-05  0.204E-03    0.11       5.2  T
  20   -137.5202479 -0.215730E-06  0.169E-04    0.11      62.5  T
  21   -137.5202478  0.461642E-07  0.952E-04    0.11      11.1  T
     SCC iter.                  ...        0 min,  1.087 sec
     gradient                   ...        0 min,  0.022 sec
 * total energy  :  -135.5819211 Eh     change       -0.5610449E-01 Eh
   gradient norm :     0.1083219 Eh/α   predicted    -0.4877540E-01 ( -13.06%)
   displ. norm   :     0.5584181 α      lambda       -0.3051095E-01
   maximum displ.:     0.1763169 α      in ANC's #52, #50, #15, ...

........................................................................
.............................. CYCLE    3 ..............................
........................................................................

 iter      E             dE          RMSdq      gap      omega  full diag
   1   -137.5746526 -0.137575E+03  0.437E-01    0.14       0.0  T
   2   -136.7145410  0.860112E+00  0.422E+00    0.42       1.0  T
   3   -137.5498208 -0.835280E+00  0.660E-01    0.22       1.0  T
   4   -137.5752152 -0.253944E-01  0.508E-01    0.21       1.0  T
   5   -137.5762902 -0.107503E-02  0.468E-01    0.20       1.0  T
   6   -137.5818244 -0.553419E-02  0.350E-01    0.17       1.0  T
   7   -137.5872398 -0.541542E-02  0.169E-01    0.13       1.0  T
   8   -137.5888363 -0.159644E-02  0.419E-02    0.11       1.0  T
   9   -137.5889161 -0.798621E-04  0.202E-02    0.11       1.0  T
  10   -137.5888307  0.854113E-04  0.428E-02    0.10       1.0  T
  11   -137.5889376 -0.106887E-03  0.114E-02    0.11       1.0  T
  12   -137.5889355  0.205772E-05  0.121E-02    0.11       1.0  T
  13   -137.5889397 -0.418822E-05  0.853E-03    0.11       1.2  T
  14   -137.5889437 -0.394209E-05  0.184E-03    0.11       5.7  T
  15   -137.5889379  0.578558E-05  0.101E-02    0.11       1.0  T
  16   -137.5889426 -0.474689E-05  0.481E-03    0.11       2.2  T
  17   -137.5889437 -0.104796E-05  0.178E-03    0.11       5.9  T
  18   -137.5889438 -0.121738E-06  0.114E-03    0.11       9.2  T
  19   -137.5889438 -0.441414E-07  0.675E-04    0.11      15.6  T
  20   -137.5889439 -0.177540E-07  0.369E-04    0.11      28.6  T
     SCC iter.                  ...        0 min,  0.711 sec
     gradient                   ...        0 min,  0.022 sec
 * total energy  :  -135.6030089 Eh     change       -0.2108779E-01 Eh
   gradient norm :     0.0301637 Eh/α   predicted    -0.2001265E-01 (  -5.10%)
   displ. norm   :     0.6548871 α      lambda       -0.1323673E-01
   maximum displ.:     0.2441272 α      in ANC's #15, #26, #50, ...

........................................................................
.............................. CYCLE    4 ..............................
........................................................................

 iter      E             dE          RMSdq      gap      omega  full diag
   1   -137.6093899 -0.137609E+03  0.174E-01    0.11       0.0  T
   2   -137.6022723  0.711763E-02  0.356E-01    0.14       1.0  T
   3   -137.5090764  0.931959E-01  0.135E+00    0.02       1.0  T
   4   -137.5956406 -0.865642E-01  0.505E-01    0.26       1.0  T
   5   -137.6099620 -0.143214E-01  0.195E-01    0.12       1.0  T
   6   -137.6025167  0.744525E-02  0.407E-01    0.19       1.0  T
   7   -137.6012893  0.122738E-02  0.424E-01    0.20       1.0  T
   8   -137.6056163 -0.432699E-02  0.327E-01    0.16       1.0  T
   9   -137.6071184 -0.150213E-02  0.280E-01    0.15       1.0  T
  10   -137.6101189 -0.300041E-02  0.145E-01    0.13       1.0  T
  11   -137.6108875 -0.768624E-03  0.785E-02    0.12       1.0  T
  12   -137.6110083 -0.120849E-03  0.606E-02    0.12       1.0  T
  13   -137.6111544 -0.146109E-03  0.287E-02    0.11       1.0  T
  14   -137.6111971 -0.426859E-04  0.151E-03    0.11       7.0  T
  15   -137.6111972 -0.107873E-06  0.334E-04    0.11      31.6  T
  16   -137.6111971  0.145501E-06  0.174E-03    0.11       6.1  T
  17   -137.6111970  0.114712E-06  0.226E-03    0.11       4.7  T
  18   -137.6111970 -0.588263E-07  0.198E-03    0.11       5.3  T
  19   -137.6111972 -0.201657E-06  0.295E-04    0.11      35.8  T
     SCC iter.                  ...        0 min,  0.934 sec
     gradient                   ...        0 min,  0.021 sec
 * total energy  :  -135.6134563 Eh     change       -0.1044739E-01 Eh
   gradient norm :     0.0205530 Eh/α   predicted    -0.9456902E-02 (  -9.48%)
   displ. norm   :     0.7187627 α      lambda       -0.9025340E-02
   maximum displ.:     0.3036820 α      in ANC's #15, #26, #16, ...

........................................................................
.............................. CYCLE    5 ..............................
........................................................................

 iter      E             dE          RMSdq      gap      omega  full diag
   1   -137.6274174 -0.137627E+03  0.169E-01    0.12       0.0  T
   2   -136.8723043  0.755113E+00  0.395E+00    0.14       1.0  T
   3   -137.6170872 -0.744783E+00  0.430E-01    0.21       1.0  T
   4   -137.6223482 -0.526105E-02  0.328E-01    0.17       1.0  T
   5   -137.6248400 -0.249175E-02  0.261E-01    0.15       1.0  T
   6   -137.6215400  0.329998E-02  0.339E-01    0.17       1.0  T
   7   -137.6253110 -0.377105E-02  0.234E-01    0.15       1.0  T
   8   -137.6260971 -0.786077E-03  0.200E-01    0.14       1.0  T
   9   -137.6274967 -0.139960E-02  0.119E-01    0.13       1.0  T
  10   -137.6280023 -0.505581E-03  0.692E-02    0.12       1.0  T
  11   -137.6281846 -0.182309E-03  0.372E-02    0.12       1.0  T
  12   -137.6282489 -0.643004E-04  0.132E-02    0.11       1.0  T
  13   -137.6282561 -0.717241E-05  0.617E-03    0.11       1.7  T
  14   -137.6282580 -0.188922E-05  0.193E-03    0.11       5.5  T
  15   -137.6282579  0.759501E-07  0.229E-03    0.11       4.6  T
  16   -137.6282579  0.988175E-08  0.232E-03    0.11       4.6  T
  17   -137.6282581 -0.180994E-06  0.141E-03    0.11       7.5  T
  18   -137.6282581 -0.685878E-07  0.848E-04    0.11      12.4  T
  19   -137.6282582 -0.202450E-07  0.590E-04    0.11      17.9  T
     SCC iter.                  ...        0 min,  0.730 sec
     gradient                   ...        0 min,  0.022 sec
 * total energy  :  -135.6208094 Eh     change       -0.7353127E-02 Eh
   gradient norm :     0.0164629 Eh/α   predicted    -0.6844008E-02 (  -6.92%)
   displ. norm   :     0.7472776 α      lambda       -0.6536806E-02
   maximum displ.:     0.3294442 α      in ANC's #15, #10, #26, ...

........................................................................
.............................. CYCLE    6 ..............................
........................................................................

 iter      E             dE          RMSdq      gap      omega  full diag
   1   -137.6403272 -0.137640E+03  0.155E-01    0.13       0.0  T
   2   -136.7891683  0.851159E+00  0.420E+00    0.26       1.0  T
   3   -137.6377331 -0.848565E+00  0.267E-01    0.09       1.0  T
   4   -137.6387681 -0.103504E-02  0.222E-01    0.09       1.0  T
   5   -137.6402923 -0.152415E-02  0.141E-01    0.10       1.0  T
   6   -137.6410591 -0.766809E-03  0.823E-02    0.10       1.0  T
   7   -137.6412873 -0.228254E-03  0.528E-02    0.11       1.0  T
   8   -137.6414240 -0.136622E-03  0.177E-02    0.11       1.0  T
   9   -137.6414279 -0.390436E-05  0.157E-02    0.12       1.0  T
  10   -137.6414103  0.176114E-04  0.235E-02    0.12       1.0  T
  11   -137.6414214 -0.111228E-04  0.189E-02    0.12       1.0  T
  12   -137.6414282 -0.682117E-05  0.153E-02    0.12       1.0  T
  13   -137.6414354 -0.723756E-05  0.100E-02    0.12       1.1  T
  14   -137.6414399 -0.450193E-05  0.455E-03    0.11       2.3  T
  15   -137.6414408 -0.816901E-06  0.242E-03    0.11       4.4  T
  16   -137.6414410 -0.258499E-06  0.108E-03    0.11       9.7  T
  17   -137.6414411 -0.556368E-07  0.420E-04    0.11      25.1  T
  18   -137.6414411 -0.841118E-08  0.146E-04    0.11      72.1  T
     SCC iter.                  ...        0 min,  0.983 sec
     gradient                   ...        0 min,  0.023 sec
 * total energy  :  -135.6263139 Eh     change       -0.5504473E-02 Eh
   gradient norm :     0.0130394 Eh/α   predicted    -0.5093557E-02 (  -7.47%)
   displ. norm   :     0.7895112 α      lambda       -0.5384728E-02
   maximum displ.:     0.3282722 α      in ANC's #15, #5, #10, ...

........................................................................
.............................. CYCLE    7 ..............................
........................................................................

 iter      E             dE          RMSdq      gap      omega  full diag
   1   -137.6498087 -0.137650E+03  0.236E-01    0.16       0.0  T
   2   -136.7600925  0.889716E+00  0.421E+00    0.58       1.0  T
   3   -137.5152703 -0.755178E+00  0.163E+00    0.01       1.0  T
   4   -137.5043003  0.109700E-01  0.165E+00    0.01       1.0  T
   5   -137.6437908 -0.139490E+00  0.438E-01    0.23       1.0  T
   6   -137.6412419  0.254882E-02  0.465E-01    0.24       1.0  T
   7   -137.6431006 -0.185869E-02  0.447E-01    0.23       1.0  T
   8   -137.6442762 -0.117555E-02  0.415E-01    0.22       1.0  T
   9   -137.6512835 -0.700731E-02  0.222E-01    0.15       1.0  T
  10   -137.6538524 -0.256892E-02  0.289E-02    0.12       1.0  T
  11   -137.6538446  0.784159E-05  0.258E-02    0.11       1.0  T
  12   -137.6538794 -0.347949E-04  0.123E-02    0.11       1.0  T
  13   -137.6537098  0.169624E-03  0.574E-02    0.11       1.0  T
  14   -137.6538665 -0.156727E-03  0.196E-02    0.11       1.0  T
  15   -137.6538833 -0.167762E-04  0.880E-03    0.12       1.2  T
  16   -137.6538863 -0.305156E-05  0.447E-03    0.12       2.4  T
  17   -137.6538873 -0.100608E-05  0.111E-03    0.12       9.5  T
  18   -137.6538873 -0.156733E-07  0.956E-04    0.12      11.0  T
  19   -137.6538874 -0.495019E-07  0.697E-05    0.12     151.1  T
     SCC iter.                  ...        0 min,  0.755 sec
     gradient                   ...        0 min,  0.022 sec
 * total energy  :  -135.6310760 Eh     change       -0.4762115E-02 Eh
   gradient norm :     0.0117416 Eh/α   predicted    -0.4370590E-02 (  -8.22%)
   displ. norm   :     0.8482894 α      lambda       -0.5221040E-02
   maximum displ.:     0.4072824 α      in ANC's #5, #10, #15, ...

........................................................................
.............................. CYCLE    8 ..............................
........................................................................

 iter      E             dE          RMSdq      gap      omega  full diag
   1   -137.6579519 -0.137658E+03  0.266E-01    0.20       0.0  T
   2   -136.7498097  0.908142E+00  0.418E+00    0.71       1.0  T
   3   -137.0931447 -0.343335E+00  0.338E+00    0.08       1.0  T
   4   -137.1130568 -0.199121E-01  0.333E+00    0.07       1.0  T
   5   -137.1156300 -0.257326E-02  0.333E+00    0.07       1.0  T
   6   -137.6505073 -0.534877E+00  0.476E-01    0.30       1.0  T
   7   -137.6540224 -0.351502E-02  0.457E-01    0.20       1.0  T
   8   -137.6507168  0.330553E-02  0.510E-01    0.30       1.0  T
   9   -137.6518271 -0.111024E-02  0.498E-01    0.26       1.0  T
  10   -137.6527234 -0.896340E-03  0.488E-01    0.24       1.0  T
  11   -137.6529305 -0.207128E-03  0.482E-01    0.23       1.0  T
  12   -137.6532173 -0.286724E-03  0.472E-01    0.23       1.0  T
  13   -137.6538000 -0.582764E-03  0.455E-01    0.23       1.0  T
  14   -137.6560549 -0.225492E-02  0.394E-01    0.22       1.0  T
  15   -137.6593316 -0.327670E-02  0.305E-01    0.18       1.0  T
  16   -137.6614398 -0.210811E-02  0.236E-01    0.16       1.0  T
  17   -137.6634982 -0.205845E-02  0.138E-01    0.14       1.0  T
  18   -137.6645570 -0.105878E-02  0.222E-02    0.12       1.0  T
  19   -137.6645835 -0.265184E-04  0.284E-03    0.12       3.7  T
  20   -137.6645754  0.808216E-05  0.122E-02    0.12       1.0  T
  21   -137.6645835 -0.804676E-05  0.272E-03    0.12       3.9  T
  22   -137.6645793  0.416458E-05  0.906E-03    0.12       1.2  T
  23   -137.6645835 -0.417802E-05  0.266E-03    0.12       4.0  T
  24   -137.6645837 -0.198050E-06  0.186E-03    0.12       5.7  T
  25   -137.6645838 -0.153721E-06  0.754E-04    0.12      14.0  T
  26   -137.6645839 -0.207051E-07  0.448E-04    0.12      23.6  T
     SCC iter.                  ...        0 min,  1.443 sec
     gradient                   ...        0 min,  0.025 sec
 * total energy  :  -135.6359574 Eh     change       -0.4881410E-02 Eh
   gradient norm :     0.0117069 Eh/α   predicted    -0.4489084E-02 (  -8.04%)
   displ. norm   :     0.9092931 α      lambda       -0.5704971E-02
   maximum displ.:     0.5301771 α      in ANC's #5, #10, #15, ...

........................................................................
.............................. CYCLE    9 ..............................
........................................................................

 iter      E             dE          RMSdq      gap      omega  full diag
   1   -137.6674063 -0.137667E+03  0.236E-01    0.19       0.0  T
   2   -136.7500067  0.917400E+00  0.414E+00    0.66       1.0  T
   3   -136.8823950 -0.132388E+00  0.394E+00    0.15       1.0  T
   4   -136.9078121 -0.254172E-01  0.392E+00    0.14       1.0  T
   5   -136.8783893  0.294229E-01  0.400E+00    0.16       1.0  T
   6   -137.6595429 -0.781154E+00  0.476E-01    0.39       1.0  T
   7   -137.6599682 -0.425290E-03  0.505E-01    0.30       1.0  T
   8   -137.6599114  0.567312E-04  0.551E-01    0.29       1.0  T
   9   -137.6606540 -0.742575E-03  0.553E-01    0.25       1.0  T
  10   -137.6613063 -0.652296E-03  0.539E-01    0.25       1.0  T
  11   -137.6628922 -0.158595E-02  0.508E-01    0.22       1.0  T
  12   -137.6627397  0.152522E-03  0.500E-01    0.23       1.0  T
  13   -137.6644253 -0.168560E-02  0.460E-01    0.21       1.0  T
  14   -137.6653720 -0.946716E-03  0.424E-01    0.20       1.0  T
  15   -137.6721478 -0.677572E-02  0.184E-01    0.16       1.0  T
  16   -137.6739546 -0.180685E-02  0.718E-02    0.12       1.0  T
  17   -137.6738134  0.141192E-03  0.803E-02    0.14       1.0  T
  18   -137.6728868  0.926647E-03  0.155E-01    0.11       1.0  T
  19   -137.6729103 -0.235739E-04  0.153E-01    0.15       1.0  T
  20   -137.6734063 -0.495962E-03  0.120E-01    0.11       1.0  T
  21   -137.6737936 -0.387253E-03  0.869E-02    0.14       1.0  T
  22   -137.6741551 -0.361503E-03  0.294E-02    0.12       1.0  T
  23   -137.6741776 -0.225256E-04  0.222E-02    0.13       1.0  T
  24   -137.6742031 -0.255624E-04  0.334E-03    0.12       3.2  T
  25   -137.6742036 -0.443834E-06  0.124E-03    0.12       8.5  T
  26   -137.6741957  0.793831E-05  0.122E-02    0.13       1.0  T
  27   -137.6742034 -0.770792E-05  0.234E-03    0.12       4.5  T
  28   -137.6742035 -0.170082E-06  0.154E-03    0.12       6.9  T
  29   -137.6742037 -0.121664E-06  0.310E-04    0.12      34.0  T
  30   -137.6742037  0.135108E-08  0.335E-04    0.12      31.5  T
     SCC iter.                  ...        0 min,  1.306 sec
     gradient                   ...        0 min,  0.024 sec
 * total energy  :  -135.6415664 Eh     change       -0.5609031E-02 Eh
   gradient norm :     0.0137737 Eh/α   predicted    -0.5210961E-02 (  -7.10%)
   displ. norm   :     0.9425921 α      lambda       -0.6562279E-02
   maximum displ.:     0.6102835 α      in ANC's #5, #10, #11, ...

........................................................................
.............................. CYCLE   10 ..............................
........................................................................

 iter      E             dE          RMSdq      gap      omega  full diag
   1   -137.6797192 -0.137680E+03  0.170E-01    0.17       0.0  T
   2   -136.7579041  0.921815E+00  0.408E+00    0.48       1.0  T
   3   -136.7958486 -0.379446E-01  0.405E+00    0.25       1.0  T
   4   -136.8095122 -0.136635E-01  0.410E+00    0.23       1.0  T
   5   -136.8360909 -0.265787E-01  0.403E+00    0.19       1.0  T
   6   -137.6678288 -0.831738E+00  0.487E-01    0.60       1.0  T
   7   -137.6603537  0.747514E-02  0.681E-01    0.75       1.0  T
   8   -137.6527103  0.764340E-02  0.846E-01    0.90       1.0  T
   9   -137.6488500  0.386032E-02  0.938E-01    0.90       1.0  T
  10   -137.6462543  0.259565E-02  0.101E+00    0.83       1.0  T
  11   -137.6469903 -0.735964E-03  0.102E+00    0.72       1.0  T
  12   -137.6508874 -0.389709E-02  0.962E-01    0.60       1.0  T
  13   -137.6557281 -0.484072E-02  0.878E-01    0.49       1.0  T
  14   -137.6593831 -0.365504E-02  0.813E-01    0.42       1.0  T
  15   -137.6646119 -0.522874E-02  0.712E-01    0.33       1.0  T
  16   -137.6695573 -0.494539E-02  0.612E-01    0.26       1.0  T
  17   -137.6711463 -0.158905E-02  0.561E-01    0.26       1.0  T
  18   -137.6779772 -0.683082E-02  0.418E-01    0.16       1.0  T
  19   -137.6773517  0.625484E-03  0.429E-01    0.17       1.0  T
  20   -137.6791614 -0.180971E-02  0.349E-01    0.17       1.0  T
  21   -137.6835728 -0.441138E-02  0.143E-01    0.14       1.0  T
  22   -137.6791942  0.437853E-02  0.282E-01    0.20       1.0  T
  23   -137.0543751  0.624819E+00  0.341E+00    0.09       1.0  T
  24   -137.6552600 -0.600885E+00  0.917E-01    0.44       1.0  T
  25   -137.6634540 -0.819394E-02  0.725E-01    0.38       1.0  T
  26   -137.6711825 -0.772859E-02  0.544E-01    0.27       1.0  T
  27   -137.6768072 -0.562469E-02  0.392E-01    0.21       1.0  T
  28   -137.6836378 -0.683052E-02  0.124E-01    0.15       1.0  T
  29   -137.6447671  0.388706E-01  0.834E-01    0.06       1.0  T
  30   -137.6715791 -0.268120E-01  0.527E-01    0.27       1.0  T
  31   -137.6805300 -0.895089E-02  0.282E-01    0.16       1.0  T
  32   -137.6835633 -0.303331E-02  0.134E-01    0.11       1.0  T
  33   -137.6814128  0.215047E-02  0.230E-01    0.17       1.0  T
  34   -137.6415900  0.398228E-01  0.863E-01    0.05       1.0  T
  35   -137.6735325 -0.319425E-01  0.480E-01    0.25       1.0  T
  36   -137.6809011 -0.736856E-02  0.267E-01    0.16       1.0  T
  37   -137.6843739 -0.347285E-02  0.500E-02    0.14       1.0  T
  38   -137.6720715  0.123024E-01  0.467E-01    0.08       1.0  T
  39   -137.6775236 -0.545212E-02  0.366E-01    0.20       1.0  T
  40   -137.6840578 -0.653414E-02  0.862E-02    0.12       1.0  T
  41   -137.6825263  0.153150E-02  0.189E-01    0.16       1.0  T
  42   -137.6778829  0.464336E-02  0.340E-01    0.09       1.0  T
  43   -137.6790376 -0.115469E-02  0.319E-01    0.18       1.0  T
  44   -137.6838820 -0.484438E-02  0.106E-01    0.12       1.0  T
  45   -137.6839129 -0.308968E-04  0.104E-01    0.15       1.0  T
  46   -137.6798402  0.407272E-02  0.286E-01    0.10       1.0  T
  47   -137.6797209  0.119273E-03  0.297E-01    0.18       1.0  T
  48   -137.6845052 -0.478433E-02  0.222E-02    0.13       1.0  T
  49   -137.6827660  0.173917E-02  0.176E-01    0.11       1.0  T
  50   -137.6818007  0.965374E-03  0.222E-01    0.17       1.0  T
  51   -137.6833776 -0.157697E-02  0.143E-01    0.11       1.0  T
  52   -137.6835562 -0.178563E-03  0.131E-01    0.15       1.0  T
  53   -137.6806128  0.294342E-02  0.261E-01    0.10       1.0  T
  54   -137.6804836  0.129173E-03  0.271E-01    0.17       1.0  T
  55   -137.6845299 -0.404625E-02  0.707E-03    0.13       1.5  T
  56   -137.6811876  0.334222E-02  0.242E-01    0.10       1.0  T
  57   -137.6808824  0.305270E-03  0.257E-01    0.17       1.0  T
  58   -137.6844369 -0.355452E-02  0.422E-02    0.12       1.0  T
  59   -137.6835379  0.898987E-03  0.133E-01    0.11       1.0  T
  60   -137.6836028 -0.648619E-04  0.128E-01    0.15       1.0  T
  61   -137.6827405  0.862289E-03  0.177E-01    0.11       1.0  T
  62   -137.6824673  0.273217E-03  0.192E-01    0.16       1.0  T
  63   -137.6839669 -0.149959E-02  0.100E-01    0.12       1.0  T
  64   -137.6843967 -0.429818E-03  0.479E-02    0.14       1.0  T
  65   -137.6833444  0.105229E-02  0.144E-01    0.11       1.0  T
  66   -137.6831420  0.202397E-03  0.157E-01    0.16       1.0  T
  67   -137.6841210 -0.978997E-03  0.855E-02    0.12       1.0  T
  68   -137.6844088 -0.287816E-03  0.460E-02    0.14       1.0  T
  69   -137.6839105  0.498353E-03  0.104E-01    0.12       1.0  T
  70   -137.6839049  0.558451E-05  0.105E-01    0.15       1.0  T
  71   -137.6841477 -0.242847E-03  0.824E-02    0.12       1.0  T
  72   -137.6842868 -0.139111E-03  0.655E-02    0.14       1.0  T
  73   -137.6841750  0.111824E-03  0.793E-02    0.12       1.0  T
  74   -137.6842531 -0.780668E-04  0.701E-02    0.14       1.0  T
  75   -137.6842934 -0.403716E-04  0.649E-02    0.12       1.0  T
  76   -137.6843808 -0.873903E-04  0.516E-02    0.14       1.0  T
  77   -137.6843763  0.457679E-05  0.525E-02    0.12       1.0  T
  78   -137.6844398 -0.635890E-04  0.403E-02    0.14       1.0  T
  79   -137.6844457 -0.588465E-05  0.391E-02    0.12       1.0  T
  80   -137.6844871 -0.413528E-04  0.282E-02    0.14       1.0  T
  81   -137.6844916 -0.449698E-05  0.268E-02    0.13       1.0  T
  82   -137.6845135 -0.219294E-04  0.182E-02    0.13       1.0  T
  83   -137.6845166 -0.308535E-05  0.167E-02    0.13       1.0  T
  84   -137.6845259 -0.926056E-05  0.107E-02    0.13       1.0  T
  85   -137.6845274 -0.155829E-05  0.935E-03    0.13       1.1  T
  86   -137.6845305 -0.311249E-05  0.567E-03    0.13       1.9  T
  87   -137.6845312 -0.666880E-06  0.454E-03    0.13       2.3  T
  88   -137.6845321 -0.865988E-06  0.229E-03    0.13       4.6  T
  89   -137.6845322 -0.186129E-06  0.142E-03    0.13       7.4  T
  90   -137.6845324 -0.112508E-06  0.155E-04    0.13      68.1  T
  91   -137.6845324  0.914127E-09  0.208E-04    0.13      50.6  T
     SCC iter.                  ...        0 min,  3.650 sec
     gradient                   ...        0 min,  0.035 sec
 * total energy  :  -135.6480241 Eh     change       -0.6457671E-02 Eh
   gradient norm :     0.0191928 Eh/α   predicted    -0.6196406E-02 (  -4.05%)
   displ. norm   :     0.9474733 α      lambda       -0.7118968E-02
   maximum displ.:     0.6603850 α      in ANC's #5, #10, #31, ...

........................................................................
.............................. CYCLE   11 ..............................
........................................................................

 iter      E             dE          RMSdq      gap      omega  full diag
   1   -137.6902698 -0.137690E+03  0.150E-01    0.16       0.0  T
   2   -136.7683114  0.921958E+00  0.396E+00    0.27       1.0  T
   3   -136.7719523 -0.364092E-02  0.396E+00    0.26       1.0  T
   4   -136.7849233 -0.129709E-01  0.400E+00    0.22       1.0  T
   5   -136.7966531 -0.117298E-01  0.397E+00    0.20       1.0  T
   6   -137.6818205 -0.885167E+00  0.288E-01    0.45       1.0  T
   7   -137.6741301  0.769037E-02  0.475E-01    0.81       1.0  T
   8   -137.6670671  0.706301E-02  0.616E-01    1.06       1.0  T
   9   -137.6603709  0.669624E-02  0.748E-01    1.25       1.0  T
  10   -137.6538110  0.655985E-02  0.864E-01    1.40       1.0  T
  11   -137.6400278  0.137832E-01  0.108E+00    1.58       1.0  T
  12   -137.6277295  0.122983E-01  0.125E+00    1.07       1.0  T
  13   -137.2151842  0.412545E+00  0.182E+00    0.02       1.0  T
  14   -137.5486638 -0.333480E+00  0.156E+00    0.12       1.0  T
  15   -136.2318164  0.131685E+01  0.244E+00    0.34       1.0  T
  16   -136.2399081 -0.809170E-02  0.243E+00    0.32       1.0  T
  17   -136.2351373  0.477076E-02  0.243E+00    0.35       1.0  T
  18   -136.2500905 -0.149532E-01  0.240E+00    0.30       1.0  T
  19   -136.3710620 -0.120971E+00  0.227E+00    0.15       1.0  T
  20   -136.8405021 -0.469440E+00  0.197E+00    0.04       1.0  T
  21   -136.6433223  0.197180E+00  0.208E+00    0.08       1.0  T
  22   -137.6004324 -0.957110E+00  0.132E+00    0.19       1.0  T
  23   -137.5978953  0.253704E-02  0.113E+00    0.15       1.0  T
  24   -137.6352345 -0.373392E-01  0.945E-01    0.34       1.0  T
  25   -137.6258307  0.940387E-02  0.103E+00    0.24       1.0  T
  26   -137.5682684  0.575623E-01  0.115E+00    0.12       1.0  T
  27   -137.6319404 -0.636720E-01  0.112E+00    0.55       1.0  T
  28   -137.6297490  0.219146E-02  0.119E+00    0.65       1.0  T
  29   -137.6302468 -0.497824E-03  0.118E+00    0.63       1.0  T
  30   -137.6302706 -0.238242E-04  0.119E+00    0.67       1.0  T
  31   -137.6290897  0.118098E-02  0.117E+00    0.52       1.0  T
  32   -137.4361913  0.192898E+00  0.128E+00    0.06       1.0  T
  33   -137.5790121 -0.142821E+00  0.910E-01    0.12       1.0  T
  34   -137.6303007 -0.512887E-01  0.801E-01    0.22       1.0  T
  35   -137.6316047 -0.130394E-02  0.793E-01    0.23       1.0  T
  36   -137.6400197 -0.841499E-02  0.798E-01    0.34       1.0  T
  37   -137.6420278 -0.200811E-02  0.807E-01    0.42       1.0  T
  38   -137.6466338 -0.460604E-02  0.816E-01    0.64       1.0  T
  39   -137.6630004 -0.163666E-01  0.690E-01    0.60       1.0  T
  40   -137.6737944 -0.107940E-01  0.559E-01    0.34       1.0  T
  41   -137.6720761  0.171833E-02  0.581E-01    0.40       1.0  T
  42   -137.6842984 -0.122223E-01  0.396E-01    0.14       1.0  T
  43   -137.6843579 -0.595646E-04  0.402E-01    0.16       1.0  T
  44   -137.6832821  0.107580E-02  0.321E-01    0.18       1.0  T
  45   -137.6842891 -0.100701E-02  0.299E-01    0.11       1.0  T
  46   -137.6866221 -0.233297E-02  0.263E-01    0.12       1.0  T
  47   -137.6878265 -0.120443E-02  0.212E-01    0.15       1.0  T
  48   -137.6884389 -0.612361E-03  0.182E-01    0.15       1.0  T
  49   -137.6883435  0.953516E-04  0.165E-01    0.17       1.0  T
  50   -137.6893336 -0.990025E-03  0.142E-01    0.16       1.0  T
  51   -137.6901529 -0.819368E-03  0.122E-01    0.15       1.0  T
  52   -137.6903967 -0.243806E-03  0.115E-01    0.14       1.0  T
  53   -137.6908660 -0.469272E-03  0.102E-01    0.13       1.0  T
  54   -137.6911081 -0.242110E-03  0.917E-02    0.14       1.0  T
  55   -137.6921511 -0.104300E-02  0.101E-01    0.13       1.0  T
  56   -137.6917352  0.415889E-03  0.717E-02    0.16       1.0  T
  57   -137.6910282  0.707083E-03  0.936E-02    0.16       1.0  T
  58   -137.6925045 -0.147635E-02  0.113E-01    0.13       1.0  T
  59   -137.6909803  0.152419E-02  0.967E-02    0.17       1.0  T
  60   -137.6926619 -0.168159E-02  0.817E-02    0.13       1.0  T
  61   -137.6919073  0.754605E-03  0.646E-02    0.16       1.0  T
  62   -137.6928794 -0.972089E-03  0.865E-02    0.14       1.0  T
  63   -137.6910866  0.179279E-02  0.109E-01    0.16       1.0  T
  64   -137.6902344  0.852211E-03  0.267E-01    0.11       1.0  T
  65   -137.6882826  0.195179E-02  0.216E-01    0.20       1.0  T
  66   -137.6916329 -0.335027E-02  0.106E-01    0.13       1.0  T
  67   -137.6719048  0.197281E-01  0.638E-01    0.07       1.0  T
  68   -137.6824431 -0.105383E-01  0.412E-01    0.30       1.0  T
  69   -137.6905014 -0.805832E-02  0.197E-01    0.15       1.0  T
  70   -137.6927877 -0.228625E-02  0.313E-02    0.14       1.0  T
  71   -137.6916983  0.108934E-02  0.180E-01    0.12       1.0  T
  72   -137.6898411  0.185720E-02  0.189E-01    0.18       1.0  T
  73   -137.6878973  0.194378E-02  0.307E-01    0.10       1.0  T
  74   -137.6883980 -0.500609E-03  0.241E-01    0.20       1.0  T
  75   -137.6926554 -0.425747E-02  0.480E-02    0.13       1.0  T
  76   -137.6929928 -0.337415E-03  0.218E-02    0.14       1.0  T
  77   -137.6918664  0.112641E-02  0.163E-01    0.12       1.0  T
  78   -137.6901354  0.173099E-02  0.192E-01    0.17       1.0  T
  79   -137.6848188  0.531663E-02  0.378E-01    0.09       1.0  T
  80   -137.6875917 -0.277290E-02  0.275E-01    0.21       1.0  T
  81   -137.6922379 -0.464615E-02  0.104E-01    0.13       1.0  T
  82   -137.6914237  0.814184E-03  0.178E-01    0.11       1.0  T
  83   -137.6904493  0.974331E-03  0.188E-01    0.17       1.0  T
  84   -137.6800190  0.104303E-01  0.467E-01    0.08       1.0  T
  85   -137.6865232 -0.650417E-02  0.314E-01    0.22       1.0  T
  86   -137.6916967 -0.517352E-02  0.150E-01    0.14       1.0  T
  87   -137.6916121  0.846081E-04  0.160E-01    0.12       1.0  T
  88   -137.6909116  0.700534E-03  0.175E-01    0.16       1.0  T
  89   -137.6786528  0.122587E-01  0.486E-01    0.08       1.0  T
  90   -137.6865193 -0.786649E-02  0.319E-01    0.22       1.0  T
  91   -137.6917761 -0.525676E-02  0.149E-01    0.14       1.0  T
  92   -137.6922851 -0.508996E-03  0.114E-01    0.12       1.0  T
  93   -137.6919614  0.323660E-03  0.125E-01    0.15       1.0  T
  94   -137.6836938  0.826757E-02  0.392E-01    0.09       1.0  T
  95   -137.6880063 -0.431246E-02  0.279E-01    0.20       1.0  T
  96   -137.6927370 -0.473069E-02  0.660E-02    0.14       1.0  T
  97   -137.6929386 -0.201619E-03  0.421E-02    0.13       1.0  T
  98   -137.6930386 -0.999749E-04  0.710E-03    0.14       1.5  T
  99   -137.6930254  0.132233E-04  0.209E-02    0.13       1.0  T
 100   -137.6930206  0.474491E-05  0.140E-02    0.14       1.0  T
 101   -137.6929910  0.296360E-04  0.338E-02    0.13       1.0  T
 102   -137.6928802  0.110834E-03  0.466E-02    0.14       1.0  T
 103   -137.6925225  0.357645E-03  0.965E-02    0.12       1.0  T
 104   -137.6918665  0.656029E-03  0.134E-01    0.15       1.0  T
 105   -137.6902242  0.164230E-02  0.216E-01    0.11       1.0  T
 106   -137.6901349  0.892545E-04  0.211E-01    0.17       1.0  T
 107   -137.6905626 -0.427625E-03  0.197E-01    0.11       1.0  T
 108   -137.6903980  0.164517E-03  0.201E-01    0.17       1.0  T
 109   -137.6899948  0.403267E-03  0.217E-01    0.11       1.0  T
 110   -137.6902008 -0.206022E-03  0.209E-01    0.17       1.0  T
 111   -137.6907315 -0.530695E-03  0.187E-01    0.11       1.0  T
 112   -137.6906041  0.127349E-03  0.195E-01    0.16       1.0  T
 113   -137.6905203  0.837895E-04  0.197E-01    0.11       1.0  T
 114   -137.6905617 -0.413438E-04  0.197E-01    0.16       1.0  T
 115   -137.6907949 -0.233194E-03  0.185E-01    0.11       1.0  T
 116   -137.6907783  0.166200E-04  0.189E-01    0.16       1.0  T
 117   -137.6909091 -0.130853E-03  0.181E-01    0.11       1.0  T
 118   -137.6909120 -0.291225E-05  0.184E-01    0.16       1.0  T
 119   -137.6910245 -0.112449E-03  0.177E-01    0.11       1.0  T
 120   -137.6910563 -0.318736E-04  0.178E-01    0.16       1.0  T
 121   -137.6911973 -0.140962E-03  0.170E-01    0.11       1.0  T
 122   -137.6912444 -0.470473E-04  0.170E-01    0.16       1.0  T
 123   -137.6913382 -0.938895E-04  0.164E-01    0.11       1.0  T
 124   -137.6914143 -0.760938E-04  0.162E-01    0.16       1.0  T
 125   -137.6915139 -0.995274E-04  0.156E-01    0.11       1.0  T
 126   -137.6916155 -0.101642E-03  0.152E-01    0.15       1.0  T
 127   -137.6916841 -0.685884E-04  0.147E-01    0.12       1.0  T
 128   -137.6918105 -0.126388E-03  0.141E-01    0.15       1.0  T
 129   -137.6918742 -0.637461E-04  0.137E-01    0.12       1.0  T
 130   -137.6920213 -0.147100E-03  0.129E-01    0.15       1.0  T
 131   -137.6920643 -0.430083E-04  0.126E-01    0.12       1.0  T
 132   -137.6922235 -0.159138E-03  0.115E-01    0.15       1.0  T
 133   -137.6922624 -0.389510E-04  0.113E-01    0.12       1.0  T
 134   -137.6924251 -0.162701E-03  0.100E-01    0.15       1.0  T
 135   -137.6924538 -0.287041E-04  0.984E-02    0.12       1.0  T
 136   -137.6926067 -0.152897E-03  0.843E-02    0.15       1.0  T
 137   -137.6926335 -0.268143E-04  0.824E-02    0.13       1.0  T
 138   -137.6927653 -0.131711E-03  0.672E-02    0.15       1.0  T
 139   -137.6927881 -0.228007E-04  0.653E-02    0.13       1.0  T
 140   -137.6928879 -0.998821E-04  0.502E-02    0.14       1.0  T
 141   -137.6929069 -0.189514E-04  0.481E-02    0.13       1.0  T
 142   -137.6929711 -0.641980E-04  0.342E-02    0.14       1.0  T
 143   -137.6929842 -0.131256E-04  0.320E-02    0.13       1.0  T
 144   -137.6930172 -0.329887E-04  0.205E-02    0.14       1.0  T
 145   -137.6930242 -0.699772E-05  0.187E-02    0.13       1.0  T
 146   -137.6930369 -0.127352E-04  0.103E-02    0.14       1.0  T
 147   -137.6930395 -0.259782E-05  0.917E-03    0.14       1.1  T
 148   -137.6930430 -0.342051E-05  0.373E-03    0.14       2.8  T
 149   -137.6930436 -0.617528E-06  0.326E-03    0.14       3.2  T
 150   -137.6930440 -0.447873E-06  0.327E-04    0.14      32.3  T
 151   -137.6930440 -0.354811E-08  0.497E-04    0.14      21.2  T
     SCC iter.                  ...        0 min,  4.799 sec
     gradient                   ...        0 min,  0.023 sec
 * total energy  :  -135.6549792 Eh     change       -0.6955155E-02 Eh
   gradient norm :     0.0256461 Eh/α   predicted    -0.6754860E-02 (  -2.88%)
   displ. norm   :     0.9452513 α      lambda       -0.7450966E-02
   maximum displ.:     0.6822903 α      in ANC's #5, #10, #31, ...

........................................................................
.............................. CYCLE   12 ..............................
........................................................................

 iter      E             dE          RMSdq      gap      omega  full diag
   1   -137.6967025 -0.137697E+03  0.158E-01    0.15       0.0  T
   2   -137.1958198  0.500883E+00  0.266E+00    0.05       1.0  T
   3   -136.7825730  0.413247E+00  0.374E+00    0.18       1.0  T
   4   -136.9194063 -0.136833E+00  0.346E+00    0.11       1.0  T
   5   -137.6906785 -0.771272E+00  0.256E-01    0.17       1.0  T
   6   -137.6904064  0.272169E-03  0.230E-01    0.20       1.0  T
   7   -137.6912123 -0.805926E-03  0.332E-01    0.12       1.0  T
   8   -137.6919852 -0.772926E-03  0.296E-01    0.12       1.0  T
   9   -137.6935181 -0.153287E-02  0.202E-01    0.15       1.0  T
  10   -137.6936310 -0.112896E-03  0.167E-01    0.17       1.0  T
  11   -137.6943868 -0.755762E-03  0.139E-01    0.20       1.0  T
  12   -137.6972990 -0.291224E-02  0.854E-02    0.15       1.0  T
  13   -137.6970981  0.200929E-03  0.785E-02    0.16       1.0  T
  14   -137.6973764 -0.278283E-03  0.608E-02    0.15       1.0  T
  15   -137.6977038 -0.327430E-03  0.537E-02    0.13       1.0  T
  16   -137.6978237 -0.119885E-03  0.393E-02    0.14       1.0  T
  17   -137.6978600 -0.363709E-04  0.292E-02    0.14       1.0  T
  18   -137.6978941 -0.340297E-04  0.176E-02    0.14       1.0  T
  19   -137.6979093 -0.151996E-04  0.862E-03    0.14       1.2  T
  20   -137.6979159 -0.665556E-05  0.192E-03    0.14       5.5  T
  21   -137.6979156  0.315549E-06  0.255E-03    0.13       4.1  T
  22   -137.6979161 -0.493452E-06  0.101E-03    0.13      10.4  T
  23   -137.6979163 -0.152318E-06  0.843E-04    0.14      12.5  T
  24   -137.6979163 -0.342237E-07  0.310E-04    0.14      34.0  T
     SCC iter.                  ...        0 min,  0.743 sec
     gradient                   ...        0 min,  0.023 sec
 * total energy  :  -135.6623008 Eh     change       -0.7321602E-02 Eh
   gradient norm :     0.0297709 Eh/α   predicted    -0.7054212E-02 (  -3.65%)
   displ. norm   :     0.9085121 α      lambda       -0.8333427E-02
   maximum displ.:     0.6722484 α      in ANC's #5, #31, #10, ...

........................................................................
.............................. CYCLE   13 ..............................
........................................................................

 iter      E             dE          RMSdq      gap      omega  full diag
   1   -137.7055882 -0.137706E+03  0.186E-01    0.14       0.0  T
   2   -137.5912042  0.114384E+00  0.770E-01    0.05       1.0  T
   3   -137.7043232 -0.113119E+00  0.142E-01    0.17       1.0  T
   4   -137.7050567 -0.733506E-03  0.126E-01    0.13       1.0  T
   5   -137.7063650 -0.130823E-02  0.574E-02    0.13       1.0  T
   6   -137.7064273 -0.623688E-04  0.360E-02    0.13       1.0  T
   7   -137.7063590  0.683493E-04  0.301E-02    0.14       1.0  T
   8   -137.7064081 -0.491074E-04  0.275E-02    0.14       1.0  T
   9   -137.7064324 -0.243082E-04  0.175E-02    0.14       1.0  T
  10   -137.7064809 -0.485590E-04  0.705E-03    0.13       1.5  T
  11   -137.7064839 -0.293487E-05  0.539E-03    0.13       2.0  T
  12   -137.7064825  0.138007E-05  0.533E-03    0.13       2.0  T
  13   -137.7064866 -0.408818E-05  0.213E-03    0.13       5.0  T
  14   -137.7064872 -0.631737E-06  0.937E-04    0.13      11.2  T
  15   -137.7064873 -0.414770E-07  0.432E-04    0.13      24.4  T
     SCC iter.                  ...        0 min,  0.430 sec
     gradient                   ...        0 min,  0.027 sec
 * total energy  :  -135.6697889 Eh     change       -0.7488095E-02 Eh
   gradient norm :     0.0343262 Eh/α   predicted    -0.7605905E-02 (   1.57%)
   displ. norm   :     0.9195061 α      lambda       -0.8419842E-02
   maximum displ.:     0.6840227 α      in ANC's #5, #10, #13, ...

........................................................................
.............................. CYCLE   14 ..............................
........................................................................

 iter      E             dE          RMSdq      gap      omega  full diag
   1   -137.6990219 -0.137699E+03  0.208E-01    0.13       0.0  T
   2   -137.6901030  0.891892E-02  0.256E-01    0.08       1.0  T
   3   -137.6910262 -0.923162E-03  0.243E-01    0.30       1.0  T
   4   -137.6925309 -0.150474E-02  0.195E-01    0.23       1.0  T
   5   -137.6948359 -0.230500E-02  0.153E-01    0.21       1.0  T
   6   -137.6981678 -0.333187E-02  0.744E-02    0.15       1.0  T
   7   -137.6990449 -0.877072E-03  0.287E-02    0.12       1.0  T
   8   -137.6991444 -0.995221E-04  0.182E-02    0.13       1.0  T
   9   -137.6991674 -0.230276E-04  0.134E-02    0.12       1.0  T
  10   -137.6991912 -0.238037E-04  0.705E-03    0.12       1.5  T
  11   -137.6991965 -0.525570E-05  0.473E-03    0.13       2.2  T
  12   -137.6991999 -0.344983E-05  0.171E-03    0.13       6.1  T
  13   -137.6992003 -0.401402E-06  0.563E-04    0.13      18.7  T
  14   -137.6992003  0.409280E-07  0.613E-04    0.13      17.2  T
     SCC iter.                  ...        0 min,  0.401 sec
     gradient                   ...        0 min,  0.024 sec
 * total energy  :  -135.6771911 Eh     change       -0.7402132E-02 Eh
   gradient norm :     0.0366509 Eh/α   predicted    -0.7769378E-02 (   4.96%)
   displ. norm   :     0.7412832 α      lambda       -0.9112950E-02
   maximum displ.:     0.5454193 α      in ANC's #5, #8, #68, ...

........................................................................
.............................. CYCLE   15 ..............................
........................................................................

 iter      E             dE          RMSdq      gap      omega  full diag
   1   -137.7093920 -0.137709E+03  0.188E-01    0.11       0.0  T
   2   -137.7058681  0.352395E-02  0.199E-01    0.19       1.0  T
   3   -137.5843177  0.121550E+00  0.795E-01    0.05       1.0  T
   4   -137.7049683 -0.120651E+00  0.186E-01    0.19       1.0  T
   5   -137.7060479 -0.107958E-02  0.145E-01    0.20       1.0  T
   6   -137.7076105 -0.156269E-02  0.115E-01    0.17       1.0  T
   7   -137.7088695 -0.125893E-02  0.800E-02    0.15       1.0  T
   8   -137.7100304 -0.116089E-02  0.203E-02    0.13       1.0  T
   9   -137.7100923 -0.619156E-04  0.771E-03    0.12       1.4  T
  10   -137.7101018 -0.955886E-05  0.355E-03    0.12       3.0  T
  11   -137.7101037 -0.187259E-05  0.154E-03    0.12       6.9  T
  12   -137.7101042 -0.445881E-06  0.396E-04    0.12      26.6  T
  13   -137.7101042 -0.129586E-07  0.185E-04    0.12      56.8  T
     SCC iter.                  ...        0 min,  0.394 sec
     gradient                   ...        0 min,  0.023 sec
 * total energy  :  -135.6835266 Eh     change       -0.6335567E-02 Eh
   gradient norm :     0.0379505 Eh/α   predicted    -0.7060267E-02 (  11.44%)
   displ. norm   :     0.8538459 α      lambda       -0.8339239E-02
   maximum displ.:     0.6203946 α      in ANC's #5, #10, #13, ...

........................................................................
.............................. CYCLE   16 ..............................
........................................................................

 iter      E             dE          RMSdq      gap      omega  full diag
   1   -137.7171888 -0.137717E+03  0.192E-01    0.11       0.0  T
   2   -137.7103629  0.682589E-02  0.235E-01    0.24       1.0  T
   3   -137.6406646  0.696983E-01  0.627E-01    0.04       1.0  T
   4   -137.7102380 -0.695734E-01  0.220E-01    0.24       1.0  T
   5   -137.7106761 -0.438121E-03  0.194E-01    0.25       1.0  T
   6   -137.7130465 -0.237036E-02  0.155E-01    0.20       1.0  T
   7   -137.7159208 -0.287434E-02  0.940E-02    0.16       1.0  T
   8   -137.7174991 -0.157823E-02  0.228E-02    0.13       1.0  T
   9   -137.7175299 -0.308158E-04  0.174E-02    0.12       1.0  T
  10   -137.7175628 -0.328655E-04  0.115E-02    0.12       1.0  T
  11   -137.7175855 -0.227388E-04  0.424E-03    0.12       2.5  T
  12   -137.7175885 -0.302229E-05  0.123E-03    0.12       8.5  T
  13   -137.7175884  0.149114E-06  0.128E-03    0.12       8.2  T
  14   -137.7175883  0.553362E-07  0.134E-03    0.12       7.9  T
  15   -137.7175887 -0.342485E-06  0.126E-04    0.12      83.9  T
  16   -137.7175887 -0.441304E-09  0.796E-05    0.12     132.4  T
     SCC iter.                  ...        0 min,  0.445 sec
     gradient                   ...        0 min,  0.023 sec
 * total energy  :  -135.6901441 Eh     change       -0.6617466E-02 Eh
   gradient norm :     0.0277149 Eh/α   predicted    -0.7209524E-02 (   8.95%)
   displ. norm   :     0.7374087 α      lambda       -0.7233211E-02
   maximum displ.:     0.4546176 α      in ANC's #5, #68, #8, ...

........................................................................
.............................. CYCLE   17 ..............................
........................................................................

 iter      E             dE          RMSdq      gap      omega  full diag
   1   -137.7378954 -0.137738E+03  0.166E-01    0.12       0.0  T
   2   -137.7373414  0.554094E-03  0.119E-01    0.11       1.0  T
   3   -137.7301814  0.715996E-02  0.223E-01    0.26       1.0  T
   4   -137.7219708  0.821057E-02  0.284E-01    0.07       1.0  T
   5   -137.7351728 -0.132020E-01  0.126E-01    0.17       1.0  T
   6   -137.7368166 -0.164382E-02  0.816E-02    0.15       1.0  T
   7   -137.7378177 -0.100108E-02  0.359E-02    0.11       1.0  T
   8   -137.7380305 -0.212789E-03  0.132E-02    0.12       1.0  T
   9   -137.7380563 -0.257947E-04  0.378E-03    0.12       2.8  T
  10   -137.7380571 -0.819912E-06  0.230E-03    0.12       4.6  T
  11   -137.7380534  0.373228E-05  0.456E-03    0.12       2.3  T
  12   -137.7380567 -0.330056E-05  0.200E-03    0.12       5.3  T
  13   -137.7380574 -0.709039E-06  0.504E-04    0.12      20.9  T
  14   -137.7380574  0.329234E-07  0.583E-04    0.12      18.1  T
     SCC iter.                  ...        0 min,  0.400 sec
     gradient                   ...        0 min,  0.034 sec
 * total energy  :  -135.6953725 Eh     change       -0.5228401E-02 Eh
   gradient norm :     0.0274777 Eh/α   predicted    -0.5583212E-02 (   6.79%)
   displ. norm   :     0.8211059 α      lambda       -0.6516449E-02
   maximum displ.:     0.5812644 α      in ANC's #5, #10, #31, ...

........................................................................
.............................. CYCLE   18 ..............................
........................................................................

 iter      E             dE          RMSdq      gap      omega  full diag
   1   -137.7374187 -0.137737E+03  0.197E-01    0.13       0.0  T
   2   -137.6454653  0.919535E-01  0.690E-01    0.04       1.0  T
   3   -137.7340238 -0.885585E-01  0.187E-01    0.18       1.0  T
   4   -137.7339782  0.455612E-04  0.161E-01    0.17       1.0  T
   5   -137.7345923 -0.614095E-03  0.129E-01    0.18       1.0  T
   6   -137.7360978 -0.150550E-02  0.933E-02    0.16       1.0  T
   7   -137.7375319 -0.143404E-02  0.350E-02    0.13       1.0  T
   8   -137.7377484 -0.216540E-03  0.826E-03    0.12       1.3  T
   9   -137.7377591 -0.107200E-04  0.368E-03    0.12       2.9  T
  10   -137.7377617 -0.252906E-05  0.713E-04    0.12      14.8  T
  11   -137.7377615  0.140141E-06  0.103E-03    0.12      10.3  T
  12   -137.7377616 -0.121585E-06  0.626E-04    0.12      16.8  T
  13   -137.7377617 -0.676939E-07  0.133E-04    0.12      79.4  T
     SCC iter.                  ...        0 min,  0.510 sec
     gradient                   ...        0 min,  0.022 sec
 * total energy  :  -135.7002529 Eh     change       -0.4880427E-02 Eh
   gradient norm :     0.0213149 Eh/α   predicted    -0.5454968E-02 (  11.77%)
   displ. norm   :     0.7463905 α      lambda       -0.4976605E-02
   maximum displ.:     0.5070722 α      in ANC's #5, #68, #13, ...

........................................................................
.............................. CYCLE   19 ..............................
........................................................................

 iter      E             dE          RMSdq      gap      omega  full diag
   1   -137.7403494 -0.137740E+03  0.109E-01    0.13       0.0  T
   2   -137.7115369  0.288125E-01  0.385E-01    0.05       1.0  T
   3   -137.7387861 -0.272492E-01  0.114E-01    0.16       1.0  T
   4   -137.7392972 -0.511185E-03  0.854E-02    0.15       1.0  T
   5   -137.7396971 -0.399858E-03  0.654E-02    0.14       1.0  T
   6   -137.7402632 -0.566126E-03  0.366E-02    0.13       1.0  T
   7   -137.7404927 -0.229453E-03  0.669E-03    0.12       1.6  T
   8   -137.7404272  0.655031E-04  0.183E-02    0.11       1.0  T
   9   -137.7404907 -0.635362E-04  0.449E-03    0.12       2.3  T
  10   -137.7404936 -0.285104E-05  0.198E-03    0.12       5.3  T
  11   -137.7404939 -0.317592E-06  0.143E-03    0.12       7.4  T
  12   -137.7404942 -0.353900E-06  0.363E-04    0.12      29.0  T
  13   -137.7404942  0.159204E-07  0.419E-04    0.12      25.2  T
     SCC iter.                  ...        0 min,  0.680 sec
     gradient                   ...        0 min,  0.024 sec
 * total energy  :  -135.7036366 Eh     change       -0.3383689E-02 Eh
   gradient norm :     0.0239356 Eh/α   predicted    -0.3874538E-02 (  14.51%)
   displ. norm   :     0.7205010 α      lambda       -0.4832086E-02
   maximum displ.:     0.4153985 α      in ANC's #5, #13, #31, ...

........................................................................
.............................. CYCLE   20 ..............................
........................................................................

 iter      E             dE          RMSdq      gap      omega  full diag
   1   -137.7471205 -0.137747E+03  0.167E-01    0.12       0.0  T
   2   -137.7470709  0.496101E-04  0.112E-01    0.12       1.0  T
   3   -137.6330520  0.114019E+00  0.754E-01    0.05       1.0  T
   4   -137.7456126 -0.112561E+00  0.105E-01    0.15       1.0  T
   5   -137.7466902 -0.107758E-02  0.587E-02    0.13       1.0  T
   6   -137.7470565 -0.366307E-03  0.330E-02    0.13       1.0  T
   7   -137.7471778 -0.121266E-03  0.114E-02    0.12       1.0  T
   8   -137.7471606  0.172180E-04  0.127E-02    0.11       1.0  T
   9   -137.7471881 -0.275092E-04  0.475E-03    0.12       2.2  T
  10   -137.7471911 -0.301929E-05  0.191E-03    0.12       5.5  T
  11   -137.7471913 -0.210277E-06  0.136E-03    0.12       7.7  T
  12   -137.7471915 -0.152373E-06  0.872E-04    0.12      12.1  T
  13   -137.7471916 -0.138898E-06  0.184E-04    0.12      57.4  T
     SCC iter.                  ...        0 min,  0.456 sec
     gradient                   ...        0 min,  0.032 sec
 * total energy  :  -135.7050797 Eh     change       -0.1443062E-02 Eh
   gradient norm :     0.0350040 Eh/α   predicted    -0.3670271E-02 ( 154.34%)
   displ. norm   :     0.4636659 α      lambda       -0.4821421E-02
   maximum displ.:     0.3113246 α      in ANC's #5, #66, #68, ...
 * RMSD in coord.:     1.3276674 α      energy gain  -0.1792631E+00 Eh

generating ANC from model Hessian ...
Using Lindh-Hessian (1995)
 Shifting diagonal of input Hessian by    9.9721420144384502E-003
 Lowest  eigenvalues of input Hessian
    0.000000    0.000000    0.000000    0.000000    0.000000    0.000000
    0.010000    0.010020    0.010036    0.010178    0.010302    0.010516
    0.010741    0.010909    0.011036    0.011346    0.011542    0.011994
 Highest eigenvalues
    2.095325    2.122718    2.144037    2.158115    2.175722    2.291175


........................................................................
.............................. CYCLE   21 ..............................
........................................................................

 iter      E             dE          RMSdq      gap      omega  full diag
   1   -137.7532305 -0.137753E+03  0.133E-01    0.11       0.0  T
   2   -137.7496116  0.361889E-02  0.166E-01    0.18       1.0  T
   3   -137.7056784  0.439333E-01  0.494E-01    0.04       1.0  T
   4   -137.7498315 -0.441532E-01  0.142E-01    0.18       1.0  T
   5   -137.7512918 -0.146027E-02  0.108E-01    0.16       1.0  T
   6   -137.7528674 -0.157565E-02  0.540E-02    0.13       1.0  T
   7   -137.7526701  0.197303E-03  0.586E-02    0.10       1.0  T
   8   -137.7529045 -0.234413E-03  0.482E-02    0.10       1.0  T
   9   -137.7533555 -0.450946E-03  0.702E-03    0.11       1.5  T
  10   -137.7533647 -0.921623E-05  0.105E-03    0.12      10.0  T
  11   -137.7533647  0.406864E-07  0.770E-04    0.12      13.7  T
  12   -137.7533647 -0.772363E-07  0.266E-04    0.12      39.6  T
     SCC iter.                  ...        0 min,  0.408 sec
     gradient                   ...        0 min,  0.025 sec
 * total energy  :  -135.7071589 Eh     change       -0.2079254E-02 Eh
   gradient norm :     0.0245967 Eh/α   predicted     0.0000000E+00 (-100.00%)
   displ. norm   :     0.2046065 α      lambda       -0.1765554E-02
   maximum displ.:     0.0840501 α      in ANC's #7, #15, #13, ...

........................................................................
.............................. CYCLE   22 ..............................
........................................................................

 iter      E             dE          RMSdq      gap      omega  full diag
   1   -137.7572223 -0.137757E+03  0.639E-02    0.11       0.0  T
   2   -137.7565251  0.697187E-03  0.720E-02    0.14       1.0  T
   3   -137.7404697  0.160554E-01  0.291E-01    0.06       1.0  T
   4   -137.7566255 -0.161558E-01  0.607E-02    0.13       1.0  T
   5   -137.7568619 -0.236438E-03  0.445E-02    0.13       1.0  T
   6   -137.7571798 -0.317891E-03  0.190E-02    0.12       1.0  T
   7   -137.7572368 -0.569978E-04  0.583E-03    0.12       1.8  T
   8   -137.7572253  0.115342E-04  0.913E-03    0.11       1.2  T
   9   -137.7572393 -0.140068E-04  0.337E-03    0.12       3.1  T
  10   -137.7572414 -0.210425E-05  0.757E-04    0.12      13.9  T
  11   -137.7572413  0.678934E-07  0.862E-04    0.12      12.2  T
  12   -137.7572415 -0.138741E-06  0.166E-04    0.12      63.6  T
     SCC iter.                  ...        0 min,  0.549 sec
     gradient                   ...        0 min,  0.029 sec
 * total energy  :  -135.7083944 Eh     change       -0.1235491E-02 Eh
   gradient norm :     0.0077108 Eh/α   predicted    -0.9197561E-03 ( -25.56%)
   displ. norm   :     0.3304889 α      lambda       -0.9932620E-03
   maximum displ.:     0.1529461 α      in ANC's #7, #15, #9, ...

........................................................................
.............................. CYCLE   23 ..............................
........................................................................

 iter      E             dE          RMSdq      gap      omega  full diag
   1   -137.7590214 -0.137759E+03  0.460E-02    0.11       0.0  T
   2   -137.7577573  0.126414E-02  0.847E-02    0.14       1.0  T
   3   -137.7561860  0.157126E-02  0.122E-01    0.09       1.0  T
   4   -137.7586405 -0.245453E-02  0.482E-02    0.13       1.0  T
   5   -137.7588308 -0.190224E-03  0.332E-02    0.13       1.0  T
   6   -137.7590212 -0.190403E-03  0.125E-02    0.12       1.0  T
   7   -137.7590428 -0.215996E-04  0.507E-03    0.11       2.1  T
   8   -137.7590420  0.724599E-06  0.477E-03    0.11       2.2  T
   9   -137.7590458 -0.381251E-05  0.146E-03    0.12       7.2  T
  10   -137.7590460 -0.142127E-06  0.109E-03    0.12       9.7  T
  11   -137.7590462 -0.193736E-06  0.424E-04    0.12      24.9  T
  12   -137.7590462 -0.294935E-07  0.156E-04    0.12      67.7  T
     SCC iter.                  ...        0 min,  0.496 sec
     gradient                   ...        0 min,  0.022 sec
 * total energy  :  -135.7091399 Eh     change       -0.7455212E-03 Eh
   gradient norm :     0.0067963 Eh/α   predicted    -0.5510438E-03 ( -26.09%)
   displ. norm   :     0.4750641 α      lambda       -0.9329497E-03
   maximum displ.:     0.2242656 α      in ANC's #7, #15, #9, ...

........................................................................
.............................. CYCLE   24 ..............................
........................................................................

 iter      E             dE          RMSdq      gap      omega  full diag
   1   -137.7583701 -0.137758E+03  0.544E-02    0.11       0.0  T
   2   -137.7569969  0.137320E-02  0.896E-02    0.14       1.0  T
   3   -137.7529118  0.408512E-02  0.168E-01    0.08       1.0  T
   4   -137.7576963 -0.478447E-02  0.607E-02    0.13       1.0  T
   5   -137.7580519 -0.355638E-03  0.414E-02    0.13       1.0  T
   6   -137.7583389 -0.286991E-03  0.174E-02    0.12       1.0  T
   7   -137.7583968 -0.578499E-04  0.144E-03    0.11       7.3  T
   8   -137.7583935  0.325260E-05  0.416E-03    0.11       2.5  T
   9   -137.7583963 -0.279707E-05  0.167E-03    0.11       6.3  T
  10   -137.7583968 -0.510831E-06  0.395E-04    0.11      26.7  T
  11   -137.7583968  0.226461E-08  0.352E-04    0.11      30.0  T
     SCC iter.                  ...        0 min,  0.401 sec
     gradient                   ...        0 min,  0.023 sec
 * total energy  :  -135.7099086 Eh     change       -0.7687060E-03 Eh
   gradient norm :     0.0114434 Eh/α   predicted    -0.5717722E-03 ( -25.62%)
   displ. norm   :     0.5917794 α      lambda       -0.1029760E-02
   maximum displ.:     0.2855597 α      in ANC's #7, #9, #15, ...

........................................................................
.............................. CYCLE   25 ..............................
........................................................................

 iter      E             dE          RMSdq      gap      omega  full diag
   1   -137.7563562 -0.137756E+03  0.737E-02    0.11       0.0  T
   2   -137.7563274  0.288366E-04  0.470E-02    0.12       1.0  T
   3   -137.7255454  0.307819E-01  0.393E-01    0.05       1.0  T
   4   -137.7559095 -0.303640E-01  0.492E-02    0.13       1.0  T
   5   -137.7562866 -0.377073E-03  0.214E-02    0.12       1.0  T
   6   -137.7563492 -0.626756E-04  0.115E-02    0.12       1.0  T
   7   -137.7563656 -0.163534E-04  0.512E-03    0.11       2.1  T
   8   -137.7563664 -0.825520E-06  0.381E-03    0.11       2.8  T
   9   -137.7563675 -0.111580E-05  0.270E-03    0.11       3.9  T
  10   -137.7563689 -0.135018E-05  0.416E-04    0.11      25.4  T
  11   -137.7563688  0.515572E-07  0.575E-04    0.11      18.3  T
  12   -137.7563689 -0.490411E-07  0.251E-04    0.11      42.0  T
     SCC iter.                  ...        0 min,  0.866 sec
     gradient                   ...        0 min,  0.023 sec
 * total energy  :  -135.7107096 Eh     change       -0.8009910E-03 Eh
   gradient norm :     0.0107582 Eh/α   predicted    -0.6951933E-03 ( -13.21%)
   displ. norm   :     0.5007877 α      lambda       -0.7316274E-03
   maximum displ.:     0.2628832 α      in ANC's #7, #9, #15, ...

........................................................................
.............................. CYCLE   26 ..............................
........................................................................

 iter      E             dE          RMSdq      gap      omega  full diag
   1   -137.7576042 -0.137758E+03  0.736E-02    0.12       0.0  T
   2   -137.7546248  0.297940E-02  0.131E-01    0.08       1.0  T
   3   -137.7552040 -0.579238E-03  0.119E-01    0.16       1.0  T
   4   -137.7568475 -0.164348E-02  0.642E-02    0.13       1.0  T
   5   -137.7574594 -0.611842E-03  0.307E-02    0.12       1.0  T
   6   -137.7576308 -0.171412E-03  0.616E-03    0.11       1.7  T
   7   -137.7576077  0.230683E-04  0.120E-02    0.11       1.0  T
   8   -137.7576266 -0.188916E-04  0.585E-03    0.11       1.8  T
   9   -137.7576330 -0.637297E-05  0.864E-04    0.11      12.2  T
  10   -137.7576323  0.641076E-06  0.188E-03    0.11       5.6  T
  11   -137.7576330 -0.682275E-06  0.309E-04    0.11      34.1  T
  12   -137.7576330 -0.157593E-08  0.233E-04    0.11      45.2  T
     SCC iter.                  ...        0 min,  0.338 sec
     gradient                   ...        0 min,  0.024 sec
 * total energy  :  -135.7112528 Eh     change       -0.5431956E-03 Eh
   gradient norm :     0.0086717 Eh/α   predicted    -0.4575582E-03 ( -15.77%)
   displ. norm   :     0.4219241 α      lambda       -0.5564353E-03
   maximum displ.:     0.2361092 α      in ANC's #7, #9, #17, ...

........................................................................
.............................. CYCLE   27 ..............................
........................................................................

 iter      E             dE          RMSdq      gap      omega  full diag
   1   -137.7615932 -0.137762E+03  0.601E-02    0.12       0.0  T
   2   -137.7465961  0.149971E-01  0.276E-01    0.06       1.0  T
   3   -137.7612708 -0.146747E-01  0.572E-02    0.13       1.0  T
   4   -137.7614712 -0.200394E-03  0.337E-02    0.12       1.0  T
   5   -137.7616246 -0.153343E-03  0.161E-02    0.12       1.0  T
   6   -137.7616617 -0.371737E-04  0.682E-03    0.11       1.5  T
   7   -137.7616646 -0.287047E-05  0.443E-03    0.11       2.4  T
   8   -137.7616615  0.310956E-05  0.539E-03    0.11       2.0  T
   9   -137.7616653 -0.377051E-05  0.292E-03    0.11       3.6  T
  10   -137.7616669 -0.160608E-05  0.541E-04    0.11      19.5  T
  11   -137.7616669  0.842849E-08  0.543E-04    0.11      19.4  T
  12   -137.7616669 -0.455397E-07  0.211E-04    0.11      50.0  T
     SCC iter.                  ...        0 min,  0.394 sec
     gradient                   ...        0 min,  0.022 sec
 * total energy  :  -135.7116884 Eh     change       -0.4356052E-03 Eh
   gradient norm :     0.0056392 Eh/α   predicted    -0.3277461E-03 ( -24.76%)
   displ. norm   :     0.5241429 α      lambda       -0.5331901E-03
   maximum displ.:     0.2926227 α      in ANC's #7, #9, #14, ...

........................................................................
.............................. CYCLE   28 ..............................
........................................................................

 iter      E             dE          RMSdq      gap      omega  full diag
   1   -137.7620858 -0.137762E+03  0.731E-02    0.12       0.0  T
   2   -137.7125504  0.495353E-01  0.499E-01    0.04       1.0  T
   3   -137.7618935 -0.493430E-01  0.585E-02    0.13       1.0  T
   4   -137.7620375 -0.144016E-03  0.357E-02    0.12       1.0  T
   5   -137.7621778 -0.140354E-03  0.205E-02    0.12       1.0  T
   6   -137.7622379 -0.600881E-04  0.106E-02    0.11       1.0  T
   7   -137.7622520 -0.141076E-04  0.460E-03    0.11       2.3  T
   8   -137.7622516  0.468700E-06  0.403E-03    0.11       2.6  T
   9   -137.7622518 -0.243861E-06  0.362E-03    0.11       2.9  T
  10   -137.7622543 -0.248452E-05  0.672E-04    0.11      15.7  T
  11   -137.7622543 -0.335443E-07  0.405E-04    0.11      26.0  T
  12   -137.7622543 -0.165725E-07  0.259E-04    0.11      40.7  T
     SCC iter.                  ...        0 min,  0.501 sec
     gradient                   ...        0 min,  0.025 sec
 * total energy  :  -135.7121064 Eh     change       -0.4179879E-03 Eh
   gradient norm :     0.0061057 Eh/α   predicted    -0.3398383E-03 ( -18.70%)
   displ. norm   :     0.4952168 α      lambda       -0.5070530E-03
   maximum displ.:     0.2768025 α      in ANC's #7, #14, #17, ...

........................................................................
.............................. CYCLE   29 ..............................
........................................................................

 iter      E             dE          RMSdq      gap      omega  full diag
   1   -137.7672346 -0.137767E+03  0.705E-02    0.12       0.0  T
   2   -137.6986714  0.685631E-01  0.586E-01    0.03       1.0  T
   3   -137.7671362 -0.684648E-01  0.539E-02    0.12       1.0  T
   4   -137.7672809 -0.144643E-03  0.332E-02    0.12       1.0  T
   5   -137.7673641 -0.832575E-04  0.213E-02    0.12       1.0  T
   6   -137.7674299 -0.657849E-04  0.103E-02    0.11       1.0  T
   7   -137.7674424 -0.125296E-04  0.545E-03    0.11       1.9  T
   8   -137.7674470 -0.457059E-05  0.161E-03    0.11       6.5  T
   9   -137.7674462  0.823905E-06  0.230E-03    0.11       4.6  T
  10   -137.7674471 -0.907075E-06  0.767E-04    0.11      13.7  T
  11   -137.7674472 -0.731722E-07  0.318E-04    0.11      33.2  T
     SCC iter.                  ...        0 min,  0.377 sec
     gradient                   ...        0 min,  0.022 sec
 * total energy  :  -135.7124367 Eh     change       -0.3302885E-03 Eh
   gradient norm :     0.0070173 Eh/α   predicted    -0.3157055E-03 (  -4.42%)
   displ. norm   :     0.5643981 α      lambda       -0.3782996E-03
   maximum displ.:     0.3182938 α      in ANC's #7, #14, #17, ...

........................................................................
.............................. CYCLE   30 ..............................
........................................................................

 iter      E             dE          RMSdq      gap      omega  full diag
   1   -137.7598078 -0.137760E+03  0.752E-02    0.12       0.0  T
   2   -137.7400438  0.197640E-01  0.318E-01    0.05       1.0  T
   3   -137.7591382 -0.190944E-01  0.749E-02    0.13       1.0  T
   4   -137.7594687 -0.330475E-03  0.508E-02    0.13       1.0  T
   5   -137.7596457 -0.176977E-03  0.363E-02    0.12       1.0  T
   6   -137.7598452 -0.199559E-03  0.178E-02    0.12       1.0  T
   7   -137.7598956 -0.503576E-04  0.689E-03    0.11       1.5  T
   8   -137.7599033 -0.767676E-05  0.235E-03    0.11       4.5  T
   9   -137.7599024  0.812625E-06  0.295E-03    0.11       3.6  T
  10   -137.7599041 -0.165290E-05  0.521E-04    0.11      20.2  T
  11   -137.7599041  0.318602E-07  0.589E-04    0.11      17.9  T
  12   -137.7599041 -0.418724E-07  0.343E-04    0.11      30.8  T
     SCC iter.                  ...        0 min,  0.598 sec
     gradient                   ...        0 min,  0.025 sec
 * total energy  :  -135.7125831 Eh     change       -0.1463561E-03 Eh
   gradient norm :     0.0093297 Eh/α   predicted    -0.2494049E-03 (  70.41%)
[...]
    35   6 C        3.760    -0.102    22.487     6.760
    36  35 Br       1.080    -0.202   190.672    22.264
    37   7 N        2.795    -0.064    22.475     7.041
    38  14 Si       3.506     0.482   100.810    19.417
    39   6 C        3.699    -0.169    23.972     7.002
    40   6 C        3.713     0.097    19.096     6.244
    41   8 O        1.702    -0.324    19.422     5.950
    42   6 C        3.648    -0.209    25.019     7.186
    43   6 C        3.648    -0.207    24.983     7.181
    44   6 C        3.648    -0.207    24.975     7.180
    45   6 C        3.642     0.161    18.327     6.155
    46   7 N        2.799     0.100    19.524     6.563
    47   8 O        0.922    -0.577    25.529     6.776
    48   7 N        2.800     0.095    19.608     6.577
    49   8 O        0.922    -0.581    25.608     6.786
    50   1 H        0.925     0.032     2.554     2.499
    51   1 H        0.925     0.024     2.674     2.557
    52   1 H        0.925     0.057     2.237     2.339
    53   1 H        0.925     0.039     2.463     2.454
    54   1 H        0.925     0.063     2.159     2.298
    55   1 H        0.925     0.020     2.729     2.583
    56   1 H        0.925     0.038     2.471     2.458
    57   1 H        0.925     0.063     2.160     2.298
    58   1 H        0.925     0.021     2.724     2.581
    59   1 H        0.925     0.034     2.536     2.490
    60   1 H        0.925     0.024     2.673     2.557
    61   1 H        0.925     0.058     2.220     2.330
    62   1 H        0.926     0.076     2.025     2.225
    63   1 H        0.925     0.015     2.817     2.625
    64   1 H        0.926     0.080     1.977     2.199
    65   1 H        0.925     0.014     2.825     2.628
    66   1 H        0.925     0.007     2.946     2.684
    67   1 H        0.925     0.010     2.884     2.656
    68   1 H        0.926     0.004     2.983     2.701
    69   1 H        0.923     0.020     2.736     2.587
    70   1 H        0.923     0.020     2.726     2.582
    71   1 H        0.923     0.001     3.045     2.729
    72   1 H        0.923    -0.001     3.082     2.745
    73   1 H        0.925     0.046     2.365     2.405
    74   1 H        0.925     0.039     2.458     2.452
    75   1 H        0.925     0.033     2.541     2.493
    76   1 H        0.925     0.038     2.470     2.458
    77   1 H        0.925     0.033     2.547     2.496
    78   1 H        0.925     0.033     2.547     2.496
    79   1 H        0.925     0.027     2.629     2.535
    80   1 H        0.925     0.033     2.538     2.491
    81   1 H        0.925     0.031     2.575     2.510
    82   1 H        0.925     0.034     2.531     2.488
    83   1 H        0.925     0.035     2.517     2.481
    84   1 H        0.926     0.010     2.897     2.662
    85   1 H        0.925     0.016     2.799     2.616
    86   1 H        0.925     0.016     2.787     2.611
    87   1 H        0.925     0.017     2.776     2.605
    88   1 H        0.925     0.025     2.661     2.551
    89   1 H        0.926     0.035     2.513     2.479
    90   1 H        0.926     0.047     2.364     2.404

 Mol. C6AA /au·bohr⁶  :     107434.327979
 Mol. C8AA /au·bohr⁸  :    2826801.510325
 Mol. α(0) /au        :        518.113142


Wiberg/Mayer (AO) data.
largest (>0.10) Wiberg bond orders for each atom

 ---------------------------------------------------------------------------
     #   Z sym  total        # sym  WBO       # sym  WBO       # sym  WBO
 ---------------------------------------------------------------------------
     1   6 C    3.974 --     2 C    1.502     6 C    1.319    88 H    0.967
                             4 C    0.101
     2   6 C    3.958 --     1 C    1.502     3 C    1.330    89 H    0.970
     3   6 C    3.920 --     4 C    1.495     2 C    1.330    36 Br   0.950
     4   6 C    3.973 --     3 C    1.495     5 C    1.293    90 H    0.961
                             1 C    0.101
     5   6 C    3.969 --     4 C    1.293     6 C    1.260     7 C    1.195
     6   6 C    3.977 --     1 C    1.319     5 C    1.260    10 C    1.216
     7   6 C    3.955 --     8 C    1.278    11 C    1.245     5 C    1.195
     8   6 C    3.978 --    14 C    1.305     7 C    1.278     9 C    1.213
     9   6 C    3.978 --    10 C    1.630     8 C    1.213    86 H    0.968
    10   6 C    3.979 --     9 C    1.630     6 C    1.216    87 H    0.967
    11   6 C    3.953 --    12 C    1.278     7 C    1.245    15 C    1.190
    12   6 C    3.940 --    13 C    1.324    11 C    1.278    37 N    1.124
    13   6 C    3.945 --    14 C    1.487    12 C    1.324    84 H    0.966
    14   6 C    3.930 --    13 C    1.487     8 C    1.305    85 H    0.969
    15   6 C    3.956 --    16 C    1.277    17 C    1.247    11 C    1.190
    16   6 C    3.929 --    20 C    1.326    15 C    1.277    37 N    1.117
    17   6 C    3.969 --    18 C    1.290    15 C    1.247    21 C    1.180
    18   6 C    3.983 --    19 C    1.295    17 C    1.290    24 C    1.214
    19   6 C    3.921 --    20 C    1.492    18 C    1.295    67 H    0.970
    20   6 C    3.956 --    19 C    1.492    16 C    1.326    68 H    0.966
    21   6 C    3.979 --    28 C    1.331    22 C    1.257    17 C    1.180
    22   6 C    3.977 --    27 C    1.297    21 C    1.257    23 C    1.228
    23   6 C    3.976 --    24 C    1.618    22 C    1.228    65 H    0.968
    24   6 C    3.960 --    23 C    1.618    18 C    1.214    66 H    0.968
    25   6 C    3.980 --    28 C    1.423    26 C    1.279    29 C    1.103
    26   6 C    3.967 --    27 C    1.544    25 C    1.279    62 H    0.951
    27   6 C    3.981 --    26 C    1.544    22 C    1.297    63 H    0.968
    28   6 C    3.978 --    25 C    1.423    21 C    1.331    64 H    0.945
    29   6 C    3.947 --    46 N    1.258    48 N    1.248    25 C    1.103
                            47 O    0.133    49 O    0.128
    30   6 C    3.978 --    33 C    0.998    32 C    0.987    31 C    0.962
                            46 N    0.933
    31   6 C    3.979 --    34 C    0.998    35 C    0.985    30 C    0.962
                            48 N    0.934
    32   6 C    3.991 --    30 C    0.987    60 H    0.985    59 H    0.983
                            61 H    0.979
    33   6 C    3.993 --    30 C    0.998    58 H    0.986    56 H    0.983
                            57 H    0.979
    34   6 C    3.993 --    31 C    0.998    55 H    0.986    53 H    0.982
                            54 H    0.979
    35   6 C    3.990 --    31 C    0.985    51 H    0.985    50 H    0.985
                            52 H    0.981
    36  35 Br   1.063 --     3 C    0.950
    37   7 N    3.514 --    12 C    1.124    16 C    1.117    45 C    1.023
    38  14 Si   3.617 --    44 C    0.901    43 C    0.898    42 C    0.890
                            39 C    0.855
    39   6 C    3.973 --    40 C    1.021    74 H    0.982    73 H    0.978
                            38 Si   0.855
    40   6 C    3.952 --    39 C    1.021    41 O    0.978    71 H    0.971
                            72 H    0.970
    41   8 O    2.067 --    40 C    0.978    45 C    0.965
    42   6 C    3.979 --    79 H    0.992    80 H    0.989    78 H    0.989
                            38 Si   0.890
    43   6 C    3.980 --    81 H    0.988    82 H    0.988    83 H    0.987
                            38 Si   0.898
    44   6 C    3.981 --    77 H    0.988    75 H    0.987    76 H    0.986
                            38 Si   0.901
    45   6 C    3.957 --    37 N    1.023    41 O    0.965    69 H    0.956
                            70 H    0.955
    46   7 N    3.577 --    29 C    1.258    47 O    1.120    30 C    0.933
                            48 N    0.117
    47   8 O    1.484 --    46 N    1.120    29 C    0.133
    48   7 N    3.553 --    29 C    1.248    49 O    1.114    31 C    0.934
                            46 N    0.117
    49   8 O    1.447 --    48 N    1.114    29 C    0.128
    50   1 H    0.999 --    35 C    0.985
    51   1 H    0.999 --    35 C    0.985
    52   1 H    0.996 --    35 C    0.981
    53   1 H    0.998 --    34 C    0.982
    54   1 H    0.995 --    34 C    0.979
    55   1 H    0.999 --    34 C    0.986
    56   1 H    0.998 --    33 C    0.983
    57   1 H    0.995 --    33 C    0.979
    58   1 H    0.999 --    33 C    0.986
    59   1 H    0.999 --    32 C    0.983
    60   1 H    0.999 --    32 C    0.985
    61   1 H    0.996 --    32 C    0.979
    62   1 H    0.993 --    26 C    0.951
    63   1 H    0.999 --    27 C    0.968
    64   1 H    0.993 --    28 C    0.945
    65   1 H    0.998 --    23 C    0.968
    66   1 H    0.999 --    24 C    0.968
    67   1 H    0.999 --    19 C    0.970
    68   1 H    0.999 --    20 C    0.966
    69   1 H    0.999 --    45 C    0.956
    70   1 H    0.998 --    45 C    0.955
    71   1 H    1.000 --    40 C    0.971
    72   1 H    1.000 --    40 C    0.970
    73   1 H    0.998 --    39 C    0.978
    74   1 H    0.998 --    39 C    0.982
    75   1 H    0.999 --    44 C    0.987
    76   1 H    0.999 --    44 C    0.986
    77   1 H    0.999 --    44 C    0.988
    78   1 H    0.999 --    42 C    0.989
    79   1 H    0.999 --    42 C    0.992
    80   1 H    0.999 --    42 C    0.989
    81   1 H    0.999 --    43 C    0.988
    82   1 H    0.999 --    43 C    0.988
    83   1 H    0.999 --    43 C    0.987
    84   1 H    0.998 --    13 C    0.966
    85   1 H    0.999 --    14 C    0.969
    86   1 H    0.999 --     9 C    0.968
    87   1 H    0.998 --    10 C    0.967
    88   1 H    0.999 --     1 C    0.967
    89   1 H    0.998 --     2 C    0.970
    90   1 H    0.997 --     4 C    0.961
 ---------------------------------------------------------------------------

Topologies differ in bond orders
Writing corrected topology to xtbtopo.mol

molecular dipole:
                 x           y           z       tot (Debye)
 q only:        5.254       1.330       5.648
   full:        5.479       2.416       5.118      20.021
molecular quadrupole (traceless):
                xx          xy          yy          xz          yz          zz
 q only:        2.168      -8.737      16.152     -48.187      -6.227     -18.321
  q+dip:       12.893     -20.351      13.460     -44.545      -3.695     -26.353
   full:        9.736     -18.893       9.179     -48.826      -6.700     -18.914

           -------------------------------------------------
          |                Geometry Summary                 |
           -------------------------------------------------

      molecular mass/u    :      731.7730935
   center of mass at/Å    :       -0.9610076       0.0951102      -0.6327280
  moments of inertia/u·Å² :        0.5662388E+04   0.1665062E+05   0.1899956E+05
rotational constants/cm⁻¹ :        0.2977124E-02   0.1012433E-02   0.8872643E-03

 * 93 selected distances

     #   Z          #   Z                                           value/Å
     1   6 C        2   6 C                                       1.3721090
     2   6 C        3   6 C                                       1.3940440
     3   6 C        4   6 C                                       1.3673489
     4   6 C        5   6 C                                       1.4083070
     1   6 C        6   6 C                                       1.4026386
     5   6 C        6   6 C                                       1.4177150
     5   6 C        7   6 C                                       1.4307603
     7   6 C        8   6 C                                       1.4166754
     8   6 C        9   6 C                                       1.4219768
     6   6 C       10   6 C                                       1.4194784
     9   6 C       10   6 C                                       1.3529758
     7   6 C       11   6 C                                       1.4198417
    11   6 C       12   6 C                                       1.4142778
    12   6 C       13   6 C                                       1.3900864
     8   6 C       14   6 C                                       1.4046417
    13   6 C       14   6 C                                       1.3752317
    11   6 C       15   6 C                                       1.4375998
    15   6 C       16   6 C                                       1.4137078
    15   6 C       17   6 C                                       1.4195642
    17   6 C       18   6 C                                       1.4163061
    18   6 C       19   6 C                                       1.4077287
    16   6 C       20   6 C                                       1.3904464
    19   6 C       20   6 C                                       1.3747865
    21   6 C       22   6 C                                       1.4176563
    22   6 C       23   6 C                                       1.4180400
    18   6 C       24   6 C                                       1.4235840
    23   6 C       24   6 C                                       1.3555626
    25   6 C       26   6 C                                       1.4122418
    22   6 C       27   6 C                                       1.4054712
    26   6 C       27   6 C                                       1.3666675
    21   6 C       28   6 C                                       1.4010582
    25   6 C       28   6 C                                       1.3868239
    30   6 C       31   6 C                                       1.5402668
    30   6 C       32   6 C                                       1.5336403
    30   6 C       33   6 C                                       1.5260737
    31   6 C       34   6 C                                       1.5257002
    31   6 C       35   6 C                                       1.5364134
     3   6 C       36  35 Br                                      1.9062751
    12   6 C       37   7 N                                       1.3785934
    16   6 C       37   7 N                                       1.3801327
    38  14 Si      39   6 C                                       1.9097040
    39   6 C       40   6 C                                       1.5184255
    40   6 C       41   8 O                                       1.4059454
    38  14 Si      42   6 C                                       1.9091808
    38  14 Si      43   6 C                                       1.9110645 (max)
    38  14 Si      44   6 C                                       1.9101512
    37   7 N       45   6 C                                       1.4153696
    41   8 O       45   6 C                                       1.4128513
    29   6 C       46   7 N                                       1.3433639
    30   6 C       46   7 N                                       1.4765648
    29   6 C       48   7 N                                       1.3468680
    31   6 C       48   7 N                                       1.4755650
    35   6 C       50   1 H                                       1.0878405
    35   6 C       51   1 H                                       1.0876268
    35   6 C       52   1 H                                       1.0885604
    34   6 C       53   1 H                                       1.0852359
    34   6 C       54   1 H                                       1.0880553
    34   6 C       55   1 H                                       1.0879426
    33   6 C       56   1 H                                       1.0853964
    33   6 C       57   1 H                                       1.0880500
    33   6 C       58   1 H                                       1.0880214
    32   6 C       59   1 H                                       1.0871281
    32   6 C       60   1 H                                       1.0878973
    32   6 C       61   1 H                                       1.0881375
    26   6 C       62   1 H                                       1.0791931
    27   6 C       63   1 H                                       1.0826204
    28   6 C       64   1 H                                       1.0778282
    23   6 C       65   1 H                                       1.0818142
    24   6 C       66   1 H                                       1.0823867
    19   6 C       67   1 H                                       1.0815058
    20   6 C       68   1 H                                       1.0806620
    45   6 C       69   1 H                                       1.1042838
    45   6 C       70   1 H                                       1.1044918
    40   6 C       71   1 H                                       1.1020872
    40   6 C       72   1 H                                       1.1030839
    39   6 C       73   1 H                                       1.0900049
Note: The following floating-point exceptions are signalling: IEEE_UNDERFLOW_FLAG
normal termination of xtb
    39   6 C       74   1 H                                       1.0897964
    44   6 C       75   1 H                                       1.0857851
    44   6 C       76   1 H                                       1.0859170
    44   6 C       77   1 H                                       1.0860431
    42   6 C       78   1 H                                       1.0855656
    42   6 C       79   1 H                                       1.0854374
    42   6 C       80   1 H                                       1.0854393
    43   6 C       81   1 H                                       1.0859251
    43   6 C       82   1 H                                       1.0861089
    43   6 C       83   1 H                                       1.0859397
    13   6 C       84   1 H                                       1.0803038
    14   6 C       85   1 H                                       1.0813345
     9   6 C       86   1 H                                       1.0825342
    10   6 C       87   1 H                                       1.0816908
     1   6 C       88   1 H                                       1.0813519
     2   6 C       89   1 H                                       1.0791810
     4   6 C       90   1 H                                       1.0775767 (min)

 * 6 distinct bonds (by element types)

   Z      Z             #   av. dist./Å        max./Å        min./Å
   1 H    6 C          41     1.0864826     1.1044918     1.0775767
   6 C    6 C          38     1.4219967     1.5402668     1.3529758
   6 C    7 N           7     1.4023511     1.4765648     1.3433639
   6 C    8 O           2     1.4093983     1.4128513     1.4059454
   6 C   14 Si          4     1.9100251     1.9110645     1.9091808
   6 C   35 Br          1     1.9062751     1.9062751     1.9062751


optimized geometry written to: xtbopt.mol


           -------------------------------------------------
          | TOTAL ENERGY             -135.714250943555 Eh   |
          | GRADIENT NORM               0.000318714720 Eh/α |
          | HOMO-LUMO GAP               0.114413570509 eV   |
           -------------------------------------------------
########################################################################
[WARNING] Runtime exception occurred
-2- restart_readRestart: Multiplicity missmatch in restart file.
-1- restart_readRestart: Number of electron missmatch in restart file.
########################################################################

------------------------------------------------------------------------
 * finished run on 2024/11/14 at 11:20:41.268     
------------------------------------------------------------------------
 total:
 * wall-time:     0 d,  0 h,  0 min, 42.801 sec
 *  cpu-time:     0 d,  0 h,  2 min, 13.672 sec
 * ratio c/w:     3.123 speedup
 SCF:
 * wall-time:     0 d,  0 h,  0 min,  1.590 sec
 *  cpu-time:     0 d,  0 h,  0 min,  5.748 sec
 * ratio c/w:     3.615 speedup
 ANC optimizer:
 * wall-time:     0 d,  0 h,  0 min, 41.194 sec
 *  cpu-time:     0 d,  0 h,  2 min,  7.901 sec
 * ratio c/w:     3.105 speedup

