      -----------------------------------------------------------      
     |                   =====================                   |     
     |                           x T B                           |     
     |                   =====================                   |     
     |                         S. Grimme                         |     
     |          Mulliken Center for Theoretical Chemistry        |     
     |                    University of Bonn                     |     
      -----------------------------------------------------------      

   * xtb version 6.6.1 (8d0f1dd) compiled by 'runner@Mac-1690902418499.local' on 2023-08-01

   xtb is free software: you can redistribute it and/or modify it under
   the terms of the GNU Lesser General Public License as published by
   the Free Software Foundation, either version 3 of the License, or
   (at your option) any later version.
   
   xtb is distributed in the hope that it will be useful,
   but WITHOUT ANY WARRANTY; without even the implied warranty of
   MERCHANTABILITY or FITNESS FOR A PARTICULAR PURPOSE.  See the
   GNU Lesser General Public License for more details.
   
   Cite this work as:
   * C. Bannwarth, E. Caldeweyher, S. Ehlert, A. Hansen, P. Pracht,
     J. Seibert, S. Spicher, S. Grimme, WIREs Comput. Mol. Sci., 2020, 11,
     e01493. DOI: 10.1002/wcms.1493
   
   for GFN2-xTB:
   * C. Bannwarth, S. Ehlert and S. Grimme., J. Chem. Theory Comput., 2019,
     15, 1652-1671. DOI: 10.1021/acs.jctc.8b01176
   for GFN1-xTB:
   * S. Grimme, C. Bannwarth, P. Shushkov, J. Chem. Theory Comput., 2017,
     13, 1989-2009. DOI: 10.1021/acs.jctc.7b00118
   for GFN0-xTB:
   * P. Pracht, E. Caldeweyher, S. Ehlert, S. Grimme, ChemRxiv, 2019, preprint.
     DOI: 10.26434/chemrxiv.8326202.v1
   for GFN-FF:
   * S. Spicher and S. Grimme, Angew. Chem. Int. Ed., 2020, 59, 15665-15673.
     DOI: 10.1002/anie.202004239
   
   for ALPB and GBSA implicit solvation:
   * S. Ehlert, M. Stahn, S. Spicher, S. Grimme, J. Chem. Theory Comput.,
     2021, 17, 4250-4261. DOI: 10.1021/acs.jctc.1c00471
   
   for DFT-D4:
   * E. Caldeweyher, C. Bannwarth and S. Grimme, J. Chem. Phys., 2017,
     147, 034112. DOI: 10.1063/1.4993215
   * E. Caldeweyher, S. Ehlert, A. Hansen, H. Neugebauer, S. Spicher,
     C. Bannwarth and S. Grimme, J. Chem. Phys., 2019, 150, 154122.
     DOI: 10.1063/1.5090222
   * E. Caldeweyher, J.-M. Mewes, S. Ehlert and S. Grimme, Phys. Chem. Chem. Phys.
     2020, 22, 8499-8512. DOI: 10.1039/D0CP00502A
   
   for sTDA-xTB:
   * S. Grimme and C. Bannwarth, J. Chem. Phys., 2016, 145, 054103.
     DOI: 10.1063/1.4959605
   
   in the mass-spec context:
   * V. Asgeirsson, C. Bauer and S. Grimme, Chem. Sci., 2017, 8, 4879.
     DOI: 10.1039/c7sc00601b
   * J. Koopman and S. Grimme, ACS Omega 2019, 4, 12, 15120-15133.
     DOI: 10.1021/acsomega.9b02011
   
   for metadynamics refer to:
   * S. Grimme, J. Chem. Theory Comput., 2019, 155, 2847-2862
     DOI: 10.1021/acs.jctc.9b00143
   
   for SPH calculations refer to:
   * S. Spicher and S. Grimme, J. Chem. Theory Comput., 2021, 17, 1701-1714
     DOI: 10.1021/acs.jctc.0c01306
   
   with help from (in alphabetical order)
   P. Atkinson, C. Bannwarth, F. Bohle, G. Brandenburg, E. Caldeweyher
   M. Checinski, S. Dohm, S. Ehlert, S. Ehrlich, I. Gerasimov, C. Hölzer
   A. Katbashev, J. Koopman, C. Lavigne, S. Lehtola, F. März, M. Müller,
   F. Musil, H. Neugebauer, J. Pisarek, C. Plett, P. Pracht, F. Pultar,
   J. Seibert, P. Shushkov, S. Spicher, M. Stahn, M. Steiner, T. Strunk,
   J. Stückrath, T. Rose, and J. Unsleber
   
 * started run on 2024/11/14 at 11:32:37.190     

           -------------------------------------------------
          |                Calculation Setup                |
           -------------------------------------------------

          program call               : xtb stacked_dimer_Nitro4.mol --opt --gfn2 --chrg -1 --uhf 0 --tight
          coordinate file            : stacked_dimer_Nitro4.mol
          omp threads                :                     8

   ID    Z sym.   atoms
    1    6 C      1-35, 39, 40, 42-45, 91-125, 129, 130, 132-135
    2   35 Br     36, 126
    3    7 N      37, 46, 48, 127, 136, 138
    4   14 Si     38, 128
    5    8 O      41, 47, 49, 131, 137, 139
    6    1 H      50-90, 140-180
########################################################################
[WARNING] Please study the warnings concerning your input carefully
-1- prog_main_parseArguments: Unknown option '--tight' provided
########################################################################

           -------------------------------------------------
          |                 G F N 2 - x T B                 |
           -------------------------------------------------

        Reference                      10.1021/acs.jctc.8b01176
      * Hamiltonian:
        H0-scaling (s, p, d)           1.850000    2.230000    2.230000
        zeta-weighting                 0.500000
      * Dispersion:
        s8                             2.700000
        a1                             0.520000
        a2                             5.000000
        s9                             5.000000
      * Repulsion:
        kExp                           1.500000    1.000000
        rExp                           1.000000
      * Coulomb:
        alpha                          2.000000
        third order                    shell-resolved
        anisotropic                    true
        a3                             3.000000
        a5                             4.000000
        cn-shift                       1.200000
        cn-exp                         4.000000
        max-rad                        5.000000

q/qsh data taken from xtbrestart
CAMM data taken from xtbrestart

          ...................................................
          :                      SETUP                      :
          :.................................................:
          :  # basis functions                 498          :
          :  # atomic orbitals                 494          :
          :  # shells                          282          :
          :  # electrons                       499          :
          :  max. iterations                   250          :
          :  Hamiltonian                  GFN2-xTB          :
          :  restarted?                       true          :
          :  GBSA solvation                  false          :
          :  PC potential                    false          :
          :  electronic temp.          300.0000000     K    :
          :  accuracy                    1.0000000          :
          :  -> integral cutoff          0.2500000E+02      :
          :  -> integral neglect         0.1000000E-07      :
          :  -> SCF convergence          0.1000000E-05 Eh   :
          :  -> wf. convergence          0.1000000E-03 e    :
          :  Broyden damping             0.4000000          :
          ...................................................

 iter      E             dE          RMSdq      gap      omega  full diag
   1   -274.9421221 -0.274942E+03  0.207E+00    1.35       0.0  T
   2   -274.5769436  0.365179E+00  0.155E+00    0.10       1.0  T
   3   -274.3779579  0.198986E+00  0.142E+00    0.54       1.0  T
   4   -274.9198606 -0.541903E+00  0.804E-01    1.33       1.0  T
   5   -274.9645401 -0.446795E-01  0.493E-01    0.98       1.0  T
   6   -274.9799368 -0.153967E-01  0.441E-01    0.75       1.0  T
   7   -274.9939943 -0.140574E-01  0.382E-01    0.74       1.0  T
   8   -274.9898744  0.411990E-02  0.382E-01    0.53       1.0  T
   9   -275.0027944 -0.129200E-01  0.314E-01    0.23       1.0  T
  10   -275.0366320 -0.338377E-01  0.919E-02    0.14       1.0  T
  11   -275.0282313  0.840073E-02  0.167E-01    0.17       1.0  T
  12   -275.0373807 -0.914943E-02  0.662E-02    0.14       1.0  T
  13   -275.0383869 -0.100616E-02  0.389E-02    0.23       1.0  T
  14   -275.0366371  0.174980E-02  0.763E-02    0.16       1.0  T
  15   -275.0362098  0.427296E-03  0.829E-02    0.19       1.0  T
  16   -275.0387810 -0.257126E-02  0.256E-02    0.19       1.0  T
  17   -275.0389284 -0.147358E-03  0.141E-02    0.17       1.0  T
  18   -275.0389967 -0.683064E-04  0.634E-03    0.18       1.2  T
  19   -275.0390109 -0.141607E-04  0.229E-03    0.18       3.3  T
  20   -275.0390045  0.633914E-05  0.442E-03    0.18       1.7  T
  21   -275.0390122 -0.764446E-05  0.879E-04    0.18       8.5  T
  22   -275.0390124 -0.223527E-06  0.277E-04    0.18      26.9  T
  23   -275.0390124  0.226578E-08  0.249E-04    0.18      30.0  T

   *** convergence criteria satisfied after 23 iterations ***

         #    Occupation            Energy/Eh            Energy/eV
      -------------------------------------------------------------
         1        2.0000           -0.7543653             -20.5273
       ...           ...                  ...                  ...
       244        2.0000           -0.2710646              -7.3760
       245        2.0000           -0.2700993              -7.3498
       246        2.0000           -0.2691846              -7.3249
       247        2.0000           -0.2681436              -7.2966
       248        2.0000           -0.2605043              -7.0887
       249        1.4847           -0.2010406              -5.4706
       250        1.4730           -0.2009996              -5.4695 (HOMO)
       251        0.0420           -0.1943626              -5.2889 (LUMO)
       252        0.0003           -0.1895972              -5.1592
       253        0.0000           -0.1835772              -4.9954
       254                         -0.1734510              -4.7198
       255                         -0.1729966              -4.7075
       ...                                ...                  ...
       494                          0.8278985              22.5283
      -------------------------------------------------------------
                  HL-Gap            0.0066370 Eh            0.1806 eV
             Fermi-level           -0.1991885 Eh           -5.4202 eV

 SCC (total)                   0 d,  0 h,  0 min,  5.424 sec
 SCC setup                      ...        0 min,  0.001 sec (  0.016%)
 Dispersion                     ...        0 min,  0.004 sec (  0.070%)
 classical contributions        ...        0 min,  0.001 sec (  0.012%)
 integral evaluation            ...        0 min,  0.017 sec (  0.306%)
 iterations                     ...        0 min,  5.209 sec ( 96.040%)
 molecular gradient             ...        0 min,  0.137 sec (  2.524%)
 printout                       ...        0 min,  0.056 sec (  1.031%)

         :::::::::::::::::::::::::::::::::::::::::::::::::::::
         ::                     SUMMARY                     ::
         :::::::::::::::::::::::::::::::::::::::::::::::::::::
         :: total energy            -270.870740016909 Eh    ::
         :: gradient norm              0.303152579068 Eh/a0 ::
         :: HOMO-LUMO gap              0.180601679138 eV    ::
         ::.................................................::
         :: SCC energy              -275.039012386265 Eh    ::
         :: -> isotropic ES            0.344177481657 Eh    ::
         :: -> anisotropic ES          0.027975764932 Eh    ::
         :: -> anisotropic XC          0.085180200702 Eh    ::
         :: -> dispersion             -0.296588736606 Eh    ::
         :: repulsion energy           4.147812114285 Eh    ::
         :: add. restraining           0.000000000000 Eh    ::
         :: total charge              -1.000003013583 e     ::
         :::::::::::::::::::::::::::::::::::::::::::::::::::::

      ----------------------------------------------------------- 
     |                   =====================                   |
     |                        A N C O P T                        |
     |                   =====================                   |
     |               Approximate Normal Coordinate               |
     |                Rational Function Optimizer                |
      ----------------------------------------------------------- 

          ...................................................
          :                      SETUP                      :
          :.................................................:
          :   optimization level            normal          :
          :   max. optcycles                   540          :
          :   ANC micro-cycles                  20          :
          :   degrees of freedom               534          :
          :.................................................:
          :   RF solver                   davidson          :
          :   write xtbopt.log                true          :
          :   linear?                        false          :
          :   energy convergence         0.5000000E-05 Eh   :
          :   grad. convergence          0.1000000E-02 Eh/α :
          :   maxmium RF displ.          1.0000000          :
          :   Hlow (freq-cutoff)         0.1000000E-01      :
          :   Hmax (freq-cutoff)         5.0000000          :
          :   S6 in model hess.         20.0000000          :
          ...................................................

generating ANC from model Hessian ...
Using Lindh-Hessian (1995)
 Shifting diagonal of input Hessian by    1.0010411576092466E-002
 Lowest  eigenvalues of input Hessian
    0.010000    0.000000    0.000000    0.000000    0.000000    0.000000
    0.000000    0.010027    0.010050    0.010082    0.010092    0.010101
    0.010133    0.010221    0.010257    0.010347    0.010424    0.010496
 Highest eigenvalues
    2.176591    2.189577    2.209106    2.209166    2.395769    2.395931


........................................................................
.............................. CYCLE    1 ..............................
........................................................................

 iter      E             dE          RMSdq      gap      omega  full diag
   1   -275.0390124 -0.275039E+03  0.190E-04    0.18       0.0  T
   2   -275.0390054  0.697291E-05  0.414E-03    0.18       1.8  T
   3   -275.0390124 -0.698068E-05  0.113E-04    0.18      65.9  T
   4   -275.0390124 -0.297996E-08  0.761E-05    0.18      98.0  T
   5   -275.0390124 -0.171605E-08  0.364E-05    0.18     204.5  T
     SCC iter.                  ...        0 min,  0.625 sec
     gradient                   ...        0 min,  0.115 sec
 * total energy  :  -270.8707400 Eh     change       -0.1854994E-07 Eh
   gradient norm :     0.3031507 Eh/α   predicted     0.0000000E+00 (-100.00%)
   displ. norm   :     0.7059764 α      lambda       -0.1827159E+00
   maximum displ.:     0.1573633 α      in ANC's #313, #133, #151, ...

........................................................................
.............................. CYCLE    2 ..............................
........................................................................

 iter      E             dE          RMSdq      gap      omega  full diag
   1   -275.1802233 -0.275180E+03  0.262E-01    0.30       0.0  T
   2   -275.1173894  0.628339E-01  0.454E-01    0.10       1.0  T
   3   -275.0526925  0.646969E-01  0.572E-01    0.03       1.0  T
   4   -275.1707655 -0.118073E+00  0.211E-01    0.50       1.0  T
   5   -275.1738334 -0.306791E-02  0.175E-01    0.41       1.0  T
   6   -275.1822571 -0.842364E-02  0.701E-02    0.30       1.0  T
   7   -275.1832148 -0.957724E-03  0.298E-02    0.20       1.0  T
   8   -275.1822811  0.933691E-03  0.520E-02    0.19       1.0  T
   9   -275.1830419 -0.760766E-03  0.282E-02    0.17       1.0  T
  10   -275.1829546  0.873037E-04  0.289E-02    0.20       1.0  T
  11   -275.1831945 -0.239920E-03  0.152E-02    0.21       1.0  T
  12   -275.1832658 -0.713096E-04  0.576E-03    0.20       1.3  T
  13   -275.1832549  0.109025E-04  0.777E-03    0.20       1.0  T
  14   -275.1832767 -0.217813E-04  0.249E-03    0.21       3.0  T
  15   -275.1832784 -0.176043E-05  0.968E-04    0.20       7.7  T
  16   -275.1832786 -0.193394E-06  0.602E-04    0.20      12.4  T
  17   -275.1832785  0.130756E-06  0.808E-04    0.20       9.2  T
     SCC iter.                  ...        0 min,  4.107 sec
     gradient                   ...        0 min,  0.155 sec
 * total energy  :  -271.0098351 Eh     change       -0.1390951E+00 Eh
   gradient norm :     0.1684487 Eh/α   predicted    -0.1369191E+00 (  -1.56%)
   displ. norm   :     0.6333705 α      lambda       -0.9296849E-01
   maximum displ.:     0.1376828 α      in ANC's #133, #109, #151, ...

........................................................................
.............................. CYCLE    3 ..............................
........................................................................

 iter      E             dE          RMSdq      gap      omega  full diag
   1   -275.2578657 -0.275258E+03  0.173E-01    0.30       0.0  T
   2   -275.1956487  0.622171E-01  0.424E-01    0.13       1.0  T
   3   -275.2091113 -0.134627E-01  0.366E-01    0.15       1.0  T
   4   -275.2355866 -0.264753E-01  0.252E-01    0.32       1.0  T
   5   -275.2550188 -0.194322E-01  0.112E-01    0.24       1.0  T
   6   -275.2596358 -0.461691E-02  0.173E-02    0.24       1.0  T
   7   -275.2593868  0.248954E-03  0.276E-02    0.22       1.0  T
   8   -275.2595345 -0.147716E-03  0.186E-02    0.22       1.0  T
   9   -275.2596598 -0.125306E-03  0.495E-03    0.23       1.5  T
  10   -275.2596562  0.364434E-05  0.522E-03    0.23       1.4  T
  11   -275.2596616 -0.540016E-05  0.306E-03    0.23       2.4  T
  12   -275.2596648 -0.320407E-05  0.773E-04    0.23       9.6  T
  13   -275.2596637  0.103620E-05  0.171E-03    0.23       4.4  T
  14   -275.2596647 -0.994185E-06  0.665E-04    0.23      11.2  T
  15   -275.2596649 -0.152487E-06  0.191E-04    0.23      38.9  T
     SCC iter.                  ...        0 min,  5.176 sec
     gradient                   ...        0 min,  0.162 sec
 * total energy  :  -271.0817321 Eh     change       -0.7189700E-01 Eh
   gradient norm :     0.0939373 Eh/α   predicted    -0.6513180E-01 (  -9.41%)
   displ. norm   :     0.6783671 α      lambda       -0.5436556E-01
   maximum displ.:     0.1702414 α      in ANC's #109, #133, #75, ...

........................................................................
.............................. CYCLE    4 ..............................
........................................................................

 iter      E             dE          RMSdq      gap      omega  full diag
   1   -275.3013005 -0.275301E+03  0.116E-01    0.27       0.0  T
   2   -275.2475386  0.537619E-01  0.380E-01    0.17       1.0  T
   3   -275.2788734 -0.313348E-01  0.247E-01    0.20       1.0  T
   4   -275.2913372 -0.124638E-01  0.168E-01    0.27       1.0  T
   5   -275.3020288 -0.106915E-01  0.191E-02    0.25       1.0  T
   6   -275.3018297  0.199077E-03  0.271E-02    0.24       1.0  T
   7   -275.3020671 -0.237394E-03  0.108E-02    0.25       1.0  T
   8   -275.3021108 -0.437311E-04  0.235E-03    0.25       3.2  T
   9   -275.3021092  0.165243E-05  0.276E-03    0.25       2.7  T
  10   -275.3021117 -0.254191E-05  0.896E-04    0.25       8.3  T
  11   -275.3021115  0.202854E-06  0.996E-04    0.25       7.5  T
  12   -275.3021118 -0.276908E-06  0.435E-04    0.25      17.1  T
     SCC iter.                  ...        0 min,  2.061 sec
     gradient                   ...        0 min,  0.130 sec
 * total energy  :  -271.1257321 Eh     change       -0.4400003E-01 Eh
   gradient norm :     0.0567263 Eh/α   predicted    -0.3969192E-01 (  -9.79%)
   displ. norm   :     0.7157362 α      lambda       -0.3522556E-01
   maximum displ.:     0.1812299 α      in ANC's #109, #75, #133, ...

........................................................................
.............................. CYCLE    5 ..............................
........................................................................

 iter      E             dE          RMSdq      gap      omega  full diag
   1   -275.3259090 -0.275326E+03  0.982E-02    0.25       0.0  T
   2   -275.2748517  0.510573E-01  0.367E-01    0.19       1.0  T
   3   -275.3153418 -0.404901E-01  0.173E-01    0.23       1.0  T
   4   -275.3197572 -0.441542E-02  0.132E-01    0.26       1.0  T
   5   -275.3264047 -0.664749E-02  0.112E-02    0.25       1.0  T
   6   -275.3261944  0.210290E-03  0.241E-02    0.25       1.0  T
   7   -275.3263838 -0.189377E-03  0.946E-03    0.25       1.0  T
   8   -275.3263932 -0.941884E-05  0.742E-03    0.25       1.0  T
   9   -275.3264078 -0.145910E-04  0.399E-03    0.25       1.9  T
  10   -275.3264126 -0.473538E-05  0.174E-03    0.25       4.3  T
  11   -275.3264132 -0.624855E-06  0.104E-03    0.25       7.1  T
  12   -275.3264136 -0.373619E-06  0.293E-04    0.25      25.4  T
  13   -275.3264136 -0.117903E-07  0.173E-04    0.25      43.0  T
     SCC iter.                  ...        0 min,  1.929 sec
     gradient                   ...        0 min,  0.130 sec
 * total energy  :  -271.1542120 Eh     change       -0.2847987E-01 Eh
   gradient norm :     0.0345496 Eh/α   predicted    -0.2663579E-01 (  -6.48%)
   displ. norm   :     0.7329388 α      lambda       -0.2225783E-01
   maximum displ.:     0.2082186 α      in ANC's #58, #75, #109, ...

........................................................................
.............................. CYCLE    6 ..............................
........................................................................

 iter      E             dE          RMSdq      gap      omega  full diag
   1   -275.3390654 -0.275339E+03  0.890E-02    0.25       0.0  T
   2   -275.3273001  0.117653E-01  0.180E-01    0.24       1.0  T
   3   -275.3048887  0.224115E-01  0.296E-01    0.19       1.0  T
   4   -275.3388122 -0.339236E-01  0.364E-02    0.27       1.0  T
   5   -275.3390820 -0.269818E-03  0.184E-02    0.25       1.0  T
   6   -275.3391563 -0.742193E-04  0.906E-03    0.25       1.0  T
   7   -275.3391655 -0.926863E-05  0.524E-03    0.25       1.4  T
   8   -275.3391600  0.549949E-05  0.523E-03    0.25       1.4  T
   9   -275.3391691 -0.903442E-05  0.139E-03    0.25       5.4  T
  10   -275.3391689  0.175674E-06  0.111E-03    0.25       6.7  T
  11   -275.3391692 -0.275583E-06  0.505E-04    0.25      14.8  T
  12   -275.3391692  0.161999E-07  0.447E-04    0.25      16.7  T
     SCC iter.                  ...        0 min,  1.774 sec
     gradient                   ...        0 min,  0.116 sec
 * total energy  :  -271.1724768 Eh     change       -0.1826481E-01 Eh
   gradient norm :     0.0231533 Eh/α   predicted    -0.1710737E-01 (  -6.34%)
   displ. norm   :     0.7454091 α      lambda       -0.1474025E-01
   maximum displ.:     0.2493704 α      in ANC's #58, #75, #77, ...

........................................................................
.............................. CYCLE    7 ..............................
........................................................................

 iter      E             dE          RMSdq      gap      omega  full diag
   1   -275.3458134 -0.275346E+03  0.828E-02    0.25       0.0  T
   2   -275.3192384  0.265750E-01  0.262E-01    0.21       1.0  T
   3   -275.3283903 -0.915196E-02  0.215E-01    0.24       1.0  T
   4   -275.3458346 -0.174443E-01  0.232E-02    0.27       1.0  T
   5   -275.3459207 -0.860718E-04  0.108E-02    0.26       1.0  T
   6   -275.3459146  0.611570E-05  0.922E-03    0.26       1.0  T
   7   -275.3459219 -0.731445E-05  0.619E-03    0.26       1.2  T
   8   -275.3459159  0.600659E-05  0.660E-03    0.26       1.1  T
   9   -275.3459313 -0.153928E-04  0.192E-03    0.26       3.9  T
  10   -275.3459320 -0.772006E-06  0.945E-04    0.26       7.9  T
  11   -275.3459322 -0.149426E-06  0.528E-04    0.26      14.1  T
     SCC iter.                  ...        0 min,  1.651 sec
     gradient                   ...        0 min,  0.115 sec
 * total energy  :  -271.1846884 Eh     change       -0.1221156E-01 Eh
   gradient norm :     0.0173770 Eh/α   predicted    -0.1146533E-01 (  -6.11%)
   displ. norm   :     0.7570617 α      lambda       -0.1012949E-01
   maximum displ.:     0.2704859 α      in ANC's #58, #75, #41, ...

........................................................................
.............................. CYCLE    8 ..............................
........................................................................

 iter      E             dE          RMSdq      gap      omega  full diag
   1   -275.3490329 -0.275349E+03  0.786E-02    0.26       0.0  T
   2   -275.2946847  0.543482E-01  0.371E-01    0.17       1.0  T
   3   -275.3435824 -0.488977E-01  0.127E-01    0.26       1.0  T
   4   -275.3468749 -0.329247E-02  0.799E-02    0.28       1.0  T
   5   -275.3491685 -0.229365E-02  0.225E-02    0.26       1.0  T
   6   -275.3493419 -0.173419E-03  0.590E-03    0.26       1.3  T
   7   -275.3493433 -0.140980E-05  0.394E-03    0.27       1.9  T
   8   -275.3493407  0.264400E-05  0.366E-03    0.27       2.0  T
   9   -275.3493435 -0.277398E-05  0.190E-03    0.27       3.9  T
  10   -275.3493445 -0.100611E-05  0.743E-04    0.27      10.0  T
  11   -275.3493445 -0.373587E-07  0.442E-04    0.27      16.8  T
  12   -275.3493445 -0.297586E-07  0.225E-04    0.27      33.2  T
     SCC iter.                  ...        0 min,  1.970 sec
     gradient                   ...        0 min,  0.120 sec
 * total energy  :  -271.1931805 Eh     change       -0.8492097E-02 Eh
   gradient norm :     0.0138583 Eh/α   predicted    -0.7967566E-02 (  -6.18%)
   displ. norm   :     0.7723426 α      lambda       -0.7302089E-02
   maximum displ.:     0.2709279 α      in ANC's #58, #75, #21, ...

........................................................................
.............................. CYCLE    9 ..............................
........................................................................

 iter      E             dE          RMSdq      gap      omega  full diag
   1   -275.3508594 -0.275351E+03  0.728E-02    0.28       0.0  T
   2   -275.2964177  0.544417E-01  0.371E-01    0.18       1.0  T
   3   -275.3473603 -0.509426E-01  0.104E-01    0.27       1.0  T
   4   -275.3491866 -0.182639E-02  0.715E-02    0.28       1.0  T
   5   -275.3510986 -0.191198E-02  0.154E-02    0.28       1.0  T
   6   -275.3511740 -0.753429E-04  0.492E-03    0.28       1.5  T
   7   -275.3511742 -0.220467E-06  0.360E-03    0.28       2.1  T
   8   -275.3511681  0.608005E-05  0.464E-03    0.28       1.6  T
   9   -275.3511751 -0.700055E-05  0.149E-03    0.28       5.0  T
  10   -275.3511756 -0.532390E-06  0.620E-04    0.28      12.0  T
  11   -275.3511757 -0.426624E-07  0.310E-04    0.28      24.1  T
     SCC iter.                  ...        0 min,  1.956 sec
     gradient                   ...        0 min,  0.184 sec
 * total energy  :  -271.1993935 Eh     change       -0.6213067E-02 Eh
   gradient norm :     0.0107666 Eh/α   predicted    -0.5828943E-02 (  -6.18%)
   displ. norm   :     0.7899683 α      lambda       -0.5547402E-02
   maximum displ.:     0.2545099 α      in ANC's #58, #21, #41, ...

........................................................................
.............................. CYCLE   10 ..............................
........................................................................

 iter      E             dE          RMSdq      gap      omega  full diag
   1   -275.3520726 -0.275352E+03  0.661E-02    0.29       0.0  T
   2   -275.3072191  0.448535E-01  0.336E-01    0.21       1.0  T
   3   -275.3484401 -0.412210E-01  0.104E-01    0.28       1.0  T
   4   -275.3514690 -0.302886E-02  0.461E-02    0.29       1.0  T
   5   -275.3522264 -0.757371E-03  0.127E-02    0.30       1.0  T
   6   -275.3522714 -0.450408E-04  0.534E-03    0.29       1.4  T
   7   -275.3522754 -0.402236E-05  0.305E-03    0.29       2.4  T
   8   -275.3522751  0.366707E-06  0.226E-03    0.29       3.3  T
   9   -275.3522756 -0.514592E-06  0.153E-03    0.29       4.9  T
  10   -275.3522763 -0.690779E-06  0.401E-04    0.29      18.6  T
  11   -275.3522762  0.263927E-07  0.343E-04    0.29      21.7  T
     SCC iter.                  ...        0 min,  1.561 sec
     gradient                   ...        0 min,  0.144 sec
 * total energy  :  -271.2041857 Eh     change       -0.4792210E-02 Eh
   gradient norm :     0.0085957 Eh/α   predicted    -0.4504632E-02 (  -6.00%)
   displ. norm   :     0.8053285 α      lambda       -0.4407370E-02
   maximum displ.:     0.2377430 α      in ANC's #21, #58, #11, ...

........................................................................
.............................. CYCLE   11 ..............................
........................................................................

 iter      E             dE          RMSdq      gap      omega  full diag
   1   -275.3529163 -0.275353E+03  0.602E-02    0.30       0.0  T
   2   -275.3257902  0.271261E-01  0.261E-01    0.25       1.0  T
   3   -275.3476863 -0.218961E-01  0.119E-01    0.29       1.0  T
   4   -275.3529068 -0.522045E-02  0.192E-02    0.31       1.0  T
   5   -275.3529970 -0.901933E-04  0.767E-03    0.31       1.0  T
   6   -275.3530049 -0.797814E-05  0.480E-03    0.30       1.6  T
   7   -275.3530087 -0.373636E-05  0.259E-03    0.30       2.9  T
   8   -275.3530084  0.313089E-06  0.189E-03    0.30       3.9  T
   9   -275.3530092 -0.811089E-06  0.850E-04    0.30       8.8  T
  10   -275.3530089  0.223228E-06  0.900E-04    0.30       8.3  T
     SCC iter.                  ...        0 min,  1.554 sec
     gradient                   ...        0 min,  0.126 sec
 * total energy  :  -271.2080351 Eh     change       -0.3849325E-02 Eh
   gradient norm :     0.0075280 Eh/α   predicted    -0.3632897E-02 (  -5.62%)
   displ. norm   :     0.8134918 α      lambda       -0.3584383E-02
   maximum displ.:     0.2594939 α      in ANC's #21, #11, #9, ...

........................................................................
.............................. CYCLE   12 ..............................
........................................................................

 iter      E             dE          RMSdq      gap      omega  full diag
   1   -275.3535476 -0.275354E+03  0.553E-02    0.31       0.0  T
   2   -275.3514217  0.212592E-02  0.795E-02    0.31       1.0  T
   3   -275.3222338  0.291879E-01  0.278E-01    0.26       1.0  T
   4   -275.3535169 -0.312831E-01  0.146E-02    0.31       1.0  T
   5   -275.3535385 -0.216191E-04  0.940E-03    0.32       1.0  T
   6   -275.3535613 -0.228017E-04  0.435E-03    0.31       1.7  T
   7   -275.3535635 -0.215860E-05  0.299E-03    0.31       2.5  T
   8   -275.3535654 -0.192429E-05  0.137E-03    0.31       5.4  T
   9   -275.3535655 -0.103080E-06  0.101E-03    0.31       7.4  T
  10   -275.3535653  0.203419E-06  0.105E-03    0.31       7.1  T
  11   -275.3535657 -0.403570E-06  0.241E-04    0.31      30.9  T
  12   -275.3535657 -0.956101E-08  0.148E-04    0.31      50.5  T
     SCC iter.                  ...        0 min,  1.444 sec
     gradient                   ...        0 min,  0.117 sec
 * total energy  :  -271.2111770 Eh     change       -0.3141977E-02 Eh
   gradient norm :     0.0067466 Eh/α   predicted    -0.2978212E-02 (  -5.21%)
   displ. norm   :     0.8125956 α      lambda       -0.2909034E-02
   maximum displ.:     0.2712727 α      in ANC's #21, #11, #10, ...

........................................................................
.............................. CYCLE   13 ..............................
........................................................................

 iter      E             dE          RMSdq      gap      omega  full diag
   1   -275.3540890 -0.275354E+03  0.527E-02    0.32       0.0  T
   2   -275.3493965  0.469250E-02  0.111E-01    0.30       1.0  T
   3   -275.3383108  0.110857E-01  0.199E-01    0.29       1.0  T
   4   -275.3538970 -0.155862E-01  0.244E-02    0.31       1.0  T
   5   -275.3540813 -0.184311E-03  0.924E-03    0.32       1.0  T
   6   -275.3541101 -0.287684E-04  0.247E-03    0.32       3.0  T
   7   -275.3541098  0.285292E-06  0.193E-03    0.32       3.9  T
   8   -275.3541096  0.198378E-06  0.163E-03    0.32       4.6  T
   9   -275.3541101 -0.538786E-06  0.986E-04    0.32       7.6  T
  10   -275.3541103 -0.201694E-06  0.454E-04    0.32      16.4  T
     SCC iter.                  ...        0 min,  1.346 sec
     gradient                   ...        0 min,  0.125 sec
 * total energy  :  -271.2137188 Eh     change       -0.2541791E-02 Eh
   gradient norm :     0.0057275 Eh/α   predicted    -0.2414961E-02 (  -4.99%)
   displ. norm   :     0.8026173 α      lambda       -0.2316198E-02
   maximum displ.:     0.2716802 α      in ANC's #21, #11, #10, ...

........................................................................
.............................. CYCLE   14 ..............................
........................................................................

 iter      E             dE          RMSdq      gap      omega  full diag
   1   -275.3546209 -0.275355E+03  0.500E-02    0.32       0.0  T
   2   -275.3545159  0.105015E-03  0.337E-02    0.31       1.0  T
   3   -275.3081871  0.463288E-01  0.337E-01    0.23       1.0  T
   4   -275.3545751 -0.463880E-01  0.143E-02    0.32       1.0  T
   5   -275.3545990 -0.238924E-04  0.948E-03    0.32       1.0  T
   6   -275.3546308 -0.318632E-04  0.215E-03    0.31       3.5  T
   7   -275.3546305  0.324431E-06  0.178E-03    0.31       4.2  T
   8   -275.3546311 -0.572710E-06  0.756E-04    0.32       9.9  T
   9   -275.3546309  0.189455E-06  0.842E-04    0.32       8.9  T
     SCC iter.                  ...        0 min,  1.274 sec
     gradient                   ...        0 min,  0.116 sec
 * total energy  :  -271.2157320 Eh     change       -0.2013122E-02 Eh
   gradient norm :     0.0047658 Eh/α   predicted    -0.1904149E-02 (  -5.41%)
   displ. norm   :     0.7909055 α      lambda       -0.1827676E-02
   maximum displ.:     0.2658446 α      in ANC's #11, #10, #21, ...

........................................................................
.............................. CYCLE   15 ..............................
........................................................................

 iter      E             dE          RMSdq      gap      omega  full diag
   1   -275.3551459 -0.275355E+03  0.481E-02    0.31       0.0  T
   2   -275.3488748  0.627115E-02  0.127E-01    0.30       1.0  T
   3   -275.3453240  0.355079E-02  0.157E-01    0.29       1.0  T
   4   -275.3550928 -0.976885E-02  0.161E-02    0.31       1.0  T
   5   -275.3551656 -0.727610E-04  0.427E-03    0.31       1.7  T
   6   -275.3551684 -0.279991E-05  0.215E-03    0.31       3.5  T
   7   -275.3551684  0.129295E-07  0.154E-03    0.31       4.9  T
   8   -275.3551685 -0.151740E-06  0.100E-03    0.31       7.5  T
   9   -275.3551687 -0.166917E-06  0.601E-04    0.31      12.4  T
     SCC iter.                  ...        0 min,  1.538 sec
     gradient                   ...        0 min,  0.108 sec
 * total energy  :  -271.2173165 Eh     change       -0.1584577E-02 Eh
   gradient norm :     0.0042720 Eh/α   predicted    -0.1485486E-02 (  -6.25%)
   displ. norm   :     0.7804408 α      lambda       -0.1457357E-02
   maximum displ.:     0.2721627 α      in ANC's #10, #11, #21, ...

........................................................................
.............................. CYCLE   16 ..............................
........................................................................

 iter      E             dE          RMSdq      gap      omega  full diag
   1   -275.3556691 -0.275356E+03  0.462E-02    0.31       0.0  T
   2   -275.3554984  0.170684E-03  0.343E-02    0.30       1.0  T
   3   -275.3097514  0.457471E-01  0.334E-01    0.23       1.0  T
   4   -275.3556361 -0.458847E-01  0.132E-02    0.31       1.0  T
   5   -275.3556395 -0.334242E-05  0.100E-02    0.31       1.0  T
   6   -275.3556773 -0.378148E-04  0.218E-03    0.30       3.4  T
   7   -275.3556770  0.300977E-06  0.186E-03    0.30       4.0  T
   8   -275.3556776 -0.572799E-06  0.101E-03    0.30       7.4  T
   9   -275.3556777 -0.161208E-06  0.629E-04    0.30      11.9  T
  10   -275.3556778 -0.541947E-07  0.365E-04    0.30      20.4  T
     SCC iter.                  ...        0 min,  1.374 sec
     gradient                   ...        0 min,  0.112 sec
 * total energy  :  -271.2185828 Eh     change       -0.1266297E-02 Eh
   gradient norm :     0.0041326 Eh/α   predicted    -0.1172530E-02 (  -7.40%)
   displ. norm   :     0.7741986 α      lambda       -0.1200428E-02
   maximum displ.:     0.2775342 α      in ANC's #10, #11, #21, ...

........................................................................
.............................. CYCLE   17 ..............................
........................................................................

 iter      E             dE          RMSdq      gap      omega  full diag
   1   -275.3561376 -0.275356E+03  0.465E-02    0.30       0.0  T
   2   -275.3450189  0.111187E-01  0.166E-01    0.28       1.0  T
   3   -275.3513236 -0.630475E-02  0.111E-01    0.28       1.0  T
   4   -275.3560077 -0.468413E-02  0.214E-02    0.30       1.0  T
   5   -275.3561645 -0.156813E-03  0.504E-03    0.30       1.5  T
   6   -275.3561712 -0.664230E-05  0.204E-03    0.30       3.7  T
   7   -275.3561707  0.442873E-06  0.182E-03    0.30       4.1  T
   8   -275.3561716 -0.812854E-06  0.701E-04    0.30      10.6  T
   9   -275.3561715  0.848061E-07  0.694E-04    0.30      10.7  T
     SCC iter.                  ...        0 min,  1.221 sec
     gradient                   ...        0 min,  0.119 sec
 * total energy  :  -271.2196309 Eh     change       -0.1048087E-02 Eh
   gradient norm :     0.0039702 Eh/α   predicted    -0.9599741E-03 (  -8.41%)
   displ. norm   :     0.7723726 α      lambda       -0.1025028E-02
   maximum displ.:     0.2798516 α      in ANC's #10, #11, #1, ...

........................................................................
.............................. CYCLE   18 ..............................
........................................................................

 iter      E             dE          RMSdq      gap      omega  full diag
   1   -275.3564772 -0.275356E+03  0.480E-02    0.30       0.0  T
   2   -275.3386260  0.178512E-01  0.210E-01    0.27       1.0  T
   3   -275.3533559 -0.147299E-01  0.911E-02    0.28       1.0  T
   4   -275.3561790 -0.282306E-02  0.300E-02    0.30       1.0  T
   5   -275.3565153 -0.336342E-03  0.688E-03    0.29       1.1  T
   6   -275.3565315 -0.161361E-04  0.198E-03    0.29       3.8  T
   7   -275.3565311  0.418908E-06  0.184E-03    0.29       4.1  T
   8   -275.3565319 -0.810504E-06  0.752E-04    0.29       9.9  T
   9   -275.3565317  0.175796E-06  0.880E-04    0.29       8.5  T
     SCC iter.                  ...        0 min,  1.126 sec
     gradient                   ...        0 min,  0.124 sec
 * total energy  :  -271.2205277 Eh     change       -0.8967950E-03 Eh
   gradient norm :     0.0035917 Eh/α   predicted    -0.8182649E-03 (  -8.76%)
   displ. norm   :     0.7707236 α      lambda       -0.8886742E-03
   maximum displ.:     0.2777596 α      in ANC's #10, #11, #1, ...

........................................................................
.............................. CYCLE   19 ..............................
........................................................................

 iter      E             dE          RMSdq      gap      omega  full diag
   1   -275.3568600 -0.275357E+03  0.495E-02    0.29       0.0  T
   2   -275.3393536  0.175065E-01  0.208E-01    0.26       1.0  T
   3   -275.3531360 -0.137825E-01  0.988E-02    0.28       1.0  T
   4   -275.3564812 -0.334512E-02  0.327E-02    0.29       1.0  T
   5   -275.3568982 -0.417046E-03  0.646E-03    0.29       1.2  T
   6   -275.3569128 -0.145875E-04  0.174E-03    0.29       4.3  T
   7   -275.3569125  0.336523E-06  0.165E-03    0.29       4.5  T
   8   -275.3569131 -0.687826E-06  0.624E-04    0.29      11.9  T
   9   -275.3569129  0.232093E-06  0.871E-04    0.29       8.6  T
     SCC iter.                  ...        0 min,  1.112 sec
     gradient                   ...        0 min,  0.116 sec
 * total energy  :  -271.2213013 Eh     change       -0.7736114E-03 Eh
   gradient norm :     0.0032530 Eh/α   predicted    -0.7082866E-03 (  -8.44%)
   displ. norm   :     0.7630243 α      lambda       -0.7556179E-03
   maximum displ.:     0.2680929 α      in ANC's #10, #11, #1, ...

........................................................................
.............................. CYCLE   20 ..............................
........................................................................

 iter      E             dE          RMSdq      gap      omega  full diag
   1   -275.3565871 -0.275357E+03  0.502E-02    0.29       0.0  T
   2   -275.3432405  0.133466E-01  0.182E-01    0.26       1.0  T
   3   -275.3509599 -0.771937E-02  0.119E-01    0.27       1.0  T
   4   -275.3562253 -0.526537E-02  0.314E-02    0.29       1.0  T
   5   -275.3566198 -0.394569E-03  0.475E-03    0.29       1.6  T
   6   -275.3566265 -0.668505E-05  0.178E-03    0.29       4.2  T
   7   -275.3566262  0.284912E-06  0.160E-03    0.29       4.7  T
   8   -275.3566267 -0.506437E-06  0.674E-04    0.29      11.1  T
   9   -275.3566264  0.297127E-06  0.961E-04    0.29       7.8  T
     SCC iter.                  ...        0 min,  1.315 sec
     gradient                   ...        0 min,  0.118 sec
 * total energy  :  -271.2219515 Eh     change       -0.6501507E-03 Eh
   gradient norm :     0.0030508 Eh/α   predicted    -0.5977765E-03 (  -8.06%)
   displ. norm   :     0.7449502 α      lambda       -0.6336140E-03
   maximum displ.:     0.2628006 α      in ANC's #1, #10, #11, ...
 * RMSD in coord.:     0.9219323 α      energy gain  -0.3512115E+00 Eh

generating ANC from model Hessian ...
Using Lindh-Hessian (1995)
 Shifting diagonal of input Hessian by    1.0040187667963725E-002
 Lowest  eigenvalues of input Hessian
    0.010000    0.010018    0.010032    0.000000    0.000000    0.000000
    0.000000    0.000000    0.000000    0.010040    0.010070    0.010080
    0.010104    0.010126    0.010126    0.010150    0.010254    0.010307
 Highest eigenvalues
    2.171943    2.173898    2.187744    2.197335    2.332054    2.348746


........................................................................
.............................. CYCLE   21 ..............................
........................................................................

 iter      E             dE          RMSdq      gap      omega  full diag
   1   -275.3577684 -0.275358E+03  0.492E-02    0.29       0.0  T
   2   -275.3544931  0.327524E-02  0.934E-02    0.27       1.0  T
   3   -275.3388737  0.156194E-01  0.214E-01    0.25       1.0  T
   4   -275.3576933 -0.188196E-01  0.159E-02    0.29       1.0  T
   5   -275.3577619 -0.686161E-04  0.732E-03    0.29       1.0  T
   6   -275.3577787 -0.168134E-04  0.330E-03    0.29       2.3  T
   7   -275.3577824 -0.375371E-05  0.938E-04    0.29       7.9  T
   8   -275.3577824  0.953660E-07  0.809E-04    0.29       9.2  T
   9   -275.3577824 -0.944041E-07  0.536E-04    0.29      13.9  T
     SCC iter.                  ...        0 min,  1.858 sec
     gradient                   ...        0 min,  0.119 sec
 * total energy  :  -271.2224768 Eh     change       -0.5253607E-03 Eh
   gradient norm :     0.0044909 Eh/α   predicted     0.0000000E+00 (-100.00%)
   displ. norm   :     0.0924350 α      lambda       -0.1472936E-03
   maximum displ.:     0.0278715 α      in ANC's #11, #20, #1, ...

........................................................................
.............................. CYCLE   22 ..............................
........................................................................

 iter      E             dE          RMSdq      gap      omega  full diag
   1   -275.3584828 -0.275358E+03  0.122E-02    0.29       0.0  T
   2   -275.3507606  0.772222E-02  0.136E-01    0.27       1.0  T
   3   -275.3584948 -0.773422E-02  0.698E-03    0.29       1.1  T
   4   -275.3584983 -0.344121E-05  0.315E-03    0.29       2.4  T
   5   -275.3584998 -0.156536E-05  0.168E-03    0.29       4.4  T
   6   -275.3585003 -0.457984E-06  0.104E-03    0.29       7.2  T
   7   -275.3585002  0.522214E-07  0.793E-04    0.29       9.4  T
   8   -275.3585003 -0.758119E-07  0.316E-04    0.29      23.6  T
     SCC iter.                  ...        0 min,  1.379 sec
     gradient                   ...        0 min,  0.116 sec
 * total energy  :  -271.2226026 Eh     change       -0.1257434E-03 Eh
   gradient norm :     0.0020199 Eh/α   predicted    -0.7438283E-04 ( -40.85%)
   displ. norm   :     0.3494461 α      lambda       -0.3859286E-03
   maximum displ.:     0.1092448 α      in ANC's #11, #20, #1, ...

........................................................................
.............................. CYCLE   23 ..............................
........................................................................

 iter      E             dE          RMSdq      gap      omega  full diag
   1   -275.3592427 -0.275359E+03  0.363E-02    0.29       0.0  T
   2   -275.3230862  0.361565E-01  0.297E-01    0.24       1.0  T
   3   -275.3592065 -0.361203E-01  0.272E-02    0.29       1.0  T
   4   -275.3590893  0.117238E-03  0.269E-02    0.29       1.0  T
   5   -275.3593732 -0.283909E-03  0.697E-03    0.29       1.1  T
   6   -275.3593884 -0.151532E-04  0.290E-03    0.29       2.6  T
   7   -275.3593814  0.697678E-05  0.467E-03    0.29       1.6  T
   8   -275.3593895 -0.810094E-05  0.100E-03    0.29       7.4  T
   9   -275.3593895  0.157422E-07  0.832E-04    0.29       9.0  T
  10   -275.3593896 -0.122910E-06  0.565E-04    0.29      13.2  T
     SCC iter.                  ...        0 min,  1.107 sec
     gradient                   ...        0 min,  0.136 sec
 * total energy  :  -271.2228793 Eh     change       -0.2767048E-03 Eh
   gradient norm :     0.0047647 Eh/α   predicted    -0.2165375E-03 ( -21.74%)
   displ. norm   :     0.3751683 α      lambda       -0.2686237E-03
   maximum displ.:     0.1217332 α      in ANC's #11, #1, #20, ...

........................................................................
.............................. CYCLE   24 ..............................
........................................................................

 iter      E             dE          RMSdq      gap      omega  full diag
   1   -275.3589123 -0.275359E+03  0.293E-02    0.29       0.0  T
   2   -275.3518486  0.706368E-02  0.131E-01    0.27       1.0  T
   3   -275.3580916 -0.624298E-02  0.476E-02    0.29       1.0  T
   4   -275.3588071 -0.715539E-03  0.174E-02    0.29       1.0  T
   5   -275.3589292 -0.122121E-03  0.261E-03    0.29       2.9  T
   6   -275.3589295 -0.243694E-06  0.199E-03    0.29       3.7  T
   7   -275.3589301 -0.594696E-06  0.107E-03    0.29       7.0  T
   8   -275.3589300  0.738265E-07  0.782E-04    0.29       9.5  T
   9   -275.3589301 -0.134492E-06  0.364E-04    0.29      20.5  T
     SCC iter.                  ...        0 min,  1.040 sec
     gradient                   ...        0 min,  0.118 sec
 * total energy  :  -271.2230977 Eh     change       -0.2184463E-03 Eh
   gradient norm :     0.0066902 Eh/α   predicted    -0.1532430E-03 ( -29.85%)
   displ. norm   :     0.5113851 α      lambda       -0.3554417E-03
   maximum displ.:     0.1693491 α      in ANC's #11, #1, #13, ...

........................................................................
.............................. CYCLE   25 ..............................
........................................................................

 iter      E             dE          RMSdq      gap      omega  full diag
   1   -275.3574558 -0.275357E+03  0.398E-02    0.30       0.0  T
   2   -275.3190016  0.384542E-01  0.303E-01    0.23       1.0  T
   3   -275.3575132 -0.385116E-01  0.247E-02    0.30       1.0  T
   4   -275.3574733  0.398580E-04  0.177E-02    0.30       1.0  T
   5   -275.3575839 -0.110621E-03  0.432E-03    0.30       1.7  T
   6   -275.3575865 -0.253231E-05  0.296E-03    0.30       2.5  T
   7   -275.3575889 -0.248149E-05  0.115E-03    0.30       6.5  T
   8   -275.3575889  0.885004E-07  0.851E-04    0.30       8.8  T
   9   -275.3575890 -0.123119E-06  0.452E-04    0.30      16.5  T
     SCC iter.                  ...        0 min,  0.927 sec
     gradient                   ...        0 min,  0.116 sec
 * total energy  :  -271.2233916 Eh     change       -0.2938221E-03 Eh
   gradient norm :     0.0059372 Eh/α   predicted    -0.2241981E-03 ( -23.70%)
   displ. norm   :     0.5633093 α      lambda       -0.3809730E-03
   maximum displ.:     0.1904399 α      in ANC's #11, #1, #13, ...

........................................................................
.............................. CYCLE   26 ..............................
........................................................................

 iter      E             dE          RMSdq      gap      omega  full diag
   1   -275.3561648 -0.275356E+03  0.431E-02    0.31       0.0  T
   2   -275.3124270  0.437378E-01  0.324E-01    0.23       1.0  T
   3   -275.3562482 -0.438212E-01  0.264E-02    0.31       1.0  T
   4   -275.3562486 -0.419508E-06  0.168E-02    0.31       1.0  T
   5   -275.3563313 -0.826736E-04  0.488E-03    0.31       1.5  T
   6   -275.3563352 -0.390497E-05  0.296E-03    0.31       2.5  T
   7   -275.3563375 -0.226786E-05  0.126E-03    0.31       5.9  T
   8   -275.3563375 -0.736465E-07  0.695E-04    0.31      10.7  T
   9   -275.3563375  0.119077E-07  0.489E-04    0.31      15.2  T
     SCC iter.                  ...        0 min,  1.543 sec
     gradient                   ...        0 min,  0.117 sec
 * total energy  :  -271.2236961 Eh     change       -0.3045004E-03 Eh
   gradient norm :     0.0035958 Eh/α   predicted    -0.2509529E-03 ( -17.59%)
   displ. norm   :     0.5492494 α      lambda       -0.3159321E-03
   maximum displ.:     0.1876060 α      in ANC's #11, #1, #13, ...

........................................................................
.............................. CYCLE   27 ..............................
........................................................................

 iter      E             dE          RMSdq      gap      omega  full diag
   1   -275.3556336 -0.275356E+03  0.394E-02    0.31       0.0  T
   2   -275.3305311  0.251025E-01  0.245E-01    0.27       1.0  T
   3   -275.3551056 -0.245745E-01  0.434E-02    0.31       1.0  T
   4   -275.3556440 -0.538425E-03  0.157E-02    0.32       1.0  T
   5   -275.3557006 -0.565741E-04  0.528E-03    0.31       1.4  T
   6   -275.3557059 -0.528376E-05  0.310E-03    0.31       2.4  T
   7   -275.3557088 -0.289367E-05  0.111E-03    0.31       6.7  T
   8   -275.3557088 -0.927059E-09  0.677E-04    0.31      11.0  T
   9   -275.3557089 -0.569261E-07  0.329E-04    0.31      22.6  T
     SCC iter.                  ...        0 min,  1.401 sec
     gradient                   ...        0 min,  0.112 sec
 * total energy  :  -271.2239495 Eh     change       -0.2534938E-03 Eh
   gradient norm :     0.0038341 Eh/α   predicted    -0.2056295E-03 ( -18.88%)
   displ. norm   :     0.5445858 α      lambda       -0.2974693E-03
   maximum displ.:     0.1847119 α      in ANC's #11, #1, #35, ...

........................................................................
.............................. CYCLE   28 ..............................
........................................................................

 iter      E             dE          RMSdq      gap      omega  full diag
   1   -275.3558393 -0.275356E+03  0.377E-02    0.32       0.0  T
   2   -275.3533205  0.251881E-02  0.801E-02    0.30       1.0  T
   3   -275.3466047  0.671577E-02  0.149E-01    0.30       1.0  T
   4   -275.3557204 -0.911573E-02  0.201E-02    0.32       1.0  T
   5   -275.3558472 -0.126726E-03  0.481E-03    0.31       1.5  T
   6   -275.3558539 -0.672694E-05  0.171E-03    0.31       4.4  T
   7   -275.3558536  0.285989E-06  0.150E-03    0.31       5.0  T
   8   -275.3558540 -0.353784E-06  0.801E-04    0.31       9.3  T
   9   -275.3558541 -0.132130E-06  0.416E-04    0.31      17.9  T
     SCC iter.                  ...        0 min,  1.190 sec
     gradient                   ...        0 min,  0.111 sec
 * total energy  :  -271.2241970 Eh     change       -0.2474632E-03 Eh
   gradient norm :     0.0048290 Eh/α   predicted    -0.1929545E-03 ( -22.03%)
   displ. norm   :     0.5642328 α      lambda       -0.3418924E-03
   maximum displ.:     0.1946318 α      in ANC's #1, #35, #11, ...

........................................................................
.............................. CYCLE   29 ..............................
........................................................................

 iter      E             dE          RMSdq      gap      omega  full diag
   1   -275.3571354 -0.275357E+03  0.416E-02    0.31       0.0  T
   2   -275.3436981  0.134373E-01  0.180E-01    0.29       1.0  T
   3   -275.3545881 -0.108900E-01  0.810E-02    0.30       1.0  T
   4   -275.3569767 -0.238862E-02  0.238E-02    0.32       1.0  T
   5   -275.3571718 -0.195167E-03  0.468E-03    0.31       1.6  T
   6   -275.3571780 -0.615233E-05  0.160E-03    0.31       4.7  T
   7   -275.3571778  0.197160E-06  0.135E-03    0.31       5.5  T
   8   -275.3571780 -0.217293E-06  0.785E-04    0.31       9.5  T
   9   -275.3571781 -0.838324E-07  0.514E-04    0.31      14.5  T
     SCC iter.                  ...        0 min,  1.082 sec
     gradient                   ...        0 min,  0.118 sec
 * total energy  :  -271.2244789 Eh     change       -0.2819303E-03 Eh
   gradient norm :     0.0049588 Eh/α   predicted    -0.2253715E-03 ( -20.06%)
   displ. norm   :     0.5705551 α      lambda       -0.3455748E-03
   maximum displ.:     0.2001410 α      in ANC's #1, #35, #11, ...

........................................................................
.............................. CYCLE   30 ..............................
........................................................................

 iter      E             dE          RMSdq      gap      omega  full diag
   1   -275.3577759 -0.275358E+03  0.434E-02    0.31       0.0  T
   2   -275.3572258  0.550067E-03  0.444E-02    0.31       1.0  T
   3   -275.3215088  0.357170E-01  0.292E-01    0.25       1.0  T
   4   -275.3577216 -0.362127E-01  0.155E-02    0.32       1.0  T
   5   -275.3577335 -0.119003E-04  0.115E-02    0.31       1.0  T
   6   -275.3577829 -0.494106E-04  0.337E-03    0.31       2.2  T
   7   -275.3577863 -0.344227E-05  0.150E-03    0.31       5.0  T
   8   -275.3577870 -0.702082E-06  0.461E-04    0.31      16.2  T
   9   -275.3577870  0.166496E-07  0.371E-04    0.31      20.1  T
     SCC iter.                  ...        0 min,  1.245 sec
     gradient                   ...        0 min,  0.116 sec
 * total energy  :  -271.2247568 Eh     change       -0.2778314E-03 Eh
   gradient norm :     0.0044079 Eh/α   predicted    -0.2290358E-03 ( -17.56%)
   displ. norm   :     0.5322933 α      lambda       -0.3015182E-03
   maximum displ.:     0.1905810 α      in ANC's #1, #35, #34, ...

........................................................................
.............................. CYCLE   31 ..............................
........................................................................

 iter      E             dE          RMSdq      gap      omega  full diag
   1   -275.3584028 -0.275358E+03  0.429E-02    0.31       0.0  T
   2   -275.3582435  0.159298E-03  0.323E-02    0.31       1.0  T
   3   -275.3139161  0.443274E-01  0.323E-01    0.24       1.0  T
   4   -275.3583792 -0.444632E-01  0.110E-02    0.31       1.0  T
   5   -275.3583721  0.710065E-05  0.983E-03    0.31       1.0  T
   6   -275.3584099 -0.377220E-04  0.237E-03    0.31       3.2  T
   7   -275.3584106 -0.783076E-06  0.169E-03    0.31       4.4  T
   8   -275.3584116 -0.100379E-05  0.441E-04    0.31      16.9  T
   9   -275.3584116  0.664954E-08  0.354E-04    0.31      21.1  T
  10   -275.3584116 -0.316248E-08  0.301E-04    0.31      24.8  T
     SCC iter.                  ...        0 min,  1.264 sec
     gradient                   ...        0 min,  0.109 sec
 * total energy  :  -271.2249925 Eh     change       -0.2356862E-03 Eh
   gradient norm :     0.0035173 Eh/α   predicted    -0.1934748E-03 ( -17.91%)
   displ. norm   :     0.5208902 α      lambda       -0.2495078E-03
   maximum displ.:     0.1939681 α      in ANC's #1, #35, #34, ...

........................................................................
.............................. CYCLE   32 ..............................
........................................................................

 iter      E             dE          RMSdq      gap      omega  full diag
   1   -275.3562330 -0.275356E+03  0.511E-02    0.31       0.0  T
   2   -275.2947371  0.614959E-01  0.382E-01    0.19       1.0  T
   3   -275.3566588 -0.619217E-01  0.240E-02    0.32       1.0  T
   4   -275.3564436  0.215228E-03  0.237E-02    0.31       1.0  T
   5   -275.3566627 -0.219105E-03  0.342E-03    0.31       2.2  T
   6   -275.3566591  0.357545E-05  0.416E-03    0.31       1.8  T
   7   -275.3566659 -0.673683E-05  0.840E-04    0.31       8.9  T
   8   -275.3566655  0.373966E-06  0.109E-03    0.31       6.8  T
   9   -275.3566658 -0.298598E-06  0.655E-04    0.31      11.4  T
  10   -275.3566659 -0.136569E-06  0.294E-04    0.31      25.4  T
     SCC iter.                  ...        0 min,  1.206 sec
     gradient                   ...        0 min,  0.129 sec
 * total energy  :  -271.2251874 Eh     change       -0.1949283E-03 Eh
   gradient norm :     0.0037068 Eh/α   predicted    -0.1586091E-03 ( -18.63%)
   displ. norm   :     0.4474074 α      lambda       -0.2699259E-03
   maximum displ.:     0.1563843 α      in ANC's #1, #24, #34, ...

........................................................................
.............................. CYCLE   33 ..............................
........................................................................

 iter      E             dE          RMSdq      gap      omega  full diag
   1   -275.3606406 -0.275361E+03  0.678E-02    0.30       0.0  T
   2   -275.3027866  0.578540E-01  0.387E-01    0.17       1.0  T
   3   -275.3561556 -0.533690E-01  0.119E-01    0.30       1.0  T
   4   -275.3126027  0.435529E-01  0.337E-01    0.19       1.0  T
   5   -275.3535216 -0.409190E-01  0.140E-01    0.30       1.0  T
   6   -275.3601178 -0.659612E-02  0.657E-02    0.31       1.0  T
   7   -275.3619933 -0.187551E-02  0.455E-03    0.31       1.6  T
   8   -275.3619741  0.191277E-04  0.769E-03    0.31       1.0  T
   9   -275.3619904 -0.163003E-04  0.466E-03    0.31       1.6  T
  10   -275.3619938 -0.330970E-05  0.375E-03    0.31       2.0  T
  11   -275.3619996 -0.586365E-05  0.418E-04    0.31      17.8  T
  12   -275.3619992  0.393608E-06  0.103E-03    0.31       7.2  T
  13   -275.3619996 -0.375677E-06  0.349E-04    0.31      21.4  T
  14   -275.3619995  0.929909E-07  0.579E-04    0.31      12.9  T
     SCC iter.                  ...        0 min,  1.542 sec
     gradient                   ...        0 min,  0.107 sec
 * total energy  :  -271.2253368 Eh     change       -0.1494033E-03 Eh
   gradient norm :     0.0053007 Eh/α   predicted    -0.1619793E-03 (   8.42%)
   displ. norm   :     0.5451050 α      lambda       -0.2604409E-03
   maximum displ.:     0.2111256 α      in ANC's #1, #34, #11, ...

........................................................................
.............................. CYCLE   34 ..............................
........................................................................

 iter      E             dE          RMSdq      gap      omega  full diag
   1   -275.3519390 -0.275352E+03  0.886E-02    0.32       0.0  T
   2   -275.1562846  0.195654E+00  0.637E-01    0.00       1.0  T
   3   -275.3351993 -0.178915E+00  0.219E-01    0.40       1.0  T
   4   -275.3543436 -0.191443E-01  0.403E-02    0.32       1.0  T
   5   -275.3545237 -0.180032E-03  0.291E-02    0.29       1.0  T
   6   -275.3546287 -0.105018E-03  0.224E-02    0.28       1.0  T
   7   -275.3547084 -0.797430E-04  0.167E-02    0.29       1.0  T
   8   -275.3547605 -0.521027E-04  0.117E-02    0.30       1.0  T
   9   -275.3548003 -0.397465E-04  0.586E-03    0.31       1.3  T
  10   -275.3548128 -0.125701E-04  0.107E-03    0.32       7.0  T
  11   -275.3548127  0.170516E-06  0.111E-03    0.32       6.7  T
  12   -275.3548130 -0.357655E-06  0.485E-04    0.32      15.4  T
  13   -275.3548129  0.178106E-06  0.784E-04    0.32       9.5  T
     SCC iter.                  ...        0 min,  1.634 sec
     gradient                   ...        0 min,  0.120 sec
 * total energy  :  -271.2254839 Eh     change       -0.1471371E-03 Eh
   gradient norm :     0.0060265 Eh/α   predicted    -0.1689144E-03 (  14.80%)
   displ. norm   :     0.1860132 α      lambda       -0.1391175E-03
   maximum displ.:     0.0719681 α      in ANC's #1, #2, #24, ...

........................................................................
.............................. CYCLE   35 ..............................
........................................................................

 iter      E             dE          RMSdq      gap      omega  full diag
   1   -275.3554535 -0.275355E+03  0.481E-02    0.31       0.0  T
   2   -275.3005408  0.549127E-01  0.369E-01    0.21       1.0  T
   3   -275.3531248 -0.525840E-01  0.875E-02    0.31       1.0  T
   4   -275.3420282  0.110967E-01  0.181E-01    0.28       1.0  T
   5   -275.3562005 -0.141724E-01  0.201E-02    0.32       1.0  T
   6   -275.3563135 -0.112952E-03  0.120E-02    0.32       1.0  T
   7   -275.3563690 -0.555355E-04  0.403E-03    0.32       1.9  T
   8   -275.3563722 -0.316236E-05  0.293E-03    0.32       2.5  T
   9   -275.3563756 -0.338332E-05  0.894E-04    0.32       8.3  T
  10   -275.3563759 -0.324414E-06  0.190E-04    0.32      39.3  T
  11   -275.3563756  0.290064E-06  0.828E-04    0.32       9.0  T
     SCC iter.                  ...        0 min,  1.152 sec
     gradient                   ...        0 min,  0.112 sec
 * total energy  :  -271.2255981 Eh     change       -0.1141704E-03 Eh
   gradient norm :     0.0042154 Eh/α   predicted    -0.7196689E-04 ( -36.97%)
   displ. norm   :     0.3783387 α      lambda       -0.2284540E-03
   maximum displ.:     0.1502819 α      in ANC's #1, #2, #20, ...

........................................................................
.............................. CYCLE   36 ..............................
........................................................................

 iter      E             dE          RMSdq      gap      omega  full diag
   1   -275.3594899 -0.275359E+03  0.373E-02    0.32       0.0  T
   2   -275.3258315  0.336583E-01  0.280E-01    0.28       1.0  T
   3   -275.3595181 -0.336865E-01  0.245E-02    0.32       1.0  T
   4   -275.3595828 -0.647644E-04  0.136E-02    0.32       1.0  T
   5   -275.3596233 -0.404196E-04  0.381E-03    0.32       2.0  T
   6   -275.3596256 -0.230915E-05  0.232E-03    0.32       3.2  T
   7   -275.3596269 -0.136897E-05  0.103E-03    0.32       7.2  T
   8   -275.3596269 -0.157586E-07  0.678E-04    0.32      11.0  T
   9   -275.3596269  0.214295E-07  0.581E-04    0.32      12.8  T
     SCC iter.                  ...        0 min,  1.801 sec
     gradient                   ...        0 min,  0.190 sec
 * total energy  :  -271.2257543 Eh     change       -0.1561919E-03 Eh
   gradient norm :     0.0034610 Eh/α   predicted    -0.1305786E-03 ( -16.40%)
   displ. norm   :     0.4004546 α      lambda       -0.1265464E-03
   maximum displ.:     0.1689497 α      in ANC's #1, #2, #6, ...

........................................................................
.............................. CYCLE   37 ..............................
........................................................................

 iter      E             dE          RMSdq      gap      omega  full diag
   1   -275.3581465 -0.275358E+03  0.452E-02    0.32       0.0  T
   2   -275.3069176  0.512289E-01  0.351E-01    0.24       1.0  T
   3   -275.3583020 -0.513844E-01  0.332E-02    0.32       1.0  T
   4   -275.3551375  0.316450E-02  0.898E-02    0.31       1.0  T
   5   -275.3584191 -0.328158E-02  0.228E-02    0.32       1.0  T
   6   -275.3586386 -0.219505E-03  0.189E-03    0.32       4.0  T
   7   -275.3586390 -0.412514E-06  0.125E-03    0.32       5.9  T
   8   -275.3586360  0.308332E-05  0.288E-03    0.32       2.6  T
   9   -275.3586392 -0.327047E-05  0.821E-04    0.32       9.1  T
  10   -275.3586395 -0.229138E-06  0.266E-04    0.32      28.1  T
  11   -275.3586392  0.239681E-06  0.751E-04    0.32       9.9  T
     SCC iter.                  ...        0 min,  1.301 sec
     gradient                   ...        0 min,  0.115 sec
 * total energy  :  -271.2258518 Eh     change       -0.9753337E-04 Eh
   gradient norm :     0.0035262 Eh/α   predicted    -0.7342104E-04 ( -24.72%)
   displ. norm   :     0.4435286 α      lambda       -0.1315488E-03
   maximum displ.:     0.1885882 α      in ANC's #1, #2, #15, ...

........................................................................
.............................. CYCLE   38 ..............................
........................................................................

 iter      E             dE          RMSdq      gap      omega  full diag
   1   -275.3582735 -0.275358E+03  0.353E-02    0.32       0.0  T
   2   -275.3388012  0.194723E-01  0.212E-01    0.30       1.0  T
   3   -275.3574809 -0.186797E-01  0.480E-02    0.32       1.0  T
   4   -275.3582656 -0.784746E-03  0.150E-02    0.32       1.0  T
   5   -275.3583264 -0.607454E-04  0.491E-03    0.32       1.5  T
   6   -275.3583335 -0.707802E-05  0.189E-03    0.32       3.9  T
   7   -275.3583338 -0.309929E-06  0.136E-03    0.32       5.5  T
   8   -275.3583342 -0.467572E-06  0.550E-04    0.32      13.6  T
   9   -275.3583342  0.326265E-07  0.471E-04    0.32      15.8  T
     SCC iter.                  ...        0 min,  1.203 sec
     gradient                   ...        0 min,  0.115 sec
 * total energy  :  -271.2259598 Eh     change       -0.1080013E-03 Eh
   gradient norm :     0.0034749 Eh/α   predicted    -0.7871464E-04 ( -27.12%)
   displ. norm   :     0.4774966 α      lambda       -0.1640789E-03
   maximum displ.:     0.2016575 α      in ANC's #1, #2, #15, ...

........................................................................
.............................. CYCLE   39 ..............................
........................................................................

 iter      E             dE          RMSdq      gap      omega  full diag
   1   -275.3583395 -0.275358E+03  0.502E-02    0.32       0.0  T
   2   -275.3058101  0.525294E-01  0.355E-01    0.24       1.0  T
   3   -275.3586190 -0.528088E-01  0.330E-02    0.32       1.0  T
   4   -275.3537131  0.490589E-02  0.109E-01    0.30       1.0  T
   5   -275.3582583 -0.454518E-02  0.388E-02    0.32       1.0  T
   6   -275.3589054 -0.647116E-03  0.435E-03    0.32       1.7  T
   7   -275.3589116 -0.621724E-05  0.188E-03    0.32       4.0  T
   8   -275.3589124 -0.851803E-06  0.103E-03    0.32       7.2  T
   9   -275.3589127 -0.209893E-06  0.600E-04    0.32      12.4  T
  10   -275.3589127 -0.440767E-07  0.418E-04    0.32      17.9  T
     SCC iter.                  ...        0 min,  1.093 sec
     gradient                   ...        0 min,  0.114 sec
 * total energy  :  -271.2260913 Eh     change       -0.1314723E-03 Eh
   gradient norm :     0.0036786 Eh/α   predicted    -0.1007474E-03 ( -23.37%)
   displ. norm   :     0.5296864 α      lambda       -0.1740614E-03
   maximum displ.:     0.2240781 α      in ANC's #1, #2, #15, ...

........................................................................
.............................. CYCLE   40 ..............................
........................................................................

 iter      E             dE          RMSdq      gap      omega  full diag
   1   -275.3576698 -0.275358E+03  0.410E-02    0.33       0.0  T
   2   -275.3311023  0.265675E-01  0.247E-01    0.30       1.0  T
   3   -275.3566032 -0.255009E-01  0.560E-02    0.32       1.0  T
   4   -275.3576514 -0.104819E-02  0.190E-02    0.33       1.0  T
   5   -275.3577318 -0.804311E-04  0.870E-03    0.33       1.0  T
   6   -275.3577622 -0.303159E-04  0.178E-03    0.33       4.2  T
   7   -275.3577615  0.705924E-06  0.194E-03    0.33       3.8  T
   8   -275.3577626 -0.110686E-05  0.932E-04    0.33       8.0  T
   9   -275.3577626 -0.642590E-07  0.737E-04    0.33      10.1  T
  10   -275.3577628 -0.159306E-06  0.303E-04    0.33      24.6  T
     SCC iter.                  ...        0 min,  2.064 sec
     gradient                   ...        0 min,  0.118 sec
 * total energy  :  -271.2262359 Eh     change       -0.1445727E-03 Eh
   gradient norm :     0.0039236 Eh/α   predicted    -0.1114518E-03 ( -22.91%)
   displ. norm   :     0.5342824 α      lambda       -0.2157200E-03
   maximum displ.:     0.2077652 α      in ANC's #1, #15, #2, ...

........................................................................
.............................. CYCLE   41 ..............................
........................................................................

 iter      E             dE          RMSdq      gap      omega  full diag
   1   -275.3578892 -0.275358E+03  0.652E-02    0.32       0.0  T
   2   -275.3009316  0.569576E-01  0.378E-01    0.20       1.0  T
   3   -275.3554053 -0.544737E-01  0.950E-02    0.33       1.0  T
   4   -275.3132510  0.421544E-01  0.323E-01    0.23       1.0  T
   5   -275.3565972 -0.433462E-01  0.762E-02    0.33       1.0  T
   6   -275.3587153 -0.211807E-02  0.316E-02    0.33       1.0  T
   7   -275.3591428 -0.427505E-03  0.659E-03    0.33       1.1  T
   8   -275.3591510 -0.823694E-05  0.479E-03    0.33       1.6  T
   9   -275.3591580 -0.695655E-05  0.267E-03    0.33       2.8  T
  10   -275.3591596 -0.166153E-05  0.174E-03    0.33       4.3  T
  11   -275.3591601 -0.458065E-06  0.136E-03    0.33       5.5  T
  12   -275.3591607 -0.584138E-06  0.739E-04    0.33      10.1  T
  13   -275.3591607  0.645446E-08  0.729E-04    0.33      10.2  T
     SCC iter.                  ...        0 min,  1.992 sec
     gradient                   ...        0 min,  0.132 sec
 * total energy  :  -271.2264126 Eh     change       -0.1767149E-03 Eh
   gradient norm :     0.0050848 Eh/α   predicted    -0.1386572E-03 ( -21.54%)
   displ. norm   :     0.6127126 α      lambda       -0.2567306E-03
   maximum displ.:     0.2404695 α      in ANC's #1, #15, #2, ...

........................................................................
.............................. CYCLE   42 ..............................
........................................................................

 iter      E             dE          RMSdq      gap      omega  full diag
   1   -275.3572752 -0.275357E+03  0.487E-02    0.34       0.0  T
   2   -275.3131929  0.440823E-01  0.320E-01    0.28       1.0  T
   3   -275.3572029 -0.440100E-01  0.367E-02    0.34       1.0  T
   4   -275.3574663 -0.263369E-03  0.163E-02    0.34       1.0  T
   5   -275.3575086 -0.423396E-04  0.702E-03    0.34       1.1  T
   6   -275.3575266 -0.179327E-04  0.232E-03    0.34       3.2  T
   7   -275.3575276 -0.107588E-05  0.132E-03    0.34       5.7  T
   8   -275.3575266  0.102102E-05  0.188E-03    0.34       4.0  T
   9   -275.3575280 -0.139168E-05  0.419E-04    0.34      17.8  T
  10   -275.3575278  0.147348E-06  0.664E-04    0.34      11.2  T
  11   -275.3575280 -0.140301E-06  0.279E-04    0.34      26.7  T
     SCC iter.                  ...        0 min,  1.964 sec
     gradient                   ...        0 min,  0.111 sec
 * total energy  :  -271.2266365 Eh     change       -0.2239463E-03 Eh
   gradient norm :     0.0056438 Eh/α   predicted    -0.1765593E-03 ( -21.16%)
   displ. norm   :     0.6205718 α      lambda       -0.3570553E-03
   maximum displ.:     0.2150175 α      in ANC's #11, #1, #15, ...
 * RMSD in coord.:     0.6329992 α      energy gain  -0.4685054E-02 Eh

generating ANC from model Hessian ...
Using Lindh-Hessian (1995)
 Shifting diagonal of input Hessian by    1.0033462077509025E-002
 Lowest  eigenvalues of input Hessian
    0.010000    0.010021    0.000000    0.000000    0.000000    0.000000
    0.000000    0.000000    0.010035    0.010041    0.010072    0.010083
    0.010102    0.010118    0.010119    0.010136    0.010238    0.010292
 Highest eigenvalues
    2.169842    2.173421    2.181118    2.193586    2.323017    2.339194


........................................................................
.............................. CYCLE   43 ..............................
........................................................................

 iter      E             dE          RMSdq      gap      omega  full diag
   1   -275.3584761 -0.275358E+03  0.585E-02    0.34       0.0  T
   2   -275.3033955  0.550806E-01  0.365E-01    0.24       1.0  T
   3   -275.3584188 -0.550233E-01  0.505E-02    0.34       1.0  T
   4   -275.3458070  0.126118E-01  0.174E-01    0.31       1.0  T
   5   -275.3572704 -0.114633E-01  0.681E-02    0.34       1.0  T
   6   -275.3591966 -0.192619E-02  0.159E-02    0.34       1.0  T
   7   -275.3592653 -0.686843E-04  0.965E-03    0.34       1.0  T
   8   -275.3593025 -0.372711E-04  0.289E-03    0.34       2.6  T
   9   -275.3593060 -0.346388E-05  0.490E-04    0.34      15.2  T
  10   -275.3593058  0.210359E-06  0.770E-04    0.34       9.7  T
  11   -275.3593060 -0.188050E-06  0.358E-04    0.34      20.8  T
     SCC iter.                  ...        0 min,  1.433 sec
     gradient                   ...        0 min,  0.110 sec
 * total energy  :  -271.2269357 Eh     change       -0.2991780E-03 Eh
   gradient norm :     0.0063309 Eh/α   predicted     0.0000000E+00 (-100.00%)
   displ. norm   :     0.0857994 α      lambda       -0.1291757E-03
   maximum displ.:     0.0251878 α      in ANC's #36, #35, #11, ...

........................................................................
.............................. CYCLE   44 ..............................
........................................................................

 iter      E             dE          RMSdq      gap      omega  full diag
   1   -275.3591956 -0.275359E+03  0.324E-02    0.34       0.0  T
   2   -275.3002389  0.589567E-01  0.369E-01    0.22       1.0  T
   3   -275.3592986 -0.590597E-01  0.283E-02    0.34       1.0  T
   4   -275.3595578 -0.259251E-03  0.132E-02    0.34       1.0  T
   5   -275.3595904 -0.326002E-04  0.933E-03    0.34       1.0  T
   6   -275.3595865  0.392157E-05  0.978E-03    0.34       1.0  T
   7   -275.3596266 -0.401145E-04  0.175E-03    0.34       4.3  T
   8   -275.3596263  0.326155E-06  0.194E-03    0.34       3.8  T
   9   -275.3596279 -0.161083E-05  0.332E-04    0.34      22.4  T
  10   -275.3596279  0.326166E-07  0.406E-04    0.34      18.3  T
  11   -275.3596279 -0.285011E-07  0.308E-04    0.34      24.2  T
     SCC iter.                  ...        0 min,  1.507 sec
     gradient                   ...        0 min,  0.108 sec
 * total energy  :  -271.2270706 Eh     change       -0.1349285E-03 Eh
   gradient norm :     0.0034007 Eh/α   predicted    -0.7850667E-04 ( -41.82%)
   displ. norm   :     0.3211897 α      lambda       -0.4048774E-03
   maximum displ.:     0.1042479 α      in ANC's #36, #35, #11, ...

........................................................................
.............................. CYCLE   45 ..............................
........................................................................

 iter      E             dE          RMSdq      gap      omega  full diag
   1   -275.3574178 -0.275357E+03  0.814E-02    0.34       0.0  T
   2   -275.2319013  0.125516E+00  0.522E-01    0.05       1.0  T
   3   -275.3534814 -0.121580E+00  0.125E-01    0.40       1.0  T
   4   -275.3597957 -0.631429E-02  0.218E-02    0.35       1.0  T
   5   -275.3598330 -0.373152E-04  0.155E-02    0.35       1.0  T
   6   -275.3598611 -0.280332E-04  0.904E-03    0.34       1.0  T
   7   -275.3598581  0.297847E-05  0.877E-03    0.34       1.0  T
   8   -275.3598894 -0.313376E-04  0.155E-03    0.34       4.8  T
   9   -275.3598896 -0.172283E-06  0.114E-03    0.35       6.5  T
  10   -275.3598898 -0.216536E-06  0.762E-04    0.35       9.8  T
  11   -275.3598897  0.115768E-06  0.843E-04    0.35       8.8  T
     SCC iter.                  ...        0 min,  2.165 sec
     gradient                   ...        0 min,  0.158 sec
 * total energy  :  -271.2273365 Eh     change       -0.2659093E-03 Eh
   gradient norm :     0.0047324 Eh/α   predicted    -0.2233258E-03 ( -16.01%)
   displ. norm   :     0.2512957 α      lambda       -0.1671673E-03
   maximum displ.:     0.0931104 α      in ANC's #36, #35, #11, ...

........................................................................
.............................. CYCLE   46 ..............................
........................................................................

 iter      E             dE          RMSdq      gap      omega  full diag
   1   -275.3598566 -0.275360E+03  0.217E-02    0.35       0.0  T
   2   -275.3586228  0.123375E-02  0.541E-02    0.34       1.0  T
   3   -275.3559025  0.272028E-02  0.952E-02    0.34       1.0  T
   4   -275.3598173 -0.391480E-02  0.119E-02    0.35       1.0  T
   5   -275.3598623 -0.449647E-04  0.263E-03    0.35       2.8  T
   6   -275.3598612  0.107932E-05  0.275E-03    0.35       2.7  T
   7   -275.3598643 -0.304928E-05  0.609E-04    0.35      12.2  T
   8   -275.3598643  0.373132E-08  0.388E-04    0.35      19.2  T
   9   -275.3598643 -0.158037E-07  0.253E-04    0.35      29.4  T
     SCC iter.                  ...        0 min,  1.312 sec
     gradient                   ...        0 min,  0.116 sec
 * total energy  :  -271.2274755 Eh     change       -0.1389810E-03 Eh
   gradient norm :     0.0061027 Eh/α   predicted    -0.8939266E-04 ( -35.68%)
   displ. norm   :     0.4719870 α      lambda       -0.3102736E-03
   maximum displ.:     0.1886838 α      in ANC's #36, #35, #11, ...

........................................................................
.............................. CYCLE   47 ..............................
........................................................................

 iter      E             dE          RMSdq      gap      omega  full diag
   1   -275.3587841 -0.275359E+03  0.488E-02    0.36       0.0  T
   2   -275.3066415  0.521426E-01  0.351E-01    0.27       1.0  T
   3   -275.3580466 -0.514051E-01  0.585E-02    0.35       1.0  T
   4   -275.3503061  0.774052E-02  0.142E-01    0.33       1.0  T
   5   -275.3582614 -0.795527E-02  0.499E-02    0.35       1.0  T
   6   -275.3593281 -0.106677E-02  0.690E-03    0.36       1.1  T
   7   -275.3593475 -0.193938E-04  0.111E-03    0.36       6.7  T
   8   -275.3593476 -0.676581E-07  0.712E-04    0.36      10.5  T
   9   -275.3593472  0.421222E-06  0.111E-03    0.36       6.7  T
  10   -275.3593469  0.279770E-06  0.134E-03    0.36       5.5  T
  11   -275.3593464  0.536113E-06  0.171E-03    0.36       4.3  T
  12   -275.3593475 -0.115187E-05  0.595E-04    0.36      12.5  T
  13   -275.3593476 -0.145405E-06  0.149E-04    0.36      50.0  T
     SCC iter.                  ...        0 min,  2.085 sec
[...]
                           128 Si   0.851
   130   6 C    3.948 --   129 C    1.022   131 O    0.972   162 H    0.971
                           161 H    0.970
   131   8 O    2.069 --   135 C    0.973   130 C    0.972
   132   6 C    3.979 --   169 H    0.992   168 H    0.988   170 H    0.988
                           128 Si   0.892
   133   6 C    3.981 --   172 H    0.988   171 H    0.987   173 H    0.986
                           128 Si   0.901
   134   6 C    3.981 --   167 H    0.988   165 H    0.988   166 H    0.986
                           128 Si   0.900
   135   6 C    3.956 --   127 N    1.014   131 O    0.973   159 H    0.955
                           160 H    0.952
   136   7 N    3.569 --   119 C    1.254   137 O    1.164   120 C    0.928
   137   8 O    1.497 --   136 N    1.164   119 C    0.131
   138   7 N    3.577 --   119 C    1.258   139 O    1.173   121 C    0.926
   139   8 O    1.506 --   138 N    1.173   119 C    0.135
   140   1 H    0.998 --   125 C    0.976
   141   1 H    0.999 --   125 C    0.985
   142   1 H    0.995 --   125 C    0.978
   143   1 H    0.999 --   124 C    0.979
   144   1 H    0.996 --   124 C    0.981
   145   1 H    0.998 --   124 C    0.984
   146   1 H    0.998 --   123 C    0.977
   147   1 H    0.997 --   123 C    0.981
   148   1 H    0.998 --   123 C    0.984
   149   1 H    0.998 --   122 C    0.980
   150   1 H    0.998 --   122 C    0.985
   151   1 H    0.995 --   122 C    0.979
   152   1 H    0.993 --   116 C    0.950
   153   1 H    0.998 --   117 C    0.967
   154   1 H    0.992 --   118 C    0.942
   155   1 H    0.998 --   113 C    0.966
   156   1 H    0.999 --   114 C    0.968
   157   1 H    0.999 --   109 C    0.969
   158   1 H    0.998 --   110 C    0.964
   159   1 H    0.999 --   135 C    0.955
   160   1 H    0.998 --   135 C    0.952
   161   1 H    1.000 --   130 C    0.970
   162   1 H    1.000 --   130 C    0.971
   163   1 H    0.998 --   129 C    0.981
   164   1 H    0.998 --   129 C    0.980
   165   1 H    0.999 --   134 C    0.988
   166   1 H    0.999 --   134 C    0.986
   167   1 H    0.999 --   134 C    0.988
   168   1 H    0.999 --   132 C    0.988
   169   1 H    0.999 --   132 C    0.992
   170   1 H    0.999 --   132 C    0.988
   171   1 H    0.999 --   133 C    0.987
   172   1 H    0.999 --   133 C    0.988
   173   1 H    0.999 --   133 C    0.986
   174   1 H    0.998 --   103 C    0.966
   175   1 H    0.998 --   104 C    0.969
   176   1 H    0.998 --    99 C    0.967
   177   1 H    0.998 --   100 C    0.965
   178   1 H    0.998 --    91 C    0.965
   179   1 H    0.997 --    92 C    0.968
   180   1 H    0.997 --    94 C    0.961
 ---------------------------------------------------------------------------

Topologies differ in bond orders
Writing corrected topology to xtbtopo.mol

molecular dipole:
                 x           y           z       tot (Debye)
 q only:        5.758       2.763       0.299
   full:        6.417       4.423      -0.138      19.814
molecular quadrupole (traceless):
                xx          xy          yy          xz          yz          zz
 q only:       -3.708     -24.511      19.895      -1.857      12.977     -16.186
  q+dip:       18.943     -50.867      12.375       8.950      28.473     -31.317
   full:       13.234     -47.728       7.146      -1.485      24.214     -20.380

           -------------------------------------------------
          |                Geometry Summary                 |
           -------------------------------------------------

      molecular mass/u    :     1463.5461871
   center of mass at/Å    :       -0.9244400       0.0400474       3.2178753
  moments of inertia/u·Å² :        0.1575392E+05   0.5390904E+05   0.5618558E+05
rotational constants/cm⁻¹ :        0.1070060E-02   0.3127051E-03   0.3000349E-03

 * 186 selected distances

     #   Z          #   Z                                           value/Å
     1   6 C        2   6 C                                       1.3691539
     2   6 C        3   6 C                                       1.3935944
     3   6 C        4   6 C                                       1.3672305
     4   6 C        5   6 C                                       1.4035544
     1   6 C        6   6 C                                       1.4048414
     5   6 C        6   6 C                                       1.4141903
     5   6 C        7   6 C                                       1.4340775
     7   6 C        8   6 C                                       1.4130159
     8   6 C        9   6 C                                       1.4206068
     6   6 C       10   6 C                                       1.4192876
     9   6 C       10   6 C                                       1.3540047
     7   6 C       11   6 C                                       1.4176460
    11   6 C       12   6 C                                       1.4102929
    12   6 C       13   6 C                                       1.3951034
     8   6 C       14   6 C                                       1.4106174
    13   6 C       14   6 C                                       1.3675425
    11   6 C       15   6 C                                       1.4411268
    15   6 C       16   6 C                                       1.4143565
    15   6 C       17   6 C                                       1.4165776
    17   6 C       18   6 C                                       1.4145827
    18   6 C       19   6 C                                       1.4094770
    16   6 C       20   6 C                                       1.3954785
    19   6 C       20   6 C                                       1.3692370
    21   6 C       22   6 C                                       1.4146075
    22   6 C       23   6 C                                       1.4198679
    18   6 C       24   6 C                                       1.4232184
    23   6 C       24   6 C                                       1.3549988
    25   6 C       26   6 C                                       1.4105422
    22   6 C       27   6 C                                       1.4054898
    26   6 C       27   6 C                                       1.3675390
    21   6 C       28   6 C                                       1.3994200
    25   6 C       28   6 C                                       1.3855232
    30   6 C       31   6 C                                       1.5401984
    30   6 C       32   6 C                                       1.5249108
    30   6 C       33   6 C                                       1.5352245
    31   6 C       34   6 C                                       1.5334854
    31   6 C       35   6 C                                       1.5259507
     3   6 C       36  35 Br                                      1.8996714
    12   6 C       37   7 N                                       1.3741360
    16   6 C       37   7 N                                       1.3725641
    38  14 Si      39   6 C                                       1.9011607
    39   6 C       40   6 C                                       1.5171568
    40   6 C       41   8 O                                       1.4083484
    38  14 Si      42   6 C                                       1.9054780
    38  14 Si      43   6 C                                       1.9150826
    38  14 Si      44   6 C                                       1.9160842 (max)
    37   7 N       45   6 C                                       1.4255342
    41   8 O       45   6 C                                       1.3983204
    29   6 C       46   7 N                                       1.3436908
    30   6 C       46   7 N                                       1.4772572
    29   6 C       48   7 N                                       1.3428410
    31   6 C       48   7 N                                       1.4774891
    35   6 C       50   1 H                                       1.0853648
    35   6 C       51   1 H                                       1.0872915
    35   6 C       52   1 H                                       1.0878631
    34   6 C       53   1 H                                       1.0862892
    34   6 C       54   1 H                                       1.0885091
    34   6 C       55   1 H                                       1.0871312
    33   6 C       56   1 H                                       1.0878319
    33   6 C       57   1 H                                       1.0883376
    33   6 C       58   1 H                                       1.0869795
    32   6 C       59   1 H                                       1.0844533
    32   6 C       60   1 H                                       1.0874360
    32   6 C       61   1 H                                       1.0878523
    26   6 C       62   1 H                                       1.0783919
    27   6 C       63   1 H                                       1.0815326
    28   6 C       64   1 H                                       1.0765549
    23   6 C       65   1 H                                       1.0808148
    24   6 C       66   1 H                                       1.0816864
    19   6 C       67   1 H                                       1.0813055
    20   6 C       68   1 H                                       1.0796001
    45   6 C       69   1 H                                       1.1014564
    45   6 C       70   1 H                                       1.1113835
    40   6 C       71   1 H                                       1.1039541
    40   6 C       72   1 H                                       1.1019639
    39   6 C       73   1 H                                       1.0874520
    39   6 C       74   1 H                                       1.0897082
    44   6 C       75   1 H                                       1.0859492
    44   6 C       76   1 H                                       1.0850429
    44   6 C       77   1 H                                       1.0860794
    42   6 C       78   1 H                                       1.0845959
    42   6 C       79   1 H                                       1.0845722
    42   6 C       80   1 H                                       1.0859942
    43   6 C       81   1 H                                       1.0861242
    43   6 C       82   1 H                                       1.0861864
    43   6 C       83   1 H                                       1.0856714
    13   6 C       84   1 H                                       1.0781987
    14   6 C       85   1 H                                       1.0818116
     9   6 C       86   1 H                                       1.0828528
    10   6 C       87   1 H                                       1.0827835
     1   6 C       88   1 H                                       1.0814980
     2   6 C       89   1 H                                       1.0795284
     4   6 C       90   1 H                                       1.0764921
    91   6 C       92   6 C                                       1.3701546
    92   6 C       93   6 C                                       1.3943319
    93   6 C       94   6 C                                       1.3693534
    94   6 C       95   6 C                                       1.4043216
    91   6 C       96   6 C                                       1.4055249
    95   6 C       96   6 C                                       1.4147408
    95   6 C       97   6 C                                       1.4354174
    97   6 C       98   6 C                                       1.4134333
    98   6 C       99   6 C                                       1.4212344
    96   6 C      100   6 C                                       1.4204750
    99   6 C      100   6 C                                       1.3539337
    97   6 C      101   6 C                                       1.4161103
   101   6 C      102   6 C                                       1.4105672
   102   6 C      103   6 C                                       1.3951074
    98   6 C      104   6 C                                       1.4094360
   103   6 C      104   6 C                                       1.3690660
   101   6 C      105   6 C                                       1.4420877
   105   6 C      106   6 C                                       1.4122630
   105   6 C      107   6 C                                       1.4170453
   107   6 C      108   6 C                                       1.4141142
   108   6 C      109   6 C                                       1.4092651
   106   6 C      110   6 C                                       1.3950846
   109   6 C      110   6 C                                       1.3706889
   111   6 C      112   6 C                                       1.4142405
   112   6 C      113   6 C                                       1.4197645
   108   6 C      114   6 C                                       1.4237448
   113   6 C      114   6 C                                       1.3554328
   115   6 C      116   6 C                                       1.4099640
   112   6 C      117   6 C                                       1.4053102
   116   6 C      117   6 C                                       1.3674586
   111   6 C      118   6 C                                       1.3984060
   115   6 C      118   6 C                                       1.3847128
   120   6 C      121   6 C                                       1.5400981
   120   6 C      122   6 C                                       1.5253698
   120   6 C      123   6 C                                       1.5339193
   121   6 C      124   6 C                                       1.5342603
   121   6 C      125   6 C                                       1.5239460
    93   6 C      126  35 Br                                      1.9022372
   102   6 C      127   7 N                                       1.3757158
   106   6 C      127   7 N                                       1.3780369
   128  14 Si     129   6 C                                       1.9114659
   129   6 C      130   6 C                                       1.5171153
   130   6 C      131   8 O                                       1.4087623
   128  14 Si     132   6 C                                       1.9078485
   128  14 Si     133   6 C                                       1.9102245
   128  14 Si     134   6 C                                       1.9103634
   127   7 N      135   6 C                                       1.4199669
   131   8 O      135   6 C                                       1.4082329
   119   6 C      136   7 N                                       1.3441836
   120   6 C      136   7 N                                       1.4766502
   119   6 C      138   7 N                                       1.3429487
   121   6 C      138   7 N                                       1.4773003
   125   6 C      140   1 H                                       1.0844965
   125   6 C      141   1 H                                       1.0875533
   125   6 C      142   1 H                                       1.0881368
   124   6 C      143   1 H                                       1.0864368
   124   6 C      144   1 H                                       1.0885228
   124   6 C      145   1 H                                       1.0871598
   123   6 C      146   1 H                                       1.0872095
   123   6 C      147   1 H                                       1.0886165
   123   6 C      148   1 H                                       1.0870621
   122   6 C      149   1 H                                       1.0845674
   122   6 C      150   1 H                                       1.0873488
   122   6 C      151   1 H                                       1.0879516
   116   6 C      152   1 H                                       1.0778387
   117   6 C      153   1 H                                       1.0816184
   118   6 C      154   1 H                                       1.0760148 (min)
   113   6 C      155   1 H                                       1.0800197
   114   6 C      156   1 H                                       1.0821131
   109   6 C      157   1 H                                       1.0813070
   110   6 C      158   1 H                                       1.0804183
   135   6 C      159   1 H                                       1.1015471
   135   6 C      160   1 H                                       1.1062428
   130   6 C      161   1 H                                       1.1021564
   130   6 C      162   1 H                                       1.1014512
   129   6 C      163   1 H                                       1.0896881
   129   6 C      164   1 H                                       1.0899451
   134   6 C      165   1 H                                       1.0859679
   134   6 C      166   1 H                                       1.0859670
   134   6 C      167   1 H                                       1.0859290
   132   6 C      168   1 H                                       1.0854058
   132   6 C      169   1 H                                       1.0853746
   132   6 C      170   1 H                                       1.0854143
   133   6 C      171   1 H                                       1.0858846
   133   6 C      172   1 H                                       1.0858462
   133   6 C      173   1 H                                       1.0859486
   103   6 C      174   1 H                                       1.0796064
   104   6 C      175   1 H                                       1.0806834
    99   6 C      176   1 H                                       1.0814533
   100   6 C      177   1 H                                       1.0819971
    91   6 C      178   1 H                                       1.0806405
    92   6 C      179   1 H                                       1.0788477
    94   6 C      180   1 H                                       1.0774584

 * 6 distinct bonds (by element types)

   Z      Z             #   av. dist./Å        max./Å        min./Å
   1 H    6 C          82     1.0861265     1.1113835     1.0760148
   6 C    6 C          76     1.4214635     1.5401984     1.3539337
   6 C    7 N          14     1.4020225     1.4774891     1.3428410
   6 C    8 O           4     1.4059160     1.4087623     1.3983204
   6 C   14 Si          8     1.9097135     1.9160842     1.9011607
   6 C   35 Br          2     1.9009543     1.9022372     1.8996714


optimized geometry written to: xtbopt.mol


           -------------------------------------------------
          | TOTAL ENERGY             -271.248650627253 Eh   |
          | GRADIENT NORM               0.000498445778 Eh/α |
          | HOMO-LUMO GAP               0.335021199023 eV   |
           -------------------------------------------------
########################################################################
[WARNING] Runtime exception occurred
-1- restart_readRestart: Number of electron missmatch in restart file.
########################################################################

------------------------------------------------------------------------
 * finished run on 2024/11/14 at 11:39:12.976     
------------------------------------------------------------------------
Note: The following floating-point exceptions are signalling: IEEE_UNDERFLOW_FLAG
normal termination of xtb
 total:
 * wall-time:     0 d,  0 h,  6 min, 35.784 sec
 *  cpu-time:     0 d,  0 h, 25 min, 17.487 sec
 * ratio c/w:     3.834 speedup
 SCF:
 * wall-time:     0 d,  0 h,  0 min,  5.428 sec
 *  cpu-time:     0 d,  0 h,  0 min, 20.732 sec
 * ratio c/w:     3.819 speedup
 ANC optimizer:
 * wall-time:     0 d,  0 h,  6 min, 30.282 sec
 *  cpu-time:     0 d,  0 h, 24 min, 56.686 sec
 * ratio c/w:     3.835 speedup

