      -----------------------------------------------------------      
     |                   =====================                   |     
     |                           x T B                           |     
     |                   =====================                   |     
     |                         S. Grimme                         |     
     |          Mulliken Center for Theoretical Chemistry        |     
     |                    University of Bonn                     |     
      -----------------------------------------------------------      

   * xtb version 6.6.1 (8d0f1dd) compiled by 'runner@Mac-1690902418499.local' on 2023-08-01

   xtb is free software: you can redistribute it and/or modify it under
   the terms of the GNU Lesser General Public License as published by
   the Free Software Foundation, either version 3 of the License, or
   (at your option) any later version.
   
   xtb is distributed in the hope that it will be useful,
   but WITHOUT ANY WARRANTY; without even the implied warranty of
   MERCHANTABILITY or FITNESS FOR A PARTICULAR PURPOSE.  See the
   GNU Lesser General Public License for more details.
   
   Cite this work as:
   * C. Bannwarth, E. Caldeweyher, S. Ehlert, A. Hansen, P. Pracht,
     J. Seibert, S. Spicher, S. Grimme, WIREs Comput. Mol. Sci., 2020, 11,
     e01493. DOI: 10.1002/wcms.1493
   
   for GFN2-xTB:
   * C. Bannwarth, S. Ehlert and S. Grimme., J. Chem. Theory Comput., 2019,
     15, 1652-1671. DOI: 10.1021/acs.jctc.8b01176
   for GFN1-xTB:
   * S. Grimme, C. Bannwarth, P. Shushkov, J. Chem. Theory Comput., 2017,
     13, 1989-2009. DOI: 10.1021/acs.jctc.7b00118
   for GFN0-xTB:
   * P. Pracht, E. Caldeweyher, S. Ehlert, S. Grimme, ChemRxiv, 2019, preprint.
     DOI: 10.26434/chemrxiv.8326202.v1
   for GFN-FF:
   * S. Spicher and S. Grimme, Angew. Chem. Int. Ed., 2020, 59, 15665-15673.
     DOI: 10.1002/anie.202004239
   
   for ALPB and GBSA implicit solvation:
   * S. Ehlert, M. Stahn, S. Spicher, S. Grimme, J. Chem. Theory Comput.,
     2021, 17, 4250-4261. DOI: 10.1021/acs.jctc.1c00471
   
   for DFT-D4:
   * E. Caldeweyher, C. Bannwarth and S. Grimme, J. Chem. Phys., 2017,
     147, 034112. DOI: 10.1063/1.4993215
   * E. Caldeweyher, S. Ehlert, A. Hansen, H. Neugebauer, S. Spicher,
     C. Bannwarth and S. Grimme, J. Chem. Phys., 2019, 150, 154122.
     DOI: 10.1063/1.5090222
   * E. Caldeweyher, J.-M. Mewes, S. Ehlert and S. Grimme, Phys. Chem. Chem. Phys.
     2020, 22, 8499-8512. DOI: 10.1039/D0CP00502A
   
   for sTDA-xTB:
   * S. Grimme and C. Bannwarth, J. Chem. Phys., 2016, 145, 054103.
     DOI: 10.1063/1.4959605
   
   in the mass-spec context:
   * V. Asgeirsson, C. Bauer and S. Grimme, Chem. Sci., 2017, 8, 4879.
     DOI: 10.1039/c7sc00601b
   * J. Koopman and S. Grimme, ACS Omega 2019, 4, 12, 15120-15133.
     DOI: 10.1021/acsomega.9b02011
   
   for metadynamics refer to:
   * S. Grimme, J. Chem. Theory Comput., 2019, 155, 2847-2862
     DOI: 10.1021/acs.jctc.9b00143
   
   for SPH calculations refer to:
   * S. Spicher and S. Grimme, J. Chem. Theory Comput., 2021, 17, 1701-1714
     DOI: 10.1021/acs.jctc.0c01306
   
   with help from (in alphabetical order)
   P. Atkinson, C. Bannwarth, F. Bohle, G. Brandenburg, E. Caldeweyher
   M. Checinski, S. Dohm, S. Ehlert, S. Ehrlich, I. Gerasimov, C. Hölzer
   A. Katbashev, J. Koopman, C. Lavigne, S. Lehtola, F. März, M. Müller,
   F. Musil, H. Neugebauer, J. Pisarek, C. Plett, P. Pracht, F. Pultar,
   J. Seibert, P. Shushkov, S. Spicher, M. Stahn, M. Steiner, T. Strunk,
   J. Stückrath, T. Rose, and J. Unsleber
   
 * started run on 2024/11/14 at 11:21:54.860     

           -------------------------------------------------
          |                Calculation Setup                |
           -------------------------------------------------

          program call               : xtb opt_cation_Nitro4.mol --gfn2 --sp --chrg 1 --uhf 0
          coordinate file            : opt_cation_Nitro4.mol
          omp threads                :                     8

   ID    Z sym.   atoms
    1    6 C      1-35, 39, 40, 42-45
    2   35 Br     36
    3    7 N      37, 46, 48
    4   14 Si     38
    5    8 O      41, 47, 49
    6    1 H      50-90
########################################################################
[WARNING] Please study the warnings concerning your input carefully
-1- prog_main: Charge in sdf/mol input was overwritten
########################################################################

           -------------------------------------------------
          |                 G F N 2 - x T B                 |
           -------------------------------------------------

        Reference                      10.1021/acs.jctc.8b01176
      * Hamiltonian:
        H0-scaling (s, p, d)           1.850000    2.230000    2.230000
        zeta-weighting                 0.500000
      * Dispersion:
        s8                             2.700000
        a1                             0.520000
        a2                             5.000000
        s9                             5.000000
      * Repulsion:
        kExp                           1.500000    1.000000
        rExp                           1.000000
      * Coulomb:
        alpha                          2.000000
        third order                    shell-resolved
        anisotropic                    true
        a3                             3.000000
        a5                             4.000000
        cn-shift                       1.200000
        cn-exp                         4.000000
        max-rad                        5.000000

q/qsh data taken from xtbrestart
CAMM data taken from xtbrestart

          ...................................................
          :                      SETUP                      :
          :.................................................:
          :  # basis functions                 249          :
          :  # atomic orbitals                 247          :
          :  # shells                          141          :
          :  # electrons                       248          :
          :  max. iterations                   250          :
          :  Hamiltonian                  GFN2-xTB          :
          :  restarted?                       true          :
          :  GBSA solvation                  false          :
          :  PC potential                    false          :
          :  electronic temp.          300.0000000     K    :
          :  accuracy                    1.0000000          :
          :  -> integral cutoff          0.2500000E+02      :
          :  -> integral neglect         0.1000000E-07      :
          :  -> SCF convergence          0.1000000E-05 Eh   :
          :  -> wf. convergence          0.1000000E-03 e    :
          :  Broyden damping             0.4000000          :
          ...................................................

 iter      E             dE          RMSdq      gap      omega  full diag
   1   -136.9788064 -0.136979E+03  0.147E+00    1.85       0.0  T
   2   -136.6748664  0.303940E+00  0.165E+00    0.15       1.0  T
   3   -137.0381451 -0.363279E+00  0.953E-01    1.40       1.0  T
   4   -137.0955496 -0.574046E-01  0.635E-01    0.21       1.0  T
   5   -136.4359191  0.659631E+00  0.191E+00    0.12       1.0  T
   6   -136.8636992 -0.427780E+00  0.130E+00    0.13       1.0  T
   7   -137.0023123 -0.138613E+00  0.914E-01    0.04       1.0  T
   8   -136.4367286  0.565584E+00  0.176E+00    0.08       1.0  T
   9   -137.1021220 -0.665393E+00  0.471E-01    0.30       1.0  T
  10   -137.1143836 -0.122616E-01  0.378E-01    0.19       1.0  T
  11   -137.1224249 -0.804126E-02  0.306E-01    0.14       1.0  T
  12   -137.1334711 -0.110462E-01  0.192E-01    0.10       1.0  T
  13   -137.1218944  0.115767E-01  0.292E-01    0.14       1.0  T
  14   -137.1383641 -0.164697E-01  0.680E-02    0.07       1.0  T
  15   -137.1380250  0.339184E-03  0.700E-02    0.08       1.0  T
  16   -137.1389448 -0.919880E-03  0.260E-02    0.07       1.0  T
  17   -137.1365487  0.239611E-02  0.108E-01    0.09       1.0  T
  18   -137.1389392 -0.239047E-02  0.242E-02    0.07       1.0  T
  19   -137.1387225  0.216714E-03  0.393E-02    0.07       1.0  T
  20   -137.1389764 -0.253871E-03  0.188E-02    0.07       1.0  T
  21   -137.1389450  0.313986E-04  0.223E-02    0.07       1.0  T
  22   -137.1389760 -0.310387E-04  0.166E-02    0.07       1.0  T
  23   -137.1389692  0.680504E-05  0.162E-02    0.06       1.0  T
  24   -137.1389776 -0.836733E-05  0.148E-02    0.07       1.0  T
  25   -137.1389712  0.632176E-05  0.158E-02    0.07       1.0  T
  26   -137.1389920 -0.208032E-04  0.109E-02    0.07       1.0  T
  27   -137.1390011 -0.908034E-05  0.738E-03    0.07       1.4  T
  28   -137.1390066 -0.544879E-05  0.431E-03    0.07       2.4  T
  29   -137.1390087 -0.212250E-05  0.203E-03    0.07       5.2  T
  30   -137.1390083  0.380570E-06  0.244E-03    0.07       4.3  T
  31   -137.1390091 -0.833117E-06  0.111E-03    0.07       9.5  T
  32   -137.1390093 -0.182888E-06  0.299E-04    0.07      35.3  T
  33   -137.1390093 -0.100408E-07  0.173E-04    0.07      61.1  T

   *** convergence criteria satisfied after 33 iterations ***

         #    Occupation            Energy/Eh            Energy/eV
      -------------------------------------------------------------
         1        2.0000           -0.9104058             -24.7734
       ...           ...                  ...                  ...
       118        2.0000           -0.4814216             -13.1001
       119        2.0000           -0.4761414             -12.9565
       120        1.9999           -0.4665392             -12.6952
       121        1.9998           -0.4661505             -12.6846
       122        1.9990           -0.4644267             -12.6377
       123        1.9877           -0.4620327             -12.5726
       124        1.5704           -0.4584343             -12.4746 (HOMO)
       125        0.4432           -0.4560093             -12.4086 (LUMO)
       126                         -0.3828446             -10.4177
       127                         -0.3648143              -9.9271
       128                         -0.3584430              -9.7537
       129                         -0.3413416              -9.2884
       ...                                ...                  ...
       247                          0.6436940              17.5158
      -------------------------------------------------------------
                  HL-Gap            0.0024250 Eh            0.0660 eV
             Fermi-level           -0.4572029 Eh          -12.4411 eV

 SCC (total)                   0 d,  0 h,  0 min,  1.549 sec
 SCC setup                      ...        0 min,  0.000 sec (  0.013%)
 Dispersion                     ...        0 min,  0.001 sec (  0.046%)
 classical contributions        ...        0 min,  0.000 sec (  0.011%)
 integral evaluation            ...        0 min,  0.004 sec (  0.246%)
 iterations                     ...        0 min,  1.521 sec ( 98.206%)
 molecular gradient             ...        0 min,  0.022 sec (  1.411%)
 printout                       ...        0 min,  0.001 sec (  0.066%)

         :::::::::::::::::::::::::::::::::::::::::::::::::::::
         ::                     SUMMARY                     ::
         :::::::::::::::::::::::::::::::::::::::::::::::::::::
         :: total energy            -135.073763486594 Eh    ::
         :: gradient norm              0.000874202161 Eh/a0 ::
         :: HOMO-LUMO gap              0.065987031845 eV    ::
         ::.................................................::
         :: SCC energy              -137.139009333316 Eh    ::
         :: -> isotropic ES            0.136414216245 Eh    ::
         :: -> anisotropic ES         -0.000114754970 Eh    ::
         :: -> anisotropic XC          0.052889440302 Eh    ::
         :: -> dispersion             -0.131070907613 Eh    ::
         :: repulsion energy           2.061128352069 Eh    ::
         :: add. restraining           0.000000000000 Eh    ::
         :: total charge               1.000001595726 e     ::
         :::::::::::::::::::::::::::::::::::::::::::::::::::::

           -------------------------------------------------
          |                Property Printout                |
           -------------------------------------------------

    * Orbital Energies and Occupations

         #    Occupation            Energy/Eh            Energy/eV
      -------------------------------------------------------------
         1        2.0000           -0.9104058             -24.7734
       ...           ...                  ...                  ...
       112        2.0000           -0.5062936             -13.7770
       113        2.0000           -0.5029884             -13.6870
       114        2.0000           -0.4981335             -13.5549
       115        2.0000           -0.4909659             -13.3599
       116        2.0000           -0.4880186             -13.2797
       117        2.0000           -0.4856320             -13.2147
       118        2.0000           -0.4814216             -13.1001
       119        2.0000           -0.4761414             -12.9565
       120        1.9999           -0.4665392             -12.6952
       121        1.9998           -0.4661505             -12.6846
       122        1.9990           -0.4644267             -12.6377
       123        1.9877           -0.4620327             -12.5726
       124        1.5704           -0.4584343             -12.4746 (HOMO)
       125        0.4432           -0.4560093             -12.4086 (LUMO)
       126                         -0.3828446             -10.4177
       127                         -0.3648143              -9.9271
       128                         -0.3584430              -9.7537
       129                         -0.3413416              -9.2884
       130                         -0.3304444              -8.9918
       131                         -0.3073067              -8.3622
       132                         -0.3005685              -8.1789
       133                         -0.2914044              -7.9295
       134                         -0.2791725              -7.5967
       135                         -0.2784497              -7.5770
       ...                                ...                  ...
       247                          0.6436940              17.5158
      -------------------------------------------------------------
                  HL-Gap            0.0024250 Eh            0.0660 eV
             Fermi-level           -0.4572029 Eh          -12.4411 eV

     #   Z          covCN         q      C6AA      α(0)
     1   6 C        2.925    -0.036    28.903     8.816
     2   6 C        2.984    -0.035    28.864     8.813
     3   6 C        2.915     0.081    26.195     8.393
     4   6 C        3.001    -0.038    28.932     8.823
     5   6 C        2.984     0.013    27.709     8.635
     6   6 C        2.987     0.010    27.788     8.647
     7   6 C        2.976     0.018    27.594     8.617
     8   6 C        2.986     0.021    27.521     8.605
     9   6 C        2.918    -0.026    28.658     8.779
    10   6 C        2.914    -0.033    28.832     8.805
    11   6 C        3.057    -0.011    28.239     8.715
    12   6 C        3.091     0.057    26.620     8.457
    13   6 C        2.907    -0.037    28.931     8.820
    14   6 C        2.927    -0.031    28.763     8.795
    15   6 C        3.059    -0.017    28.369     8.735
    16   6 C        3.091     0.053    26.703     8.470
    17   6 C        2.979     0.012    27.742     8.640
    18   6 C        2.985     0.016    27.648     8.625
    19   6 C        2.926    -0.031    28.784     8.798
    20   6 C        2.907    -0.037    28.930     8.819
    21   6 C        2.981     0.012    27.735     8.639
    22   6 C        2.987     0.026    27.413     8.588
    23   6 C        2.913    -0.027    28.673     8.781
    24   6 C        2.917    -0.024    28.600     8.770
    25   6 C        2.967     0.006    27.886     8.662
    26   6 C        2.918    -0.036    28.908     8.817
    27   6 C        2.919    -0.027    28.669     8.780
    28   6 C        2.925    -0.037    28.923     8.820
    29   6 C        2.884     0.038    27.146     8.542
    30   6 C        3.883     0.043    19.800     6.326
    31   6 C        3.884     0.042    19.827     6.331
    32   6 C        3.760    -0.121    22.864     6.817
    33   6 C        3.758    -0.122    22.883     6.820
    34   6 C        3.758    -0.123    22.906     6.824
    35   6 C        3.761    -0.121    22.865     6.817
    36  35 Br       1.073    -0.140   188.908    22.161
    37   7 N        2.798    -0.018    21.600     6.903
    38  14 Si       3.502     0.493   100.654    19.409
    39   6 C        3.696    -0.166    23.913     6.995
    40   6 C        3.710     0.087    19.264     6.273
    41   8 O        1.702    -0.318    19.311     5.933
    42   6 C        3.649    -0.210    25.040     7.189
    43   6 C        3.649    -0.212    25.077     7.194
    44   6 C        3.649    -0.211    25.069     7.193
    45   6 C        3.640     0.148    18.517     6.188
    46   7 N        2.809     0.237    17.383     6.192
    47   8 O        0.926    -0.370    21.063     6.155
    48   7 N        2.811     0.251    17.182     6.156
    49   8 O        0.926    -0.340    20.484     6.070
    50   1 H        0.925     0.052     2.291     2.367
    51   1 H        0.925     0.081     1.972     2.196
    52   1 H        0.925     0.081     1.972     2.196
    53   1 H        0.925     0.066     2.127     2.281
    54   1 H        0.925     0.088     1.896     2.153
    55   1 H        0.925     0.070     2.087     2.259
    56   1 H        0.925     0.065     2.136     2.285
    57   1 H        0.925     0.083     1.944     2.181
    58   1 H        0.925     0.070     2.088     2.260
    59   1 H        0.925     0.051     2.313     2.378
    60   1 H        0.925     0.079     1.987     2.204
    61   1 H        0.925     0.077     2.007     2.215
    62   1 H        0.926     0.081     1.964     2.191
    63   1 H        0.926     0.062     2.173     2.305
    64   1 H        0.926     0.080     1.977     2.199
    65   1 H        0.926     0.059     2.216     2.328
    66   1 H        0.926     0.056     2.242     2.341
    67   1 H        0.926     0.057     2.230     2.335
    68   1 H        0.926     0.052     2.295     2.369
    69   1 H        0.923     0.040     2.449     2.447
    70   1 H        0.923     0.040     2.452     2.449
    71   1 H        0.923     0.015     2.805     2.619
    72   1 H        0.923     0.014     2.834     2.633
    73   1 H        0.925     0.047     2.362     2.403
    74   1 H        0.925     0.045     2.385     2.415
    75   1 H        0.925     0.039     2.466     2.456
    76   1 H        0.925     0.047     2.359     2.402
    77   1 H        0.925     0.048     2.341     2.393
    78   1 H        0.925     0.046     2.370     2.407
    79   1 H        0.925     0.044     2.395     2.420
    80   1 H        0.925     0.046     2.368     2.407
    81   1 H        0.925     0.038     2.472     2.459
    82   1 H        0.925     0.049     2.334     2.389
    83   1 H        0.925     0.044     2.390     2.418
    84   1 H        0.926     0.051     2.305     2.374
    85   1 H        0.926     0.055     2.259     2.350
    86   1 H        0.926     0.049     2.332     2.388
    87   1 H        0.926     0.044     2.390     2.418
    88   1 H        0.926     0.048     2.343     2.394
    89   1 H        0.926     0.064     2.152     2.294
    90   1 H        0.926     0.063     2.167     2.302

 Mol. C6AA /au·bohr⁶  :     103344.066597
 Mol. C8AA /au·bohr⁸  :    2744847.816324
 Mol. α(0) /au        :        508.427972


Wiberg/Mayer (AO) data.
largest (>0.10) Wiberg bond orders for each atom

 ---------------------------------------------------------------------------
     #   Z sym  total        # sym  WBO       # sym  WBO       # sym  WBO
 ---------------------------------------------------------------------------
     1   6 C    3.963 --     2 C    1.513     6 C    1.305    88 H    0.965
     2   6 C    3.979 --     1 C    1.513     3 C    1.334    89 H    0.966
     3   6 C    3.916 --     4 C    1.454     2 C    1.334    36 Br   0.995
     4   6 C    3.969 --     3 C    1.454     5 C    1.328    90 H    0.959
     5   6 C    3.980 --     4 C    1.328     6 C    1.267     7 C    1.169
     6   6 C    3.984 --     1 C    1.305     5 C    1.267    10 C    1.226
     7   6 C    3.953 --    11 C    1.286     8 C    1.265     5 C    1.169
     8   6 C    3.946 --    14 C    1.269     7 C    1.265     9 C    1.241
     9   6 C    3.963 --    10 C    1.594     8 C    1.241    86 H    0.966
    10   6 C    3.933 --     9 C    1.594     6 C    1.226    87 H    0.965
    11   6 C    3.936 --     7 C    1.286    12 C    1.262    15 C    1.157
    12   6 C    3.928 --    13 C    1.284    11 C    1.262    37 N    1.172
    13   6 C    3.957 --    14 C    1.551    12 C    1.284    84 H    0.962
    14   6 C    3.953 --    13 C    1.551     8 C    1.269    85 H    0.966
    15   6 C    3.958 --    17 C    1.283    16 C    1.275    11 C    1.157
    16   6 C    3.939 --    20 C    1.296    15 C    1.275    37 N    1.153
    17   6 C    3.953 --    15 C    1.283    18 C    1.269    21 C    1.164
    18   6 C    3.952 --    19 C    1.285    17 C    1.269    24 C    1.228
    19   6 C    3.955 --    20 C    1.533    18 C    1.285    67 H    0.966
    20   6 C    3.947 --    19 C    1.533    16 C    1.296    68 H    0.963
    21   6 C    3.986 --    28 C    1.351    22 C    1.261    17 C    1.164
    22   6 C    3.982 --    27 C    1.301    21 C    1.261    23 C    1.222
    23   6 C    3.944 --    24 C    1.609    22 C    1.222    65 H    0.965
    24   6 C    3.964 --    23 C    1.609    18 C    1.228    66 H    0.965
    25   6 C    3.961 --    28 C    1.396    26 C    1.282    29 C    1.103
    26   6 C    3.965 --    27 C    1.534    25 C    1.282    62 H    0.957
    27   6 C    3.966 --    26 C    1.534    22 C    1.301    63 H    0.965
    28   6 C    3.970 --    25 C    1.396    21 C    1.351    64 H    0.950
    29   6 C    3.932 --    46 N    1.232    48 N    1.226    25 C    1.103
                            49 O    0.142    47 O    0.138
    30   6 C    3.951 --    33 C    0.994    32 C    0.970    31 C    0.955
                            46 N    0.907
    31   6 C    3.949 --    34 C    0.995    35 C    0.966    30 C    0.955
                            48 N    0.907
    32   6 C    3.967 --    59 H    0.982    60 H    0.975    61 H    0.975
                            30 C    0.970
    33   6 C    3.977 --    30 C    0.994    56 H    0.979    58 H    0.978
                            57 H    0.976
    34   6 C    3.975 --    31 C    0.995    53 H    0.979    55 H    0.978
                            54 H    0.975
    35   6 C    3.966 --    50 H    0.983    52 H    0.977    51 H    0.974
                            31 C    0.966
    36  35 Br   1.124 --     3 C    0.995
    37   7 N    3.529 --    12 C    1.172    16 C    1.153    45 C    0.997
    38  14 Si   3.570 --    44 C    0.910    43 C    0.910    42 C    0.886
                            39 C    0.780
    39   6 C    3.896 --    40 C    1.025    74 H    0.982    73 H    0.981
                            38 Si   0.780
    40   6 C    3.934 --    39 C    1.025    71 H    0.973    72 H    0.972
                            41 O    0.952
    41   8 O    2.059 --    45 C    0.987    40 C    0.952
    42   6 C    3.955 --    79 H    0.987    80 H    0.984    78 H    0.984
                            38 Si   0.886
    43   6 C    3.980 --    81 H    0.984    82 H    0.984    83 H    0.983
                            38 Si   0.910
    44   6 C    3.979 --    75 H    0.984    77 H    0.984    76 H    0.983
                            38 Si   0.910
    45   6 C    3.950 --    37 N    0.997    41 O    0.987    69 H    0.954
                            70 H    0.953
    46   7 N    3.639 --    47 O    1.340    29 C    1.232    30 C    0.907
    47   8 O    1.731 --    46 N    1.340    29 C    0.138
    48   7 N    3.646 --    49 O    1.372    29 C    1.226    31 C    0.907
    49   8 O    1.753 --    48 N    1.372    29 C    0.142
    50   1 H    0.997 --    35 C    0.983
    51   1 H    0.991 --    35 C    0.974
    52   1 H    0.993 --    35 C    0.977
    53   1 H    0.995 --    34 C    0.979
Note: The following floating-point exceptions are signalling: IEEE_UNDERFLOW_FLAG
normal termination of xtb
    54   1 H    0.991 --    34 C    0.975
    55   1 H    0.994 --    34 C    0.978
    56   1 H    0.995 --    33 C    0.979
    57   1 H    0.992 --    33 C    0.976
    58   1 H    0.994 --    33 C    0.978
    59   1 H    0.997 --    32 C    0.982
    60   1 H    0.992 --    32 C    0.975
    61   1 H    0.994 --    32 C    0.975
    62   1 H    0.992 --    26 C    0.957
    63   1 H    0.995 --    27 C    0.965
    64   1 H    0.993 --    28 C    0.950
    65   1 H    0.995 --    23 C    0.965
    66   1 H    0.996 --    24 C    0.965
    67   1 H    0.996 --    19 C    0.966
    68   1 H    0.996 --    20 C    0.963
    69   1 H    0.996 --    45 C    0.954
    70   1 H    0.997 --    45 C    0.953
    71   1 H    1.000 --    40 C    0.973
    72   1 H    1.000 --    40 C    0.972
    73   1 H    0.996 --    39 C    0.981
    74   1 H    0.997 --    39 C    0.982
    75   1 H    0.998 --    44 C    0.984
    76   1 H    0.998 --    44 C    0.983
    77   1 H    0.996 --    44 C    0.984
    78   1 H    0.998 --    42 C    0.984
    79   1 H    0.995 --    42 C    0.987
    80   1 H    0.998 --    42 C    0.984
    81   1 H    0.998 --    43 C    0.984
    82   1 H    0.996 --    43 C    0.984
    83   1 H    0.998 --    43 C    0.983
    84   1 H    0.996 --    13 C    0.962
    85   1 H    0.996 --    14 C    0.966
    86   1 H    0.996 --     9 C    0.966
    87   1 H    0.997 --    10 C    0.965
    88   1 H    0.997 --     1 C    0.965
    89   1 H    0.995 --     2 C    0.966
    90   1 H    0.996 --     4 C    0.959
 ---------------------------------------------------------------------------

Topologies differ in bond orders
Writing corrected topology to xtbtopo.mol

molecular dipole:
                 x           y           z       tot (Debye)
 q only:       -1.538       3.255      -2.982
   full:       -1.417       3.729      -3.061      12.781
molecular quadrupole (traceless):
                xx          xy          yy          xz          yz          zz
 q only:       21.943     -27.515     -43.435      90.724     -12.834      21.492
  q+dip:       31.722     -31.174     -40.981      88.481     -10.925       9.259
   full:       28.047     -29.684     -46.381      84.000     -13.804      18.334


           -------------------------------------------------
          | TOTAL ENERGY             -135.073763486594 Eh   |
          | GRADIENT NORM               0.000874202161 Eh/α |
          | HOMO-LUMO GAP               0.065987031845 eV   |
           -------------------------------------------------
########################################################################
[WARNING] Runtime exception occurred
-1- restart_readRestart: Number of electron missmatch in restart file.
########################################################################

------------------------------------------------------------------------
 * finished run on 2024/11/14 at 11:21:56.424     
------------------------------------------------------------------------
 total:
 * wall-time:     0 d,  0 h,  0 min,  1.563 sec
 *  cpu-time:     0 d,  0 h,  0 min,  5.391 sec
 * ratio c/w:     3.449 speedup
 SCF:
 * wall-time:     0 d,  0 h,  0 min,  1.549 sec
 *  cpu-time:     0 d,  0 h,  0 min,  5.370 sec
 * ratio c/w:     3.466 speedup

