      -----------------------------------------------------------      
     |                   =====================                   |     
     |                           x T B                           |     
     |                   =====================                   |     
     |                         S. Grimme                         |     
     |          Mulliken Center for Theoretical Chemistry        |     
     |                    University of Bonn                     |     
      -----------------------------------------------------------      

   * xtb version 6.6.1 (8d0f1dd) compiled by 'runner@Mac-1690902418499.local' on 2023-08-01

   xtb is free software: you can redistribute it and/or modify it under
   the terms of the GNU Lesser General Public License as published by
   the Free Software Foundation, either version 3 of the License, or
   (at your option) any later version.
   
   xtb is distributed in the hope that it will be useful,
   but WITHOUT ANY WARRANTY; without even the implied warranty of
   MERCHANTABILITY or FITNESS FOR A PARTICULAR PURPOSE.  See the
   GNU Lesser General Public License for more details.
   
   Cite this work as:
   * C. Bannwarth, E. Caldeweyher, S. Ehlert, A. Hansen, P. Pracht,
     J. Seibert, S. Spicher, S. Grimme, WIREs Comput. Mol. Sci., 2020, 11,
     e01493. DOI: 10.1002/wcms.1493
   
   for GFN2-xTB:
   * C. Bannwarth, S. Ehlert and S. Grimme., J. Chem. Theory Comput., 2019,
     15, 1652-1671. DOI: 10.1021/acs.jctc.8b01176
   for GFN1-xTB:
   * S. Grimme, C. Bannwarth, P. Shushkov, J. Chem. Theory Comput., 2017,
     13, 1989-2009. DOI: 10.1021/acs.jctc.7b00118
   for GFN0-xTB:
   * P. Pracht, E. Caldeweyher, S. Ehlert, S. Grimme, ChemRxiv, 2019, preprint.
     DOI: 10.26434/chemrxiv.8326202.v1
   for GFN-FF:
   * S. Spicher and S. Grimme, Angew. Chem. Int. Ed., 2020, 59, 15665-15673.
     DOI: 10.1002/anie.202004239
   
   for ALPB and GBSA implicit solvation:
   * S. Ehlert, M. Stahn, S. Spicher, S. Grimme, J. Chem. Theory Comput.,
     2021, 17, 4250-4261. DOI: 10.1021/acs.jctc.1c00471
   
   for DFT-D4:
   * E. Caldeweyher, C. Bannwarth and S. Grimme, J. Chem. Phys., 2017,
     147, 034112. DOI: 10.1063/1.4993215
   * E. Caldeweyher, S. Ehlert, A. Hansen, H. Neugebauer, S. Spicher,
     C. Bannwarth and S. Grimme, J. Chem. Phys., 2019, 150, 154122.
     DOI: 10.1063/1.5090222
   * E. Caldeweyher, J.-M. Mewes, S. Ehlert and S. Grimme, Phys. Chem. Chem. Phys.
     2020, 22, 8499-8512. DOI: 10.1039/D0CP00502A
   
   for sTDA-xTB:
   * S. Grimme and C. Bannwarth, J. Chem. Phys., 2016, 145, 054103.
     DOI: 10.1063/1.4959605
   
   in the mass-spec context:
   * V. Asgeirsson, C. Bauer and S. Grimme, Chem. Sci., 2017, 8, 4879.
     DOI: 10.1039/c7sc00601b
   * J. Koopman and S. Grimme, ACS Omega 2019, 4, 12, 15120-15133.
     DOI: 10.1021/acsomega.9b02011
   
   for metadynamics refer to:
   * S. Grimme, J. Chem. Theory Comput., 2019, 155, 2847-2862
     DOI: 10.1021/acs.jctc.9b00143
   
   for SPH calculations refer to:
   * S. Spicher and S. Grimme, J. Chem. Theory Comput., 2021, 17, 1701-1714
     DOI: 10.1021/acs.jctc.0c01306
   
   with help from (in alphabetical order)
   P. Atkinson, C. Bannwarth, F. Bohle, G. Brandenburg, E. Caldeweyher
   M. Checinski, S. Dohm, S. Ehlert, S. Ehrlich, I. Gerasimov, C. Hölzer
   A. Katbashev, J. Koopman, C. Lavigne, S. Lehtola, F. März, M. Müller,
   F. Musil, H. Neugebauer, J. Pisarek, C. Plett, P. Pracht, F. Pultar,
   J. Seibert, P. Shushkov, S. Spicher, M. Stahn, M. Steiner, T. Strunk,
   J. Stückrath, T. Rose, and J. Unsleber
   
 * started run on 2024/11/14 at 11:20:41.302     

           -------------------------------------------------
          |                Calculation Setup                |
           -------------------------------------------------

          program call               : xtb Nitro4.mol --opt --gfn2 --chrg 1 --uhf 0 --tight
          coordinate file            : Nitro4.mol
          omp threads                :                     8

   ID    Z sym.   atoms
    1    6 C      1-35, 39, 40, 42-45
    2   35 Br     36
    3    7 N      37, 46, 48
    4   14 Si     38
    5    8 O      41, 47, 49
    6    1 H      50-90
########################################################################
[WARNING] Please study the warnings concerning your input carefully
-1- prog_main_parseArguments: Unknown option '--tight' provided
########################################################################

           -------------------------------------------------
          |                 G F N 2 - x T B                 |
           -------------------------------------------------

        Reference                      10.1021/acs.jctc.8b01176
      * Hamiltonian:
        H0-scaling (s, p, d)           1.850000    2.230000    2.230000
        zeta-weighting                 0.500000
      * Dispersion:
        s8                             2.700000
        a1                             0.520000
        a2                             5.000000
        s9                             5.000000
      * Repulsion:
        kExp                           1.500000    1.000000
        rExp                           1.000000
      * Coulomb:
        alpha                          2.000000
        third order                    shell-resolved
        anisotropic                    true
        a3                             3.000000
        a5                             4.000000
        cn-shift                       1.200000
        cn-exp                         4.000000
        max-rad                        5.000000

q/qsh data taken from xtbrestart
CAMM data taken from xtbrestart

          ...................................................
          :                      SETUP                      :
          :.................................................:
          :  # basis functions                 249          :
          :  # atomic orbitals                 247          :
          :  # shells                          141          :
          :  # electrons                       248          :
          :  max. iterations                   250          :
          :  Hamiltonian                  GFN2-xTB          :
          :  restarted?                       true          :
          :  GBSA solvation                  false          :
          :  PC potential                    false          :
          :  electronic temp.          300.0000000     K    :
          :  accuracy                    1.0000000          :
          :  -> integral cutoff          0.2500000E+02      :
          :  -> integral neglect         0.1000000E-07      :
          :  -> SCF convergence          0.1000000E-05 Eh   :
          :  -> wf. convergence          0.1000000E-03 e    :
          :  Broyden damping             0.4000000          :
          ...................................................

 iter      E             dE          RMSdq      gap      omega  full diag
   1   -136.0789240 -0.136079E+03  0.242E+00    0.02       0.0  T
   2   -135.2460668  0.832857E+00  0.258E+00    0.09       1.0  T
   3   -136.6108490 -0.136478E+01  0.253E+00    0.64       1.0  T
   4   -136.6507159 -0.398669E-01  0.241E+00    0.46       1.0  T
   5   -136.5894188  0.612971E-01  0.220E+00    0.33       1.0  T
   6   -136.1556295  0.433789E+00  0.156E+00    0.72       1.0  T
   7   -136.4084569 -0.252827E+00  0.139E+00    0.16       1.0  T
   8   -136.7708326 -0.362376E+00  0.422E-01    0.07       1.0  T
   9   -136.5810975  0.189735E+00  0.975E-01    0.01       1.0  T
  10   -136.7294620 -0.148365E+00  0.546E-01    0.35       1.0  T
  11   -136.7371136 -0.765159E-02  0.465E-01    0.26       1.0  T
  12   -136.4286871  0.308427E+00  0.110E+00    0.08       1.0  T
  13   -136.7791167 -0.350430E+00  0.184E-01    0.11       1.0  T
  14   -136.7436612  0.354554E-01  0.429E-01    0.20       1.0  T
  15   -136.7575627 -0.139014E-01  0.334E-01    0.16       1.0  T
  16   -136.7544010  0.316167E-02  0.355E-01    0.17       1.0  T
  17   -136.7579811 -0.358007E-02  0.328E-01    0.16       1.0  T
  18   -136.7721606 -0.141795E-01  0.226E-01    0.13       1.0  T
  19   -136.7741292 -0.196860E-02  0.216E-01    0.13       1.0  T
  20   -136.7848063 -0.106772E-01  0.105E-01    0.10       1.0  T
  21   -136.7878609 -0.305461E-02  0.319E-02    0.08       1.0  T
  22   -136.7877444  0.116513E-03  0.385E-02    0.07       1.0  T
  23   -136.7881603 -0.415877E-03  0.287E-03    0.07       3.7  T
  24   -136.7879565  0.203821E-03  0.266E-02    0.07       1.0  T
  25   -136.7881605 -0.203999E-03  0.261E-03    0.07       4.0  T
  26   -136.7881617 -0.125869E-05  0.774E-04    0.07      13.6  T
  27   -136.7881616  0.143108E-06  0.968E-04    0.07      10.9  T
  28   -136.7881614  0.197945E-06  0.118E-03    0.07       8.9  T
  29   -136.7881618 -0.380339E-06  0.452E-04    0.07      23.3  T

   *** convergence criteria satisfied after 29 iterations ***

         #    Occupation            Energy/Eh            Energy/eV
      -------------------------------------------------------------
         1        2.0000           -0.8960394             -24.3825
       ...           ...                  ...                  ...
       118        2.0000           -0.4713950             -12.8273
       119        2.0000           -0.4693647             -12.7721
       120        2.0000           -0.4661501             -12.6846
       121        2.0000           -0.4506770             -12.2635
       122        1.9988           -0.4439984             -12.0818
       123        1.9300           -0.4400876             -11.9754
       124        1.6451           -0.4383937             -11.9293 (HOMO)
       125        0.4260           -0.4356950             -11.8559 (LUMO)
       126                         -0.3637599              -9.8984
       127                         -0.3559027              -9.6846
       128                         -0.3545067              -9.6466
       129                         -0.3468308              -9.4377
       ...                                ...                  ...
       247                          0.8551928              23.2710
      -------------------------------------------------------------
                  HL-Gap            0.0026987 Eh            0.0734 eV
             Fermi-level           -0.4369365 Eh          -11.8896 eV

 SCC (total)                   0 d,  0 h,  0 min,  1.809 sec
 SCC setup                      ...        0 min,  0.000 sec (  0.011%)
 Dispersion                     ...        0 min,  0.001 sec (  0.045%)
 classical contributions        ...        0 min,  0.000 sec (  0.010%)
 integral evaluation            ...        0 min,  0.004 sec (  0.216%)
 iterations                     ...        0 min,  1.781 sec ( 98.477%)
 molecular gradient             ...        0 min,  0.022 sec (  1.209%)
 printout                       ...        0 min,  0.001 sec (  0.031%)

         :::::::::::::::::::::::::::::::::::::::::::::::::::::
         ::                     SUMMARY                     ::
         :::::::::::::::::::::::::::::::::::::::::::::::::::::
         :: total energy            -134.897409756943 Eh    ::
         :: gradient norm              0.255137140659 Eh/a0 ::
         :: HOMO-LUMO gap              0.073435897017 eV    ::
         ::.................................................::
         :: SCC energy              -136.788161786963 Eh    ::
         :: -> isotropic ES            0.140949635430 Eh    ::
         :: -> anisotropic ES          0.001174286178 Eh    ::
         :: -> anisotropic XC          0.050354914622 Eh    ::
         :: -> dispersion             -0.131743808609 Eh    ::
         :: repulsion energy           1.886971566842 Eh    ::
         :: add. restraining           0.000000000000 Eh    ::
         :: total charge               1.000001387384 e     ::
         :::::::::::::::::::::::::::::::::::::::::::::::::::::

      ----------------------------------------------------------- 
     |                   =====================                   |
     |                        A N C O P T                        |
     |                   =====================                   |
     |               Approximate Normal Coordinate               |
     |                Rational Function Optimizer                |
      ----------------------------------------------------------- 

          ...................................................
          :                      SETUP                      :
          :.................................................:
          :   optimization level            normal          :
          :   max. optcycles                   270          :
          :   ANC micro-cycles                  20          :
          :   degrees of freedom               264          :
          :.................................................:
          :   RF solver                   davidson          :
          :   write xtbopt.log                true          :
          :   linear?                        false          :
          :   energy convergence         0.5000000E-05 Eh   :
          :   grad. convergence          0.1000000E-02 Eh/α :
          :   maxmium RF displ.          1.0000000          :
          :   Hlow (freq-cutoff)         0.1000000E-01      :
          :   Hmax (freq-cutoff)         5.0000000          :
          :   S6 in model hess.         20.0000000          :
          ...................................................

generating ANC from model Hessian ...
Using Lindh-Hessian (1995)
 Shifting diagonal of input Hessian by    1.0034317246020490E-002
 Lowest  eigenvalues of input Hessian
    0.010000    0.000000    0.000000    0.000000    0.000000    0.000000
    0.000000    0.010051    0.010068    0.010121    0.010192    0.010242
    0.010603    0.010755    0.010927    0.010980    0.011446    0.011670
 Highest eigenvalues
    2.041671    2.077576    2.100387    2.168990    2.177518    2.538587


........................................................................
.............................. CYCLE    1 ..............................
........................................................................

 iter      E             dE          RMSdq      gap      omega  full diag
   1   -136.7881618 -0.136788E+03  0.615E-05    0.07       0.0  T
   2   -136.7881616  0.224922E-06  0.835E-04    0.07      12.6  T
   3   -136.7881618 -0.170583E-06  0.478E-04    0.07      22.0  T
     SCC iter.                  ...        0 min,  0.110 sec
     gradient                   ...        0 min,  0.022 sec
 * total energy  :  -134.8974098 Eh     change       -0.4452659E-08 Eh
   gradient norm :     0.2551250 Eh/α   predicted     0.0000000E+00 (-100.00%)
   displ. norm   :     0.4641367 α      lambda       -0.7391706E-01
   maximum displ.:     0.1229476 α      in ANC's #68, #57, #52, ...

........................................................................
.............................. CYCLE    2 ..............................
........................................................................

 iter      E             dE          RMSdq      gap      omega  full diag
   1   -136.8319150 -0.136832E+03  0.589E-01    0.23       0.0  T
   2   -136.1888881  0.643027E+00  0.169E+00    0.83       1.0  T
   3   -136.5758372 -0.386949E+00  0.127E+00    0.12       1.0  T
   4   -136.8835118 -0.307675E+00  0.388E-01    0.08       1.0  T
   5   -136.6657864  0.217725E+00  0.931E-01    0.03       1.0  T
   6   -136.8571498 -0.191363E+00  0.438E-01    0.20       1.0  T
   7   -136.8434647  0.136851E-01  0.491E-01    0.31       1.0  T
   8   -136.8543789 -0.109142E-01  0.431E-01    0.21       1.0  T
   9   -136.8700745 -0.156955E-01  0.329E-01    0.14       1.0  T
  10   -136.8753791 -0.530463E-02  0.286E-01    0.12       1.0  T
  11   -136.8762712 -0.892086E-03  0.277E-01    0.12       1.0  T
  12   -136.8757153  0.555874E-03  0.280E-01    0.12       1.0  T
  13   -136.8985563 -0.228410E-01  0.271E-02    0.08       1.0  T
  14   -136.8931274  0.542898E-02  0.132E-01    0.05       1.0  T
  15   -136.8936787 -0.551363E-03  0.132E-01    0.10       1.0  T
  16   -136.8961576 -0.247891E-02  0.919E-02    0.06       1.0  T
  17   -136.8982991 -0.214144E-02  0.351E-02    0.08       1.0  T
  18   -136.8985423 -0.243219E-03  0.211E-02    0.07       1.0  T
  19   -136.8984197  0.122615E-03  0.286E-02    0.07       1.0  T
  20   -136.8986705 -0.250842E-03  0.241E-03    0.07       4.4  T
  21   -136.8986374  0.331077E-04  0.105E-02    0.07       1.0  T
  22   -136.8986668 -0.293743E-04  0.395E-03    0.07       2.7  T
  23   -136.8986640  0.276661E-05  0.496E-03    0.07       2.1  T
  24   -136.8986715 -0.747418E-05  0.672E-04    0.07      15.7  T
  25   -136.8986716 -0.975920E-07  0.351E-04    0.07      30.0  T
  26   -136.8986716 -0.133185E-07  0.250E-04    0.07      42.2  T
     SCC iter.                  ...        0 min,  0.927 sec
     gradient                   ...        0 min,  0.023 sec
 * total energy  :  -134.9504862 Eh     change       -0.5307648E-01 Eh
   gradient norm :     0.1050658 Eh/α   predicted    -0.4496553E-01 ( -15.28%)
   displ. norm   :     0.5485325 α      lambda       -0.2951928E-01
   maximum displ.:     0.1665740 α      in ANC's #50, #52, #15, ...

........................................................................
.............................. CYCLE    3 ..............................
........................................................................

 iter      E             dE          RMSdq      gap      omega  full diag
   1   -136.9182335 -0.136918E+03  0.509E-01    0.24       0.0  T
   2   -136.2683309  0.649903E+00  0.167E+00    0.79       1.0  T
   3   -136.6267025 -0.358372E+00  0.127E+00    0.12       1.0  T
   4   -136.9504267 -0.323724E+00  0.358E-01    0.04       1.0  T
   5   -136.9641861 -0.137594E-01  0.216E-01    0.06       1.0  T
   6   -136.9612279  0.295818E-02  0.208E-01    0.11       1.0  T
   7   -136.8913281  0.698998E-01  0.533E-01    0.01       1.0  T
   8   -136.9524702 -0.611420E-01  0.268E-01    0.13       1.0  T
   9   -136.9656509 -0.131807E-01  0.144E-01    0.10       1.0  T
  10   -136.9710778 -0.542697E-02  0.541E-02    0.06       1.0  T
  11   -136.9713978 -0.319947E-03  0.362E-02    0.07       1.0  T
  12   -136.9717612 -0.363370E-03  0.688E-03    0.07       1.5  T
  13   -136.9716825  0.786126E-04  0.177E-02    0.07       1.0  T
  14   -136.9717635 -0.809946E-04  0.549E-03    0.07       1.9  T
  15   -136.9717663 -0.274818E-05  0.446E-03    0.07       2.4  T
  16   -136.9717704 -0.413056E-05  0.215E-03    0.07       4.9  T
  17   -136.9717712 -0.776955E-06  0.142E-03    0.07       7.4  T
  18   -136.9717710  0.229473E-06  0.165E-03    0.07       6.4  T
  19   -136.9717717 -0.722780E-06  0.237E-04    0.07      44.5  T
  20   -136.9717717 -0.527848E-09  0.239E-04    0.07      44.2  T
     SCC iter.                  ...        0 min,  0.602 sec
     gradient                   ...        0 min,  0.028 sec
 * total energy  :  -134.9698745 Eh     change       -0.1938823E-01 Eh
   gradient norm :     0.0291975 Eh/α   predicted    -0.1920066E-01 (  -0.97%)
   displ. norm   :     0.6436055 α      lambda       -0.1183210E-01
   maximum displ.:     0.2426301 α      in ANC's #15, #26, #50, ...

........................................................................
.............................. CYCLE    4 ..............................
........................................................................

 iter      E             dE          RMSdq      gap      omega  full diag
   1   -136.9874509 -0.136987E+03  0.190E-01    0.09       0.0  T
   2   -136.3903519  0.597099E+00  0.145E+00    0.47       1.0  T
   3   -136.9722099 -0.581858E+00  0.294E-01    0.13       1.0  T
   4   -136.8728709  0.993390E-01  0.722E-01    0.05       1.0  T
   5   -136.9898837 -0.117013E+00  0.102E-01    0.07       1.0  T
   6   -136.9859159  0.396774E-02  0.160E-01    0.09       1.0  T
   7   -136.9907298 -0.481382E-02  0.717E-02    0.07       1.0  T
   8   -136.9913789 -0.649167E-03  0.458E-02    0.07       1.0  T
   9   -136.9915470 -0.168068E-03  0.369E-02    0.07       1.0  T
  10   -136.9917842 -0.237177E-03  0.139E-02    0.07       1.0  T
  11   -136.9918168 -0.325869E-04  0.789E-03    0.07       1.3  T
  12   -136.9918099  0.687447E-05  0.874E-03    0.07       1.2  T
  13   -136.9918278 -0.179266E-04  0.391E-03    0.07       2.7  T
  14   -136.9918311 -0.331772E-05  0.212E-03    0.07       5.0  T
  15   -136.9918320 -0.884314E-06  0.826E-04    0.07      12.8  T
  16   -136.9918321 -0.127094E-06  0.304E-04    0.07      34.6  T
     SCC iter.                  ...        0 min,  0.995 sec
     gradient                   ...        0 min,  0.023 sec
 * total energy  :  -134.9792964 Eh     change       -0.9421980E-02 Eh
   gradient norm :     0.0223424 Eh/α   predicted    -0.8366645E-02 ( -11.20%)
   displ. norm   :     0.7416963 α      lambda       -0.9184766E-02
   maximum displ.:     0.3034098 α      in ANC's #15, #26, #11, ...

........................................................................
.............................. CYCLE    5 ..............................
........................................................................

 iter      E             dE          RMSdq      gap      omega  full diag
   1   -137.0067131 -0.137007E+03  0.143E-01    0.07       0.0  T
   2   -136.9720912  0.346219E-01  0.392E-01    0.16       1.0  T
   3   -136.5907315  0.381360E+00  0.118E+00    0.11       1.0  T
   4   -136.9914588 -0.400727E+00  0.250E-01    0.07       1.0  T
   5   -136.9960028 -0.454399E-02  0.230E-01    0.10       1.0  T
   6   -136.9948515  0.115134E-02  0.228E-01    0.11       1.0  T
   7   -137.0026021 -0.775058E-02  0.140E-01    0.09       1.0  T
   8   -137.0065840 -0.398190E-02  0.580E-02    0.08       1.0  T
   9   -137.0073952 -0.811187E-03  0.190E-02    0.07       1.0  T
  10   -137.0074672 -0.720629E-04  0.484E-03    0.07       2.2  T
  11   -137.0074472  0.200085E-04  0.988E-03    0.07       1.1  T
  12   -137.0074670 -0.198254E-04  0.426E-03    0.07       2.5  T
  13   -137.0074705 -0.341101E-05  0.188E-03    0.07       5.6  T
  14   -137.0074708 -0.374284E-06  0.116E-03    0.07       9.1  T
  15   -137.0074709 -0.672319E-07  0.101E-03    0.07      10.5  T
  16   -137.0074711 -0.214343E-06  0.584E-04    0.07      18.0  T
  17   -137.0074712 -0.764116E-07  0.200E-04    0.07      52.6  T
     SCC iter.                  ...        0 min,  0.858 sec
     gradient                   ...        0 min,  0.022 sec
 * total energy  :  -134.9863746 Eh     change       -0.7078144E-02 Eh
   gradient norm :     0.0167987 Eh/α   predicted    -0.7118718E-02 (   0.57%)
   displ. norm   :     0.7544857 α      lambda       -0.6819305E-02
   maximum displ.:     0.3067374 α      in ANC's #15, #11, #10, ...

........................................................................
.............................. CYCLE    6 ..............................
........................................................................

 iter      E             dE          RMSdq      gap      omega  full diag
   1   -137.0192564 -0.137019E+03  0.141E-01    0.08       0.0  T
   2   -136.4912930  0.527963E+00  0.135E+00    0.15       1.0  T
   3   -137.0014229 -0.510130E+00  0.294E-01    0.05       1.0  T
   4   -137.0008745  0.548352E-03  0.266E-01    0.03       1.0  T
   5   -137.0124788 -0.116043E-01  0.170E-01    0.05       1.0  T
   6   -137.0151869 -0.270807E-02  0.160E-01    0.08       1.0  T
   7   -137.0186270 -0.344011E-02  0.906E-02    0.07       1.0  T
   8   -137.0193367 -0.709662E-03  0.640E-02    0.06       1.0  T
   9   -137.0200463 -0.709630E-03  0.441E-02    0.07       1.0  T
  10   -137.0205349 -0.488587E-03  0.137E-02    0.07       1.0  T
  11   -137.0205017  0.331697E-04  0.174E-02    0.07       1.0  T
  12   -137.0205689 -0.672114E-04  0.569E-03    0.07       1.9  T
  13   -137.0205603  0.862782E-05  0.852E-03    0.07       1.2  T
  14   -137.0205734 -0.130766E-04  0.353E-03    0.07       3.0  T
  15   -137.0205764 -0.298067E-05  0.553E-04    0.07      19.1  T
  16   -137.0205762  0.160006E-06  0.977E-04    0.07      10.8  T
  17   -137.0205764 -0.152630E-06  0.434E-04    0.07      24.3  T
     SCC iter.                  ...        0 min,  0.660 sec
     gradient                   ...        0 min,  0.024 sec
 * total energy  :  -134.9916549 Eh     change       -0.5280287E-02 Eh
   gradient norm :     0.0167343 Eh/α   predicted    -0.5350594E-02 (   1.33%)
   displ. norm   :     0.7554514 α      lambda       -0.5254789E-02
   maximum displ.:     0.2957748 α      in ANC's #15, #10, #11, ...

........................................................................
.............................. CYCLE    7 ..............................
........................................................................

 iter      E             dE          RMSdq      gap      omega  full diag
   1   -137.0257427 -0.137026E+03  0.187E-01    0.10       0.0  T
   2   -136.4282499  0.597493E+00  0.145E+00    0.33       1.0  T
   3   -136.8222236 -0.393974E+00  0.949E-01    0.05       1.0  T
   4   -136.9282694 -0.106046E+00  0.590E-01    0.01       1.0  T
   5   -136.9848277 -0.565584E-01  0.445E-01    0.28       1.0  T
   6   -136.9825622  0.226552E-02  0.452E-01    0.32       1.0  T
   7   -136.9866315 -0.406932E-02  0.425E-01    0.25       1.0  T
   8   -137.0110446 -0.244130E-01  0.288E-01    0.13       1.0  T
   9   -137.0220344 -0.109898E-01  0.202E-01    0.10       1.0  T
  10   -137.0305884 -0.855408E-02  0.710E-02    0.06       1.0  T
  11   -137.0297078  0.880659E-03  0.101E-01    0.08       1.0  T
  12   -137.0297477 -0.398907E-04  0.886E-02    0.05       1.0  T
  13   -137.0319163 -0.216865E-02  0.286E-02    0.06       1.0  T
  14   -137.0317001  0.216227E-03  0.419E-02    0.06       1.0  T
  15   -137.0321110 -0.410915E-03  0.136E-02    0.07       1.0  T
  16   -137.0320173  0.937123E-04  0.230E-02    0.07       1.0  T
  17   -137.0321454 -0.128069E-03  0.540E-03    0.07       2.0  T
  18   -137.0321469 -0.158316E-05  0.459E-03    0.07       2.3  T
  19   -137.0321520 -0.504169E-05  0.153E-03    0.07       6.9  T
  20   -137.0321525 -0.526558E-06  0.527E-04    0.07      20.0  T
  21   -137.0321525  0.468884E-08  0.551E-04    0.07      19.1  T
     SCC iter.                  ...        0 min,  0.685 sec
     gradient                   ...        0 min,  0.028 sec
 * total energy  :  -134.9962811 Eh     change       -0.4626209E-02 Eh
   gradient norm :     0.0142982 Eh/α   predicted    -0.4126871E-02 ( -10.79%)
   displ. norm   :     0.8366422 α      lambda       -0.5264975E-02
   maximum displ.:     0.3864837 α      in ANC's #5, #10, #11, ...

........................................................................
.............................. CYCLE    8 ..............................
........................................................................

 iter      E             dE          RMSdq      gap      omega  full diag
   1   -137.0314695 -0.137031E+03  0.253E-01    0.11       0.0  T
   2   -136.4159186  0.615551E+00  0.149E+00    0.49       1.0  T
   3   -136.7909926 -0.375074E+00  0.104E+00    0.03       1.0  T
   4   -136.7540884  0.369042E-01  0.971E-01    0.06       1.0  T
   5   -136.9936879 -0.239600E+00  0.467E-01    0.36       1.0  T
   6   -136.9882626  0.542535E-02  0.490E-01    0.49       1.0  T
   7   -136.9940834 -0.582082E-02  0.450E-01    0.34       1.0  T
   8   -136.9986175 -0.453404E-02  0.423E-01    0.26       1.0  T
   9   -137.0033322 -0.471471E-02  0.396E-01    0.21       1.0  T
  10   -137.0385309 -0.351987E-01  0.145E-01    0.09       1.0  T
  11   -137.0270740  0.114568E-01  0.222E-01    0.03       1.0  T
  12   -137.0401243 -0.130502E-01  0.115E-01    0.09       1.0  T
  13   -137.0145367  0.255876E-01  0.309E-01    0.03       1.0  T
  14   -137.0429193 -0.283826E-01  0.355E-02    0.06       1.0  T
  15   -137.0372842  0.563505E-02  0.145E-01    0.05       1.0  T
  16   -137.0401839 -0.289968E-02  0.105E-01    0.05       1.0  T
  17   -137.0423666 -0.218269E-02  0.581E-02    0.06       1.0  T
  18   -137.0426400 -0.273455E-03  0.486E-02    0.06       1.0  T
  19   -137.0432547 -0.614678E-03  0.141E-02    0.07       1.0  T
  20   -137.0433101 -0.553317E-04  0.315E-03    0.07       3.3  T
  21   -137.0433124 -0.233123E-05  0.788E-04    0.07      13.4  T
  22   -137.0433125 -0.104318E-06  0.384E-04    0.07      27.4  T
  23   -137.0433125 -0.404644E-07  0.142E-04    0.07      74.2  T
     SCC iter.                  ...        0 min,  0.768 sec
     gradient                   ...        0 min,  0.022 sec
 * total energy  :  -135.0012100 Eh     change       -0.4928947E-02 Eh
   gradient norm :     0.0116439 Eh/α   predicted    -0.4475160E-02 (  -9.21%)
   displ. norm   :     0.9048234 α      lambda       -0.5639248E-02
   maximum displ.:     0.5127794 α      in ANC's #5, #10, #11, ...

........................................................................
.............................. CYCLE    9 ..............................
........................................................................

 iter      E             dE          RMSdq      gap      omega  full diag
   1   -137.0376070 -0.137038E+03  0.298E-01    0.12       0.0  T
   2   -136.4099054  0.627702E+00  0.149E+00    0.63       1.0  T
   3   -136.8620865 -0.452181E+00  0.899E-01    0.02       1.0  T
   4   -136.8297899  0.322966E-01  0.840E-01    0.04       1.0  T
   5   -136.9997240 -0.169934E+00  0.506E-01    0.48       1.0  T
   6   -136.9941089  0.561514E-02  0.517E-01    0.63       1.0  T
   7   -136.9998837 -0.577484E-02  0.478E-01    0.46       1.0  T
   8   -137.0034114 -0.352770E-02  0.453E-01    0.37       1.0  T
   9   -137.0054931 -0.208164E-02  0.437E-01    0.32       1.0  T
  10   -137.0211427 -0.156497E-01  0.345E-01    0.17       1.0  T
  11   -136.8870639  0.134079E+00  0.722E-01    0.03       1.0  T
  12   -137.0495595 -0.162496E+00  0.101E-01    0.08       1.0  T
  13   -137.0445295  0.503001E-02  0.159E-01    0.04       1.0  T
  14   -137.0519470 -0.741753E-02  0.233E-02    0.06       1.0  T
  15   -136.9742826  0.776644E-01  0.510E-01    0.01       1.0  T
  16   -137.0182201 -0.439375E-01  0.341E-01    0.02       1.0  T
  17   -137.0479036 -0.296835E-01  0.121E-01    0.05       1.0  T
  18   -137.0464053  0.149835E-02  0.140E-01    0.05       1.0  T
  19   -137.0507525 -0.434718E-02  0.688E-02    0.06       1.0  T
  20   -137.0519077 -0.115529E-02  0.277E-02    0.06       1.0  T
  21   -137.0520772 -0.169468E-03  0.138E-02    0.07       1.0  T
  22   -137.0521341 -0.568693E-04  0.122E-03    0.07       8.6  T
  23   -137.0521334  0.685678E-06  0.200E-03    0.07       5.3  T
  24   -137.0521328  0.567881E-06  0.238E-03    0.07       4.4  T
  25   -137.0521321  0.715484E-06  0.281E-03    0.07       3.7  T
  26   -137.0521338 -0.170761E-05  0.142E-03    0.07       7.4  T
  27   -137.0521342 -0.410324E-06  0.791E-04    0.07      13.3  T
  28   -137.0521344 -0.142882E-06  0.385E-04    0.07      27.4  T
     SCC iter.                  ...        0 min,  0.741 sec
     gradient                   ...        0 min,  0.022 sec
 * total energy  :  -135.0067058 Eh     change       -0.5495804E-02 Eh
   gradient norm :     0.0139500 Eh/α   predicted    -0.5128079E-02 (  -6.69%)
   displ. norm   :     0.9470921 α      lambda       -0.6194549E-02
   maximum displ.:     0.6073108 α      in ANC's #5, #10, #11, ...

........................................................................
.............................. CYCLE   10 ..............................
........................................................................

 iter      E             dE          RMSdq      gap      omega  full diag
   1   -137.0446509 -0.137045E+03  0.333E-01    0.11       0.0  T
   2   -136.4055929  0.639058E+00  0.149E+00    0.72       1.0  T
   3   -137.0221279 -0.616535E+00  0.409E-01    0.03       1.0  T
   4   -137.0423690 -0.202411E-01  0.332E-01    0.11       1.0  T
   5   -137.0121619  0.302071E-01  0.455E-01    0.31       1.0  T
   6   -137.0173669 -0.520494E-02  0.414E-01    0.25       1.0  T
   7   -137.0270175 -0.965067E-02  0.355E-01    0.18       1.0  T
   8   -137.0518496 -0.248321E-01  0.159E-01    0.10       1.0  T
   9   -137.0555516 -0.370194E-02  0.109E-01    0.05       1.0  T
  10   -137.0592435 -0.369196E-02  0.412E-02    0.06       1.0  T
  11   -137.0581687  0.107488E-02  0.715E-02    0.08       1.0  T
  12   -137.0591430 -0.974325E-03  0.426E-02    0.06       1.0  T
  13   -137.0596159 -0.472914E-03  0.733E-03    0.07       1.4  T
  14   -137.0595242  0.917098E-04  0.195E-02    0.06       1.0  T
  15   -137.0596174 -0.931678E-04  0.687E-03    0.07       1.5  T
  16   -137.0596077  0.960739E-05  0.786E-03    0.07       1.3  T
  17   -137.0596249 -0.171152E-04  0.376E-03    0.07       2.8  T
  18   -137.0596282 -0.338086E-05  0.233E-04    0.07      45.2  T
  19   -137.0596282  0.884025E-07  0.598E-04    0.07      17.6  T
  20   -137.0596282 -0.519407E-07  0.436E-04    0.07      24.2  T
     SCC iter.                  ...        0 min,  0.735 sec
     gradient                   ...        0 min,  0.022 sec
 * total energy  :  -135.0128204 Eh     change       -0.6114591E-02 Eh
   gradient norm :     0.0194320 Eh/α   predicted    -0.5875499E-02 (  -3.91%)
   displ. norm   :     0.9531152 α      lambda       -0.6689339E-02
   maximum displ.:     0.6587477 α      in ANC's #5, #10, #31, ...

........................................................................
.............................. CYCLE   11 ..............................
........................................................................

 iter      E             dE          RMSdq      gap      omega  full diag
   1   -137.0552535 -0.137055E+03  0.339E-01    0.09       0.0  T
   2   -136.4106127  0.644641E+00  0.147E+00    0.73       1.0  T
   3   -137.0380708 -0.627458E+00  0.397E-01    0.17       1.0  T
   4   -136.8048854  0.233185E+00  0.107E+00    0.03       1.0  T
   5   -137.0491650 -0.244280E+00  0.283E-01    0.12       1.0  T
   6   -137.0578764 -0.871148E-02  0.171E-01    0.06       1.0  T
   7   -137.0563279  0.154852E-02  0.221E-01    0.10       1.0  T
   8   -137.0597268 -0.339883E-02  0.178E-01    0.09       1.0  T
   9   -137.0638809 -0.415417E-02  0.104E-01    0.07       1.0  T
  10   -137.0638814 -0.512216E-06  0.104E-01    0.07       1.0  T
  11   -137.0609746  0.290682E-02  0.127E-01    0.05       1.0  T
  12   -137.0640707 -0.309606E-02  0.892E-02    0.05       1.0  T
  13   -137.0652101 -0.113939E-02  0.629E-02    0.06       1.0  T
  14   -137.0662895 -0.107941E-02  0.252E-02    0.07       1.0  T
  15   -137.0663868 -0.973629E-04  0.137E-02    0.07       1.0  T
  16   -137.0664310 -0.441233E-04  0.240E-03    0.07       4.4  T
  17   -137.0664283  0.263506E-05  0.384E-03    0.07       2.7  T
  18   -137.0664285 -0.173491E-06  0.316E-03    0.07       3.3  T
  19   -137.0664320 -0.350524E-05  0.363E-04    0.07      29.0  T
  20   -137.0664317  0.302793E-06  0.109E-03    0.07       9.7  T
  21   -137.0664319 -0.249181E-06  0.544E-04    0.07      19.4  T
  22   -137.0664320 -0.179074E-07  0.375E-04    0.07      28.1  T
     SCC iter.                  ...        0 min,  0.848 sec
     gradient                   ...        0 min,  0.040 sec
 * total energy  :  -135.0193304 Eh     change       -0.6510009E-02 Eh
   gradient norm :     0.0245918 Eh/α   predicted    -0.6383068E-02 (  -1.95%)
   displ. norm   :     0.9404490 α      lambda       -0.6842233E-02
   maximum displ.:     0.6700245 α      in ANC's #5, #10, #31, ...

........................................................................
.............................. CYCLE   12 ..............................
........................................................................

 iter      E             dE          RMSdq      gap      omega  full diag
   1   -137.0606570 -0.137061E+03  0.322E-01    0.08       0.0  T
   2   -136.4091323  0.651525E+00  0.146E+00    0.67       1.0  T
   3   -137.0270419 -0.617910E+00  0.479E-01    0.29       1.0  T
   4   -137.0502945 -0.232526E-01  0.296E-01    0.05       1.0  T
   5   -137.0294762  0.208182E-01  0.414E-01    0.25       1.0  T
   6   -137.0506380 -0.211618E-01  0.284E-01    0.14       1.0  T
   7   -137.0646913 -0.140533E-01  0.143E-01    0.09       1.0  T
   8   -137.0684604 -0.376904E-02  0.691E-02    0.08       1.0  T
   9   -137.0639295  0.453088E-02  0.154E-01    0.10       1.0  T
  10   -137.0669135 -0.298400E-02  0.106E-01    0.09       1.0  T
  11   -137.0669006  0.128854E-04  0.109E-01    0.05       1.0  T
  12   -137.0695550 -0.265444E-02  0.139E-02    0.07       1.0  T
  13   -137.0695567 -0.164122E-05  0.130E-02    0.07       1.0  T
  14   -137.0695952 -0.384847E-04  0.484E-03    0.07       2.2  T
  15   -137.0695995 -0.435560E-05  0.193E-03    0.07       5.5  T
  16   -137.0696002 -0.666815E-06  0.760E-04    0.07      13.9  T
  17   -137.0696002 -0.659304E-07  0.625E-04    0.07      16.9  T
     SCC iter.                  ...        0 min,  0.724 sec
     gradient                   ...        0 min,  0.025 sec
 * total energy  :  -135.0259603 Eh     change       -0.6629894E-02 Eh
   gradient norm :     0.0277608 Eh/α   predicted    -0.6446922E-02 (  -2.76%)
   displ. norm   :     0.8971028 α      lambda       -0.7279499E-02
   maximum displ.:     0.6549765 α      in ANC's #5, #10, #31, ...

........................................................................
.............................. CYCLE   13 ..............................
........................................................................

 iter      E             dE          RMSdq      gap      omega  full diag
   1   -137.0711105 -0.137071E+03  0.318E-01    0.06       0.0  T
   2   -136.4280375  0.643073E+00  0.144E+00    0.31       1.0  T
   3   -137.0290245 -0.600987E+00  0.542E-01    0.49       1.0  T
   4   -137.0428178 -0.137934E-01  0.431E-01    0.23       1.0  T
   5   -136.9275449  0.115273E+00  0.862E-01    0.04       1.0  T
   6   -137.0406830 -0.113138E+00  0.423E-01    0.26       1.0  T
   7   -137.0440964 -0.341338E-02  0.398E-01    0.22       1.0  T
   8   -137.0562404 -0.121439E-01  0.311E-01    0.15       1.0  T
   9   -137.0624772 -0.623681E-02  0.260E-01    0.12       1.0  T
  10   -137.0734955 -0.110183E-01  0.146E-01    0.09       1.0  T
  11   -137.0713876  0.210784E-02  0.178E-01    0.10       1.0  T
  12   -137.0740679 -0.268033E-02  0.144E-01    0.09       1.0  T
  13   -137.0762945 -0.222657E-02  0.110E-01    0.09       1.0  T
  14   -137.0780250 -0.173048E-02  0.720E-02    0.08       1.0  T
  15   -137.0794727 -0.144766E-02  0.142E-02    0.07       1.0  T
  16   -137.0794730 -0.385345E-06  0.132E-02    0.07       1.0  T
  17   -137.0791679  0.305106E-03  0.346E-02    0.07       1.0  T
  18   -137.0790832  0.847213E-04  0.390E-02    0.06       1.0  T
  19   -137.0794542 -0.370944E-03  0.153E-02    0.07       1.0  T
  20   -137.0795190 -0.648620E-04  0.258E-03    0.07       4.1  T
  21   -137.0795208 -0.176642E-05  0.834E-04    0.07      12.6  T
  22   -137.0795207  0.119557E-06  0.104E-03    0.07      10.1  T
  23   -137.0795209 -0.263881E-06  0.460E-04    0.07      22.9  T
  24   -137.0795209 -0.786397E-08  0.428E-04    0.07      24.6  T
     SCC iter.                  ...        0 min,  0.676 sec
     gradient                   ...        0 min,  0.023 sec
 * total energy  :  -135.0324700 Eh     change       -0.6509625E-02 Eh
   gradient norm :     0.0312855 Eh/α   predicted    -0.6569013E-02 (   0.91%)
   displ. norm   :     0.9160694 α      lambda       -0.7356839E-02
   maximum displ.:     0.6601672 α      in ANC's #5, #10, #13, ...

........................................................................
.............................. CYCLE   14 ..............................
........................................................................

 iter      E             dE          RMSdq      gap      omega  full diag
   1   -137.0640798 -0.137064E+03  0.296E-01    0.10       0.0  T
   2   -136.3799656  0.684114E+00  0.155E+00    0.52       1.0  T
   3   -137.0552265 -0.675261E+00  0.310E-01    0.13       1.0  T
   4   -136.7891402  0.266086E+00  0.114E+00    0.06       1.0  T
   5   -137.0641698 -0.275030E+00  0.206E-01    0.09       1.0  T
   6   -137.0655807 -0.141098E-02  0.180E-01    0.06       1.0  T
   7   -137.0625601  0.302067E-02  0.216E-01    0.05       1.0  T
   8   -137.0675598 -0.499969E-02  0.161E-01    0.06       1.0  T
   9   -137.0704611 -0.290133E-02  0.114E-01    0.06       1.0  T
  10   -137.0714564 -0.995341E-03  0.876E-02    0.07       1.0  T
  11   -137.0721777 -0.721270E-03  0.777E-02    0.06       1.0  T
  12   -137.0729782 -0.800525E-03  0.445E-02    0.06       1.0  T
  13   -137.0733225 -0.344254E-03  0.202E-02    0.07       1.0  T
  14   -137.0734245 -0.102055E-03  0.890E-03    0.07       1.2  T
  15   -137.0734299 -0.532097E-05  0.722E-03    0.07       1.5  T
  16   -137.0734439 -0.140318E-04  0.132E-03    0.07       8.0  T
  17   -137.0734425  0.136023E-05  0.242E-03    0.07       4.3  T
  18   -137.0734433 -0.768551E-06  0.184E-03    0.07       5.7  T
  19   -137.0734442 -0.951187E-06  0.224E-04    0.07      47.1  T
  20   -137.0734443 -0.604095E-08  0.115E-04    0.07      91.6  T
     SCC iter.                  ...        0 min,  0.573 sec
     gradient                   ...        0 min,  0.022 sec
 * total energy  :  -135.0389030 Eh     change       -0.6433019E-02 Eh
   gradient norm :     0.0305159 Eh/α   predicted    -0.6765290E-02 (   5.17%)
   displ. norm   :     0.7544101 α      lambda       -0.7670708E-02
   maximum displ.:     0.5522742 α      in ANC's #5, #10, #31, ...

........................................................................
.............................. CYCLE   15 ..............................
........................................................................

 iter      E             dE          RMSdq      gap      omega  full diag
   1   -137.0737148 -0.137074E+03  0.348E-01    0.14       0.0  T
   2   -136.3764690  0.697246E+00  0.160E+00    0.39       1.0  T
   3   -136.8353449 -0.458876E+00  0.110E+00    0.05       1.0  T
   4   -137.0806096 -0.245265E+00  0.230E-01    0.09       1.0  T
   5   -136.9623775  0.118232E+00  0.756E-01    0.03       1.0  T
   6   -137.0213565 -0.589790E-01  0.594E-01    0.03       1.0  T
   7   -136.9934127  0.279437E-01  0.664E-01    0.03       1.0  T
   8   -137.0612270 -0.678142E-01  0.373E-01    0.03       1.0  T
   9   -137.0680243 -0.679734E-02  0.320E-01    0.04       1.0  T
  10   -137.0854564 -0.174321E-01  0.151E-01    0.05       1.0  T
  11   -137.0861894 -0.732940E-03  0.139E-01    0.05       1.0  T
  12   -137.0899275 -0.373814E-02  0.458E-02    0.06       1.0  T
  13   -137.0903912 -0.463677E-03  0.108E-02    0.07       1.0  T
  14   -137.0902750  0.116179E-03  0.248E-02    0.07       1.0  T
  15   -137.0902714  0.360610E-05  0.235E-02    0.07       1.0  T
  16   -137.0904127 -0.141337E-03  0.233E-03    0.07       4.5  T
  17   -137.0904052  0.757362E-05  0.632E-03    0.07       1.7  T
  18   -137.0904101 -0.492690E-05  0.424E-03    0.07       2.5  T
  19   -137.0904129 -0.276144E-05  0.222E-03    0.07       4.7  T
  20   -137.0904135 -0.637736E-06  0.149E-03    0.07       7.1  T
  21   -137.0904137 -0.176721E-06  0.118E-03    0.07       8.9  T
  22   -137.0904140 -0.320401E-06  0.142E-04    0.07      74.2  T
  23   -137.0904140  0.111148E-07  0.245E-04    0.07      43.1  T
     SCC iter.                  ...        0 min,  0.829 sec
     gradient                   ...        0 min,  0.022 sec
 * total energy  :  -135.0448286 Eh     change       -0.5925646E-02 Eh
   gradient norm :     0.0282713 Eh/α   predicted    -0.6018194E-02 (   1.56%)
   displ. norm   :     0.8741680 α      lambda       -0.6900984E-02
   maximum displ.:     0.6532637 α      in ANC's #5, #10, #13, ...

........................................................................
.............................. CYCLE   16 ..............................
........................................................................

 iter      E             dE          RMSdq      gap      omega  full diag
   1   -137.0870057 -0.137087E+03  0.285E-01    0.10       0.0  T
   2   -136.3864053  0.700600E+00  0.159E+00    0.37       1.0  T
   3   -137.0882220 -0.701817E+00  0.223E-01    0.07       1.0  T
   4   -137.0618560  0.263661E-01  0.411E-01    0.24       1.0  T
   5   -137.0880264 -0.261704E-01  0.186E-01    0.09       1.0  T
   6   -137.0876027  0.423649E-03  0.186E-01    0.10       1.0  T
   7   -137.0894162 -0.181347E-02  0.161E-01    0.07       1.0  T
   8   -137.0904277 -0.101146E-02  0.139E-01    0.07       1.0  T
   9   -137.0907527 -0.325019E-03  0.131E-01    0.08       1.0  T
  10   -137.0921799 -0.142721E-02  0.112E-01    0.07       1.0  T
  11   -137.0927003 -0.520422E-03  0.101E-01    0.07       1.0  T
  12   -137.0920355  0.664800E-03  0.110E-01    0.07       1.0  T
  13   -137.0945493 -0.251383E-02  0.531E-02    0.07       1.0  T
  14   -137.0939339  0.615407E-03  0.645E-02    0.06       1.0  T
  15   -137.0944314 -0.497443E-03  0.500E-02    0.08       1.0  T
  16   -137.0948398 -0.408373E-03  0.301E-02    0.07       1.0  T
  17   -137.0950398 -0.200038E-03  0.132E-02    0.07       1.0  T
  18   -137.0950837 -0.438714E-04  0.399E-03    0.07       2.6  T
  19   -137.0950828  0.838280E-06  0.437E-03    0.07       2.4  T
  20   -137.0950872 -0.441859E-05  0.182E-03    0.07       5.8  T
  21   -137.0950882 -0.917070E-06  0.251E-04    0.07      42.0  T
  22   -137.0950881  0.833805E-07  0.611E-04    0.07      17.2  T
     SCC iter.                  ...        0 min,  0.658 sec
     gradient                   ...        0 min,  0.023 sec
 * total energy  :  -135.0506284 Eh     change       -0.5799763E-02 Eh
   gradient norm :     0.0236725 Eh/α   predicted    -0.6087254E-02 (   4.96%)
   displ. norm   :     0.7942465 α      lambda       -0.6453581E-02
   maximum displ.:     0.5217990 α      in ANC's #5, #68, #13, ...

........................................................................
.............................. CYCLE   17 ..............................
........................................................................

 iter      E             dE          RMSdq      gap      omega  full diag
   1   -137.1051928 -0.137105E+03  0.290E-01    0.09       0.0  T
   2   -136.4038837  0.701309E+00  0.159E+00    0.33       1.0  T
   3   -137.0898404 -0.685957E+00  0.341E-01    0.15       1.0  T
   4   -136.8258519  0.263988E+00  0.113E+00    0.04       1.0  T
   5   -137.0959375 -0.270086E+00  0.284E-01    0.12       1.0  T
   6   -137.1035182 -0.758074E-02  0.197E-01    0.10       1.0  T
   7   -137.1050509 -0.153271E-02  0.163E-01    0.07       1.0  T
   8   -137.1029692  0.208173E-02  0.188E-01    0.06       1.0  T
   9   -137.1056324 -0.266323E-02  0.153E-01    0.07       1.0  T
  10   -137.1061216 -0.489153E-03  0.139E-01    0.07       1.0  T
  11   -137.1065241 -0.402516E-03  0.129E-01    0.07       1.0  T
  12   -137.1073563 -0.832182E-03  0.114E-01    0.07       1.0  T
  13   -137.1074176 -0.613095E-04  0.112E-01    0.07       1.0  T
  14   -137.1079527 -0.535157E-03  0.998E-02    0.07       1.0  T
  15   -137.1086813 -0.728529E-03  0.824E-02    0.06       1.0  T
  16   -137.1100965 -0.141524E-02  0.334E-02    0.07       1.0  T
  17   -137.1099210  0.175506E-03  0.388E-02    0.07       1.0  T
  18   -137.1101831 -0.262090E-03  0.240E-02    0.08       1.0  T
  19   -137.1102178 -0.347124E-04  0.208E-02    0.07       1.0  T
  20   -137.1102514 -0.335574E-04  0.177E-02    0.08       1.0  T
  21   -137.1103362 -0.848724E-04  0.215E-03    0.07       4.9  T
  22   -137.1103299  0.634135E-05  0.520E-03    0.07       2.0  T
  23   -137.1103367 -0.680387E-05  0.150E-03    0.07       7.0  T
  24   -137.1103347  0.197931E-05  0.304E-03    0.07       3.5  T
  25   -137.1103372 -0.243966E-05  0.609E-04    0.07      17.3  T
  26   -137.1103372 -0.610208E-07  0.390E-04    0.07      27.1  T
  27   -137.1103372  0.481123E-09  0.393E-04    0.07      26.8  T
     SCC iter.                  ...        0 min,  0.973 sec
     gradient                   ...        0 min,  0.022 sec
 * total energy  :  -135.0558238 Eh     change       -0.5195454E-02 Eh
   gradient norm :     0.0198585 Eh/α   predicted    -0.5262341E-02 (   1.29%)
   displ. norm   :     0.8220559 α      lambda       -0.5701880E-02
   maximum displ.:     0.5850015 α      in ANC's #5, #68, #57, ...

........................................................................
.............................. CYCLE   18 ..............................
........................................................................

 iter      E             dE          RMSdq      gap      omega  full diag
   1   -137.1136613 -0.137114E+03  0.223E-01    0.09       0.0  T
   2   -136.4159806  0.697681E+00  0.158E+00    0.28       1.0  T
   3   -137.0870701 -0.671089E+00  0.388E-01    0.22       1.0  T
   4   -137.0612157  0.258544E-01  0.509E-01    0.03       1.0  T
   5   -137.0928196 -0.316039E-01  0.339E-01    0.18       1.0  T
   6   -137.1031288 -0.103092E-01  0.246E-01    0.12       1.0  T
   7   -137.1116326 -0.850372E-02  0.153E-01    0.09       1.0  T
   8   -137.1129297 -0.129710E-02  0.134E-01    0.08       1.0  T
   9   -137.1128936  0.360429E-04  0.130E-01    0.08       1.0  T
  10   -137.1125600  0.333570E-03  0.132E-01    0.09       1.0  T
  11   -137.1132374 -0.677334E-03  0.118E-01    0.09       1.0  T
  12   -137.1135014 -0.264038E-03  0.111E-01    0.08       1.0  T
  13   -137.1135340 -0.325723E-04  0.110E-01    0.09       1.0  T
  14   -137.1137495 -0.215504E-03  0.104E-01    0.09       1.0  T
  15   -137.1148896 -0.114009E-02  0.776E-02    0.08       1.0  T
  16   -137.1149749 -0.852968E-04  0.750E-02    0.08       1.0  T
  17   -137.1161868 -0.121193E-02  0.267E-02    0.08       1.0  T
  18   -137.1134855  0.270135E-02  0.102E-01    0.06       1.0  T
  19   -137.1153007 -0.181522E-02  0.620E-02    0.07       1.0  T
  20   -137.1152913  0.942371E-05  0.627E-02    0.07       1.0  T
  21   -137.1162375 -0.946217E-03  0.212E-02    0.07       1.0  T
  22   -137.1159991  0.238395E-03  0.364E-02    0.07       1.0  T
  23   -137.1162946 -0.295519E-03  0.157E-02    0.07       1.0  T
  24   -137.1162972 -0.255717E-05  0.154E-02    0.07       1.0  T
  25   -137.1163485 -0.513155E-04  0.691E-03    0.07       1.5  T
  26   -137.1163511 -0.264983E-05  0.614E-03    0.08       1.7  T
  27   -137.1163570 -0.584187E-05  0.403E-03    0.08       2.6  T
  28   -137.1163598 -0.287487E-05  0.237E-03    0.08       4.5  T
  29   -137.1163606 -0.724281E-06  0.171E-03    0.08       6.2  T
  30   -137.1163612 -0.667693E-06  0.677E-04    0.08      15.6  T
  31   -137.1163613 -0.115009E-06  0.181E-04    0.08      58.1  T
     SCC iter.                  ...        0 min,  0.965 sec
     gradient                   ...        0 min,  0.023 sec
 * total energy  :  -135.0600054 Eh     change       -0.4181557E-02 Eh
   gradient norm :     0.0230389 Eh/α   predicted    -0.4777534E-02 (  14.25%)
   displ. norm   :     0.8049172 α      lambda       -0.4951330E-02
   maximum displ.:     0.5494580 α      in ANC's #5, #13, #10, ...

........................................................................
.............................. CYCLE   19 ..............................
........................................................................

 iter      E             dE          RMSdq      gap      omega  full diag
   1   -137.1093663 -0.137109E+03  0.231E-01    0.08       0.0  T
   2   -136.4126848  0.696682E+00  0.165E+00    0.20       1.0  T
   3   -137.0786093 -0.665925E+00  0.420E-01    0.27       1.0  T
   4   -137.0899430 -0.113336E-01  0.338E-01    0.04       1.0  T
   5   -137.0839730  0.597002E-02  0.367E-01    0.21       1.0  T
   6   -137.1026506 -0.186776E-01  0.211E-01    0.11       1.0  T
   7   -137.1083187 -0.566817E-02  0.137E-01    0.08       1.0  T
   8   -137.1083953 -0.765238E-04  0.132E-01    0.08       1.0  T
   9   -137.1062916  0.210370E-02  0.160E-01    0.10       1.0  T
  10   -137.1073078 -0.101624E-02  0.144E-01    0.09       1.0  T
  11   -137.1085694 -0.126160E-02  0.122E-01    0.09       1.0  T
  12   -137.1081860  0.383369E-03  0.127E-01    0.09       1.0  T
  13   -137.1084438 -0.257739E-03  0.120E-01    0.09       1.0  T
  14   -137.1087134 -0.269655E-03  0.114E-01    0.09       1.0  T
  15   -137.1087352 -0.218103E-04  0.115E-01    0.09       1.0  T
  16   -137.1089229 -0.187622E-03  0.110E-01    0.08       1.0  T
  17   -137.0136877  0.952352E-01  0.616E-01    0.01       1.0  T
  18   -137.0703759 -0.566882E-01  0.396E-01    0.03       1.0  T
  19   -136.6035742  0.466802E+00  0.145E+00    0.10       1.0  T
  20   -137.1087280 -0.505154E+00  0.113E-01    0.09       1.0  T
  21   -137.1076111  0.111690E-02  0.137E-01    0.09       1.0  T
  22   -137.1086551 -0.104400E-02  0.114E-01    0.09       1.0  T
  23   -137.1093087 -0.653662E-03  0.963E-02    0.08       1.0  T
  24   -137.1102031 -0.894345E-03  0.728E-02    0.08       1.0  T
  25   -137.1101634  0.396830E-04  0.738E-02    0.08       1.0  T
  26   -137.1108789 -0.715463E-03  0.492E-02    0.08       1.0  T
  27   -137.1109043 -0.254424E-04  0.480E-02    0.08       1.0  T
  28   -137.1108050  0.993506E-04  0.523E-02    0.08       1.0  T
  29   -137.1106620  0.142917E-03  0.580E-02    0.08       1.0  T
  30   -137.1105611  0.100973E-03  0.618E-02    0.08       1.0  T
  31   -137.1105153  0.457266E-04  0.635E-02    0.08       1.0  T
  32   -137.1111382 -0.622846E-03  0.337E-02    0.08       1.0  T
  33   -137.1110902  0.479557E-04  0.344E-02    0.08       1.0  T
  34   -137.1110160  0.742328E-04  0.336E-02    0.07       1.0  T
  35   -137.1111227 -0.106699E-03  0.288E-02    0.08       1.0  T
  36   -137.1112670 -0.144273E-03  0.135E-02    0.08       1.0  T
  37   -137.1113136 -0.466716E-04  0.308E-03    0.08       3.4  T
  38   -137.1113115  0.215742E-05  0.365E-03    0.08       2.9  T
  39   -137.1113100  0.144422E-05  0.442E-03    0.08       2.4  T
  40   -137.1113140 -0.393076E-05  0.201E-03    0.08       5.2  T
  41   -137.1113150 -0.101445E-05  0.486E-04    0.08      21.7  T
  42   -137.1113149  0.663655E-07  0.719E-04    0.08      14.7  T
  43   -137.1113150 -0.105407E-06  0.163E-04    0.08      64.8  T
     SCC iter.                  ...        0 min,  1.539 sec
     gradient                   ...        0 min,  0.022 sec
 * total energy  :  -135.0631797 Eh     change       -0.3174293E-02 Eh
   gradient norm :     0.0224349 Eh/α   predicted    -0.4079631E-02 (  28.52%)
   displ. norm   :     0.6742883 α      lambda       -0.4153967E-02
   maximum displ.:     0.4130971 α      in ANC's #5, #68, #13, ...

........................................................................
.............................. CYCLE   20 ..............................
........................................................................

 iter      E             dE          RMSdq      gap      omega  full diag
   1   -137.1195116 -0.137120E+03  0.187E-01    0.09       0.0  T
   2   -136.4775761  0.641935E+00  0.158E+00    0.13       1.0  T
   3   -137.1159562 -0.638380E+00  0.186E-01    0.10       1.0  T
   4   -136.8733299  0.242626E+00  0.105E+00    0.04       1.0  T
   5   -137.1188775 -0.245548E+00  0.127E-01    0.09       1.0  T
   6   -137.1195881 -0.710555E-03  0.948E-02    0.08       1.0  T
   7   -137.1194027  0.185387E-03  0.981E-02    0.07       1.0  T
   8   -137.1198483 -0.445604E-03  0.840E-02    0.07       1.0  T
   9   -137.1201058 -0.257530E-03  0.735E-02    0.07       1.0  T
  10   -137.1203757 -0.269860E-03  0.619E-02    0.07       1.0  T
  11   -137.1207279 -0.352243E-03  0.478E-02    0.08       1.0  T
  12   -137.1210082 -0.280268E-03  0.324E-02    0.07       1.0  T
  13   -137.1211917 -0.183474E-03  0.134E-02    0.07       1.0  T
  14   -137.1211931 -0.139211E-05  0.111E-02    0.07       1.0  T
  15   -137.1212107 -0.176569E-04  0.752E-03    0.08       1.4  T
  16   -137.1212209 -0.101833E-04  0.277E-03    0.08       3.8  T
  17   -137.1212222 -0.129907E-05  0.130E-03    0.07       8.1  T
  18   -137.1212219  0.331930E-06  0.174E-03    0.07       6.1  T
  19   -137.1212224 -0.488459E-06  0.101E-03    0.07      10.4  T
  20   -137.1212226 -0.214819E-06  0.232E-04    0.07      45.4  T
  21   -137.1212226 -0.927159E-08  0.103E-04    0.07     102.7  T
     SCC iter.                  ...        0 min,  0.696 sec
     gradient                   ...        0 min,  0.022 sec
 * total energy  :  -135.0644817 Eh     change       -0.1302011E-02 Eh
   gradient norm :     0.0339419 Eh/α   predicted    -0.3021315E-02 ( 132.05%)
   displ. norm   :     0.4832916 α      lambda       -0.4577709E-02
   maximum displ.:     0.2724705 α      in ANC's #5, #31, #9, ...
 * RMSD in coord.:     1.3503045 α      energy gain  -0.1670719E+00 Eh

generating ANC from model Hessian ...
Using Lindh-Hessian (1995)
 Shifting diagonal of input Hessian by    9.9736715028750020E-003
 Lowest  eigenvalues of input Hessian
    0.000000    0.000000    0.000000    0.000000    0.000000    0.000000
    0.010000    0.010032    0.010043    0.010168    0.010291    0.010511
    0.010732    0.010908    0.011020    0.011262    0.011548    0.011915
 Highest eigenvalues
    2.116581    2.146834    2.172481    2.193120    2.242377    2.428215


........................................................................
.............................. CYCLE   21 ..............................
........................................................................

 iter      E             dE          RMSdq      gap      omega  full diag
   1   -137.1277604 -0.137128E+03  0.184E-01    0.08       0.0  T
   2   -136.6254166  0.502344E+00  0.141E+00    0.07       1.0  T
   3   -137.1260719 -0.500655E+00  0.159E-01    0.09       1.0  T
   4   -137.1238517  0.222014E-02  0.187E-01    0.06       1.0  T
   5   -137.1118568  0.119949E-01  0.287E-01    0.15       1.0  T
   6   -137.1272284 -0.153716E-01  0.101E-01    0.07       1.0  T
   7   -137.1262556  0.972772E-03  0.109E-01    0.09       1.0  T
   8   -137.1278613 -0.160570E-02  0.714E-02    0.07       1.0  T
   9   -137.1280295 -0.168163E-03  0.649E-02    0.08       1.0  T
  10   -137.1283158 -0.286385E-03  0.524E-02    0.07       1.0  T
  11   -137.1283901 -0.742129E-04  0.482E-02    0.08       1.0  T
  12   -137.1285728 -0.182752E-03  0.390E-02    0.07       1.0  T
  13   -137.1288766 -0.303812E-03  0.102E-02    0.07       1.0  T
  14   -137.1288380  0.385943E-04  0.151E-02    0.07       1.0  T
  15   -137.1288907 -0.526867E-04  0.312E-03    0.07       3.4  T
  16   -137.1288876  0.309023E-05  0.456E-03    0.07       2.3  T
  17   -137.1288922 -0.461227E-05  0.946E-04    0.07      11.1  T
  18   -137.1288909  0.129325E-05  0.250E-03    0.07       4.2  T
  19   -137.1288924 -0.143067E-05  0.373E-04    0.07      28.3  T
  20   -137.1288924 -0.244460E-07  0.167E-04    0.07      63.0  T
  21   -137.1288924 -0.251208E-08  0.120E-04    0.07      87.6  T
     SCC iter.                  ...        0 min,  0.688 sec
     gradient                   ...        0 min,  0.022 sec
 * total energy  :  -135.0664359 Eh     change       -0.1954210E-02 Eh
   gradient norm :     0.0248782 Eh/α   predicted     0.0000000E+00 (-100.00%)
   displ. norm   :     0.2092200 α      lambda       -0.1630365E-02
   maximum displ.:     0.0823539 α      in ANC's #7, #16, #12, ...

........................................................................
.............................. CYCLE   22 ..............................
........................................................................

 iter      E             dE          RMSdq      gap      omega  full diag
   1   -137.1301647 -0.137130E+03  0.835E-02    0.07       0.0  T
   2   -137.1082760  0.218887E-01  0.324E-01    0.17       1.0  T
   3   -137.1280501 -0.197741E-01  0.113E-01    0.06       1.0  T
   4   -137.1280134  0.367584E-04  0.106E-01    0.09       1.0  T
   5   -137.1289025 -0.889190E-03  0.817E-02    0.09       1.0  T
   6   -137.1299304 -0.102790E-02  0.471E-02    0.08       1.0  T
   7   -137.1302533 -0.322823E-03  0.245E-02    0.07       1.0  T
   8   -137.1303857 -0.132404E-03  0.822E-03    0.07       1.3  T
   9   -137.1303810  0.470639E-05  0.848E-03    0.07       1.2  T
  10   -137.1303900 -0.900008E-05  0.458E-03    0.07       2.3  T
  11   -137.1303935 -0.352718E-05  0.216E-03    0.07       4.9  T
  12   -137.1303927  0.744893E-06  0.278E-03    0.07       3.8  T
  13   -137.1303941 -0.134577E-05  0.121E-03    0.07       8.7  T
  14   -137.1303943 -0.240628E-06  0.592E-04    0.07      17.8  T
  15   -137.1303944 -0.440630E-07  0.381E-04    0.07      27.6  T
     SCC iter.                  ...        0 min,  0.528 sec
     gradient                   ...        0 min,  0.024 sec
 * total energy  :  -135.0676022 Eh     change       -0.1166332E-02 Eh
   gradient norm :     0.0081175 Eh/α   predicted    -0.8508856E-03 ( -27.05%)
   displ. norm   :     0.3428975 α      lambda       -0.1024267E-02
   maximum displ.:     0.1556005 α      in ANC's #7, #16, #12, ...

........................................................................
.............................. CYCLE   23 ..............................
........................................................................

 iter      E             dE          RMSdq      gap      omega  full diag
   1   -137.1304206 -0.137130E+03  0.611E-02    0.07       0.0  T
   2   -137.1138199  0.166006E-01  0.285E-01    0.15       1.0  T
   3   -137.1247474 -0.109275E-01  0.153E-01    0.05       1.0  T
   4   -137.1299438 -0.519634E-02  0.596E-02    0.08       1.0  T
   5   -137.1302499 -0.306089E-03  0.482E-02    0.08       1.0  T
   6   -137.1303621 -0.112268E-03  0.348E-02    0.07       1.0  T
   7   -137.1304483 -0.862219E-04  0.275E-02    0.07       1.0  T
   8   -137.1305648 -0.116471E-03  0.167E-02    0.07       1.0  T
   9   -137.1306119 -0.470994E-04  0.888E-03    0.07       1.2  T
  10   -137.1305975  0.143737E-04  0.111E-02    0.07       1.0  T
  11   -137.1306203 -0.227868E-04  0.441E-03    0.07       2.4  T
  12   -137.1306236 -0.324711E-05  0.225E-03    0.07       4.7  T
  13   -137.1306247 -0.115194E-05  0.331E-04    0.07      31.9  T
  14   -137.1306247  0.306133E-07  0.428E-04    0.07      24.7  T
  15   -137.1306247 -0.153101E-07  0.341E-04    0.07      30.9  T
     SCC iter.                  ...        0 min,  0.479 sec
     gradient                   ...        0 min,  0.024 sec
 * total energy  :  -135.0683625 Eh     change       -0.7602618E-03 Eh
   gradient norm :     0.0075418 Eh/α   predicted    -0.5724676E-03 ( -24.70%)
   displ. norm   :     0.4674657 α      lambda       -0.9046767E-03
   maximum displ.:     0.2186406 α      in ANC's #7, #16, #12, ...

........................................................................
.............................. CYCLE   24 ..............................
........................................................................

 iter      E             dE          RMSdq      gap      omega  full diag
   1   -137.1292898 -0.137129E+03  0.735E-02    0.07       0.0  T
   2   -137.1127579  0.165318E-01  0.286E-01    0.14       1.0  T
   3   -137.1220401 -0.928216E-02  0.181E-01    0.05       1.0  T
   4   -137.1288351 -0.679496E-02  0.630E-02    0.07       1.0  T
   5   -137.1291031 -0.267993E-03  0.478E-02    0.08       1.0  T
   6   -137.1290964  0.660820E-05  0.419E-02    0.07       1.0  T
   7   -137.1293203 -0.223891E-03  0.270E-02    0.07       1.0  T
   8   -137.1294371 -0.116725E-03  0.151E-02    0.07       1.0  T
   9   -137.1294588 -0.217170E-04  0.112E-02    0.07       1.0  T
  10   -137.1294273  0.314753E-04  0.158E-02    0.07       1.0  T
  11   -137.1294752 -0.479186E-04  0.524E-03    0.07       2.0  T
  12   -137.1294806 -0.540178E-05  0.116E-03    0.07       9.1  T
  13   -137.1294805  0.154229E-06  0.136E-03    0.07       7.7  T
  14   -137.1294808 -0.334884E-06  0.654E-04    0.07      16.1  T
  15   -137.1294808 -0.318361E-07  0.493E-04    0.07      21.4  T
     SCC iter.                  ...        0 min,  0.509 sec
     gradient                   ...        0 min,  0.031 sec
 * total energy  :  -135.0691101 Eh     change       -0.7475996E-03 Eh
   gradient norm :     0.0126282 Eh/α   predicted    -0.5512240E-03 ( -26.27%)
   displ. norm   :     0.5926329 α      lambda       -0.1042218E-02
   maximum displ.:     0.2810961 α      in ANC's #7, #16, #12, ...

........................................................................
.............................. CYCLE   25 ..............................
........................................................................

 iter      E             dE          RMSdq      gap      omega  full diag
   1   -137.1280063 -0.137128E+03  0.104E-01    0.06       0.0  T
   2   -137.1070431  0.209632E-01  0.323E-01    0.16       1.0  T
   3   -137.1212518 -0.142088E-01  0.191E-01    0.04       1.0  T
   4   -137.1239469 -0.269511E-02  0.145E-01    0.10       1.0  T
   5   -137.1270498 -0.310282E-02  0.747E-02    0.08       1.0  T
   6   -137.1281511 -0.110136E-02  0.180E-02    0.07       1.0  T
   7   -137.1277499  0.401240E-03  0.465E-02    0.06       1.0  T
   8   -137.1281553 -0.405463E-03  0.165E-02    0.07       1.0  T
   9   -137.1282019 -0.465958E-04  0.694E-03    0.07       1.5  T
  10   -137.1282076 -0.569039E-05  0.413E-03    0.07       2.5  T
  11   -137.1282096 -0.195123E-05  0.262E-03    0.07       4.0  T
  12   -137.1282103 -0.758071E-06  0.163E-03    0.07       6.5  T
  13   -137.1282108 -0.461850E-06  0.616E-04    0.07      17.1  T
  14   -137.1282107  0.870373E-07  0.835E-04    0.07      12.6  T
     SCC iter.                  ...        0 min,  0.360 sec
     gradient                   ...        0 min,  0.022 sec
 * total energy  :  -135.0699315 Eh     change       -0.8213961E-03 Eh
   gradient norm :     0.0115683 Eh/α   predicted    -0.7041297E-03 ( -14.28%)
   displ. norm   :     0.5139086 α      lambda       -0.7836344E-03
   maximum displ.:     0.2617520 α      in ANC's #7, #12, #9, ...

........................................................................
.............................. CYCLE   26 ..............................
........................................................................

 iter      E             dE          RMSdq      gap      omega  full diag
   1   -137.1301063 -0.137130E+03  0.103E-01    0.06       0.0  T
   2   -137.1088611  0.212452E-01  0.325E-01    0.16       1.0  T
   3   -137.1258664 -0.170052E-01  0.160E-01    0.05       1.0  T
   4   -137.1134425  0.124239E-01  0.282E-01    0.04       1.0  T
   5   -137.1256278 -0.121853E-01  0.152E-01    0.10       1.0  T
   6   -137.1285532 -0.292544E-02  0.922E-02    0.08       1.0  T
   7   -137.1299593 -0.140607E-02  0.436E-02    0.07       1.0  T
   8   -137.1302535 -0.294154E-03  0.234E-02    0.06       1.0  T
   9   -137.1303541 -0.100628E-03  0.593E-03    0.07       1.8  T
  10   -137.1303570 -0.287658E-05  0.236E-03    0.07       4.5  T
  11   -137.1303562  0.770072E-06  0.270E-03    0.07       3.9  T
  12   -137.1303575 -0.127461E-05  0.110E-03    0.07       9.6  T
  13   -137.1303574  0.397490E-07  0.104E-03    0.07      10.1  T
  14   -137.1303576 -0.136101E-06  0.551E-04    0.07      19.1  T
  15   -137.1303575  0.596798E-07  0.709E-04    0.07      14.9  T
     SCC iter.                  ...        0 min,  0.612 sec
     gradient                   ...        0 min,  0.022 sec
 * total energy  :  -135.0705084 Eh     change       -0.5769364E-03 Eh
   gradient norm :     0.0078932 Eh/α   predicted    -0.4952978E-03 ( -14.15%)
   displ. norm   :     0.4031662 α      lambda       -0.5044569E-03
   maximum displ.:     0.2222317 α      in ANC's #7, #9, #17, ...

........................................................................
.............................. CYCLE   27 ..............................
........................................................................

 iter      E             dE          RMSdq      gap      omega  full diag
   1   -137.1341227 -0.137134E+03  0.643E-02    0.07       0.0  T
   2   -137.1336506  0.472093E-03  0.651E-02    0.06       1.0  T
   3   -137.1201436  0.135070E-01  0.260E-01    0.13       1.0  T
   4   -137.1285293 -0.838569E-02  0.160E-01    0.05       1.0  T
   5   -137.1337546 -0.522530E-02  0.455E-02    0.07       1.0  T
   6   -137.1339805 -0.225952E-03  0.287E-02    0.07       1.0  T
   7   -137.1341290 -0.148482E-03  0.822E-03    0.07       1.3  T
   8   -137.1340370  0.920053E-04  0.216E-02    0.06       1.0  T
   9   -137.1341304 -0.933778E-04  0.564E-03    0.07       1.9  T
  10   -137.1341357 -0.528770E-05  0.245E-03    0.07       4.3  T
  11   -137.1341358 -0.168142E-06  0.215E-03    0.07       4.9  T
  12   -137.1341367 -0.890560E-06  0.541E-04    0.07      19.5  T
  13   -137.1341367  0.150317E-07  0.542E-04    0.07      19.5  T
     SCC iter.                  ...        0 min,  0.464 sec
     gradient                   ...        0 min,  0.024 sec
 * total energy  :  -135.0708983 Eh     change       -0.3898561E-03 Eh
   gradient norm :     0.0059254 Eh/α   predicted    -0.2932266E-03 ( -24.79%)
   displ. norm   :     0.4507468 α      lambda       -0.4452782E-03
   maximum displ.:     0.2535619 α      in ANC's #7, #14, #9, ...

........................................................................
.............................. CYCLE   28 ..............................
........................................................................

 iter      E             dE          RMSdq      gap      omega  full diag
   1   -137.1358729 -0.137136E+03  0.608E-02    0.07       0.0  T
   2   -137.1357856  0.872667E-04  0.437E-02    0.06       1.0  T
   3   -137.1187079  0.170778E-01  0.286E-01    0.14       1.0  T
   4   -137.1352448 -0.165369E-01  0.595E-02    0.06       1.0  T
   5   -137.1358150 -0.570181E-03  0.194E-02    0.07       1.0  T
   6   -137.1358463 -0.312743E-04  0.126E-02    0.07       1.0  T
   7   -137.1358302  0.160332E-04  0.158E-02    0.06       1.0  T
   8   -137.1358331 -0.290215E-05  0.147E-02    0.06       1.0  T
   9   -137.1358760 -0.428880E-04  0.403E-03    0.07       2.6  T
  10   -137.1358778 -0.180760E-05  0.265E-03    0.07       4.0  T
  11   -137.1358787 -0.855210E-06  0.169E-03    0.07       6.2  T
  12   -137.1358792 -0.540221E-06  0.529E-04    0.07      19.9  T
  13   -137.1358792 -0.134858E-07  0.464E-04    0.07      22.7  T
     SCC iter.                  ...        0 min,  0.852 sec
     gradient                   ...        0 min,  0.024 sec
 * total energy  :  -135.0712511 Eh     change       -0.3528251E-03 Eh
   gradient norm :     0.0062667 Eh/α   predicted    -0.2678741E-03 ( -24.08%)
   displ. norm   :     0.4692713 α      lambda       -0.4297512E-03
   maximum displ.:     0.2664014 α      in ANC's #7, #14, #17, ...

........................................................................
.............................. CYCLE   29 ..............................
........................................................................

 iter      E             dE          RMSdq      gap      omega  full diag
   1   -137.1389915 -0.137139E+03  0.620E-02    0.07       0.0  T
   2   -137.1339507  0.504080E-02  0.155E-01    0.05       1.0  T
   3   -137.1328401  0.111065E-02  0.174E-01    0.10       1.0  T
   4   -137.1382268 -0.538675E-02  0.652E-02    0.06       1.0  T
   5   -137.1388194 -0.592598E-03  0.324E-02    0.07       1.0  T
   6   -137.1388496 -0.302010E-04  0.279E-02    0.07       1.0  T
   7   -137.1389821 -0.132495E-03  0.129E-02    0.07       1.0  T
   8   -137.1390097 -0.275994E-04  0.572E-03    0.07       1.8  T
   9   -137.1389973  0.124740E-04  0.919E-03    0.06       1.1  T
  10   -137.1390090 -0.117658E-04  0.551E-03    0.07       1.9  T
  11   -137.1390154 -0.637237E-05  0.846E-04    0.07      12.5  T
  12   -137.1390154  0.244499E-07  0.796E-04    0.07      13.2  T
  13   -137.1390155 -0.785314E-07  0.489E-04    0.07      21.5  T
     SCC iter.                  ...        0 min,  0.447 sec
     gradient                   ...        0 min,  0.064 sec
 * total energy  :  -135.0715716 Eh     change       -0.3204343E-03 Eh
   gradient norm :     0.0061164 Eh/α   predicted    -0.2621957E-03 ( -18.17%)
   displ. norm   :     0.5478454 α      lambda       -0.3579200E-03
   maximum displ.:     0.3084307 α      in ANC's #7, #14, #17, ...

........................................................................
.............................. CYCLE   30 ..............................
........................................................................

 iter      E             dE          RMSdq      gap      omega  full diag
   1   -137.1332412 -0.137133E+03  0.731E-02    0.06       0.0  T
   2   -137.1282398  0.500139E-02  0.160E-01    0.10       1.0  T
   3   -137.1183742  0.986552E-02  0.265E-01    0.03       1.0  T
   4   -137.1318875 -0.135132E-01  0.803E-02    0.08       1.0  T
   5   -137.1328546 -0.967141E-03  0.447E-02    0.07       1.0  T
   6   -137.1331991 -0.344529E-03  0.182E-02    0.07       1.0  T
   7   -137.1332324 -0.332874E-04  0.135E-02    0.06       1.0  T
   8   -137.1332656 -0.331625E-04  0.491E-03    0.06       2.1  T
   9   -137.1332697 -0.410565E-05  0.150E-03    0.07       7.0  T
  10   -137.1332696  0.131717E-06  0.148E-03    0.07       7.1  T
  11   -137.1332700 -0.379371E-06  0.746E-04    0.07      14.1  T
  12   -137.1332700 -0.852801E-07  0.249E-04    0.07      42.4  T
     SCC iter.                  ...        0 min,  0.719 sec
     gradient                   ...        0 min,  0.022 sec
 * total energy  :  -135.0717500 Eh     change       -0.1784629E-03 Eh
   gradient norm :     0.0091757 Eh/α   predicted    -0.2326836E-03 (  30.38%)
   displ. norm   :     0.2659952 α      lambda       -0.3244726E-03
   maximum displ.:     0.1242255 α      in ANC's #14, #7, #16, ...

........................................................................
.............................. CYCLE   31 ..............................
........................................................................

 iter      E             dE          RMSdq      gap      omega  full diag
   1   -137.1384008 -0.137138E+03  0.465E-02    0.07       0.0  T
   2   -137.1145704  0.238304E-01  0.328E-01    0.03       1.0  T
   3   -137.1361350 -0.215646E-01  0.110E-01    0.08       1.0  T
   4   -137.1380206 -0.188563E-02  0.515E-02    0.07       1.0  T
   5   -137.1383049 -0.284305E-03  0.314E-02    0.07       1.0  T
   6   -137.1382456  0.593041E-04  0.330E-02    0.07       1.0  T
   7   -137.1383199 -0.742353E-04  0.271E-02    0.07       1.0  T
   8   -137.1384683 -0.148492E-03  0.486E-03    0.07       2.2  T
   9   -137.1384690 -0.661839E-06  0.314E-03    0.07       3.4  T
  10   -137.1384709 -0.185680E-05  0.128E-03    0.07       8.3  T
  11   -137.1384712 -0.303408E-06  0.386E-04    0.07      27.3  T
  12   -137.1384711  0.769076E-07  0.691E-04    0.07      15.3  T
     SCC iter.                  ...        0 min,  0.346 sec
     gradient                   ...        0 min,  0.022 sec
 * total energy  :  -135.0719293 Eh     change       -0.1792607E-03 Eh
   gradient norm :     0.0046257 Eh/α   predicted    -0.1737225E-03 (  -3.09%)
   displ. norm   :     0.2184379 α      lambda       -0.9429879E-04
   maximum displ.:     0.1161385 α      in ANC's #7, #14, #17, ...

........................................................................
.............................. CYCLE   32 ..............................
........................................................................

 iter      E             dE          RMSdq      gap      omega  full diag
   1   -137.1373628 -0.137137E+03  0.308E-02    0.07       0.0  T
   2   -137.1373628  0.466667E-07  0.187E-02    0.07       1.0  T
   3   -137.1372215  0.141320E-03  0.276E-02    0.07       1.0  T
   4   -137.1361713  0.105020E-02  0.744E-02    0.05       1.0  T
   5   -137.1373583 -0.118706E-02  0.635E-03    0.07       1.7  T
   6   -137.1373608 -0.248042E-05  0.434E-03    0.07       2.4  T
   7   -137.1373637 -0.290463E-05  0.167E-03    0.07       6.3  T
   8   -137.1373634  0.283206E-06  0.168E-03    0.07       6.3  T
   9   -137.1373638 -0.381768E-06  0.111E-03    0.07       9.5  T
  10   -137.1373640 -0.234335E-06  0.322E-04    0.07      32.7  T
  11   -137.1373640  0.744336E-08  0.322E-04    0.07      32.7  T
     SCC iter.                  ...        0 min,  0.286 sec
     gradient                   ...        0 min,  0.022 sec
 * total energy  :  -135.0719896 Eh     change       -0.6031108E-04 Eh
   gradient norm :     0.0046789 Eh/α   predicted    -0.4939954E-04 ( -18.09%)
   displ. norm   :     0.1956068 α      lambda       -0.1137770E-03
   maximum displ.:     0.0847728 α      in ANC's #7, #4, #14, ...

........................................................................
.............................. CYCLE   33 ..............................
........................................................................

 iter      E             dE          RMSdq      gap      omega  full diag
   1   -137.1374246 -0.137137E+03  0.288E-02    0.07       0.0  T
   2   -137.1342597  0.316493E-02  0.122E-01    0.05       1.0  T
   3   -137.1368143 -0.255464E-02  0.567E-02    0.07       1.0  T
   4   -137.1372741 -0.459822E-03  0.281E-02    0.07       1.0  T
   5   -137.1374284 -0.154276E-03  0.739E-03    0.07       1.4  T
   6   -137.1374183  0.100594E-04  0.897E-03    0.07       1.2  T
   7   -137.1374342 -0.158866E-04  0.305E-03    0.07       3.5  T
   8   -137.1374328  0.143226E-05  0.361E-03    0.06       2.9  T
   9   -137.1374346 -0.175639E-05  0.204E-03    0.06       5.2  T
  10   -137.1374354 -0.839388E-06  0.462E-04    0.06      22.8  T
  11   -137.1374354 -0.272572E-07  0.201E-04    0.06      52.5  T
     SCC iter.                  ...        0 min,  0.327 sec
     gradient                   ...        0 min,  0.021 sec
 * total energy  :  -135.0720461 Eh     change       -0.5650793E-04 Eh
   gradient norm :     0.0029281 Eh/α   predicted    -0.5906739E-04 (   4.53%)
   displ. norm   :     0.0895145 α      lambda       -0.5871338E-04
   maximum displ.:     0.0414901 α      in ANC's #9, #5, #22, ...

........................................................................
.............................. CYCLE   34 ..............................
........................................................................

 iter      E             dE          RMSdq      gap      omega  full diag
   1   -137.1379418 -0.137138E+03  0.142E-02    0.07       0.0  T
   2   -137.1364272  0.151461E-02  0.850E-02    0.05       1.0  T
   3   -137.1378554 -0.142824E-02  0.220E-02    0.07       1.0  T
   4   -137.1379249 -0.694561E-04  0.127E-02    0.06       1.0  T
   5   -137.1379463 -0.214515E-04  0.322E-03    0.06       3.3  T
   6   -137.1379466 -0.244229E-06  0.248E-03    0.06       4.3  T
   7   -137.1379463  0.224162E-06  0.247E-03    0.06       4.3  T
   8   -137.1379470 -0.700960E-06  0.143E-03    0.06       7.4  T
   9   -137.1379472 -0.196152E-06  0.467E-04    0.06      22.6  T
  10   -137.1379473 -0.254618E-07  0.190E-04    0.06      55.4  T
     SCC iter.                  ...        0 min,  0.384 sec
     gradient                   ...        0 min,  0.030 sec
 * total energy  :  -135.0720760 Eh     change       -0.2987549E-04 Eh
[...]
    32   6 C        3.760    -0.121    22.864     6.817
    33   6 C        3.758    -0.122    22.883     6.820
    34   6 C        3.758    -0.123    22.906     6.824
    35   6 C        3.761    -0.121    22.865     6.816
    36  35 Br       1.073    -0.140   188.909    22.161
    37   7 N        2.798    -0.018    21.600     6.903
    38  14 Si       3.502     0.493   100.653    19.409
    39   6 C        3.696    -0.166    23.913     6.995
    40   6 C        3.710     0.087    19.264     6.273
    41   8 O        1.702    -0.318    19.311     5.933
    42   6 C        3.649    -0.210    25.041     7.189
    43   6 C        3.649    -0.212    25.077     7.194
    44   6 C        3.649    -0.211    25.068     7.193
    45   6 C        3.640     0.148    18.517     6.188
    46   7 N        2.809     0.238    17.383     6.192
    47   8 O        0.926    -0.370    21.063     6.155
    48   7 N        2.811     0.252    17.181     6.156
    49   8 O        0.926    -0.340    20.484     6.070
    50   1 H        0.925     0.052     2.291     2.367
    51   1 H        0.925     0.081     1.972     2.196
    52   1 H        0.925     0.081     1.971     2.196
    53   1 H        0.925     0.066     2.127     2.281
    54   1 H        0.925     0.088     1.896     2.153
    55   1 H        0.925     0.070     2.087     2.259
    56   1 H        0.925     0.065     2.136     2.285
    57   1 H        0.925     0.083     1.944     2.181
    58   1 H        0.925     0.070     2.088     2.260
    59   1 H        0.925     0.051     2.313     2.378
    60   1 H        0.925     0.079     1.987     2.204
    61   1 H        0.925     0.077     2.007     2.215
    62   1 H        0.926     0.081     1.964     2.191
    63   1 H        0.926     0.062     2.173     2.305
    64   1 H        0.926     0.080     1.977     2.199
    65   1 H        0.926     0.059     2.216     2.328
    66   1 H        0.926     0.056     2.242     2.341
    67   1 H        0.926     0.057     2.230     2.335
    68   1 H        0.926     0.052     2.295     2.369
    69   1 H        0.923     0.040     2.449     2.448
    70   1 H        0.923     0.040     2.452     2.449
    71   1 H        0.923     0.015     2.805     2.619
    72   1 H        0.923     0.014     2.834     2.632
    73   1 H        0.925     0.047     2.362     2.403
    74   1 H        0.925     0.045     2.385     2.415
    75   1 H        0.925     0.039     2.466     2.456
    76   1 H        0.925     0.047     2.359     2.402
    77   1 H        0.925     0.048     2.342     2.393
    78   1 H        0.925     0.046     2.370     2.407
    79   1 H        0.925     0.044     2.395     2.420
    80   1 H        0.925     0.046     2.368     2.407
    81   1 H        0.925     0.038     2.472     2.459
    82   1 H        0.925     0.049     2.334     2.389
    83   1 H        0.925     0.044     2.390     2.418
    84   1 H        0.926     0.051     2.305     2.374
    85   1 H        0.926     0.055     2.259     2.350
    86   1 H        0.926     0.049     2.331     2.388
    87   1 H        0.926     0.044     2.390     2.418
    88   1 H        0.926     0.048     2.343     2.394
    89   1 H        0.926     0.064     2.151     2.294
    90   1 H        0.926     0.063     2.167     2.302

 Mol. C6AA /au·bohr⁶  :     103344.111779
 Mol. C8AA /au·bohr⁸  :    2744848.621629
 Mol. α(0) /au        :        508.428091


Wiberg/Mayer (AO) data.
largest (>0.10) Wiberg bond orders for each atom

 ---------------------------------------------------------------------------
     #   Z sym  total        # sym  WBO       # sym  WBO       # sym  WBO
 ---------------------------------------------------------------------------
     1   6 C    3.963 --     2 C    1.513     6 C    1.305    88 H    0.965
     2   6 C    3.979 --     1 C    1.513     3 C    1.334    89 H    0.966
     3   6 C    3.916 --     4 C    1.454     2 C    1.334    36 Br   0.995
     4   6 C    3.969 --     3 C    1.454     5 C    1.328    90 H    0.959
     5   6 C    3.980 --     4 C    1.328     6 C    1.267     7 C    1.169
     6   6 C    3.984 --     1 C    1.305     5 C    1.267    10 C    1.226
     7   6 C    3.953 --    11 C    1.286     8 C    1.265     5 C    1.169
     8   6 C    3.946 --    14 C    1.269     7 C    1.265     9 C    1.241
     9   6 C    3.963 --    10 C    1.594     8 C    1.241    86 H    0.966
    10   6 C    3.933 --     9 C    1.594     6 C    1.226    87 H    0.965
    11   6 C    3.936 --     7 C    1.286    12 C    1.262    15 C    1.157
    12   6 C    3.928 --    13 C    1.284    11 C    1.262    37 N    1.172
    13   6 C    3.957 --    14 C    1.551    12 C    1.284    84 H    0.962
    14   6 C    3.953 --    13 C    1.551     8 C    1.269    85 H    0.966
    15   6 C    3.958 --    17 C    1.282    16 C    1.275    11 C    1.157
    16   6 C    3.939 --    20 C    1.296    15 C    1.275    37 N    1.153
    17   6 C    3.953 --    15 C    1.282    18 C    1.269    21 C    1.164
    18   6 C    3.952 --    19 C    1.285    17 C    1.269    24 C    1.228
    19   6 C    3.955 --    20 C    1.532    18 C    1.285    67 H    0.966
    20   6 C    3.947 --    19 C    1.532    16 C    1.296    68 H    0.963
    21   6 C    3.986 --    28 C    1.351    22 C    1.261    17 C    1.164
    22   6 C    3.982 --    27 C    1.301    21 C    1.261    23 C    1.222
    23   6 C    3.944 --    24 C    1.609    22 C    1.222    65 H    0.965
    24   6 C    3.964 --    23 C    1.609    18 C    1.228    66 H    0.965
    25   6 C    3.961 --    28 C    1.396    26 C    1.282    29 C    1.103
    26   6 C    3.965 --    27 C    1.534    25 C    1.282    62 H    0.957
    27   6 C    3.966 --    26 C    1.534    22 C    1.301    63 H    0.965
    28   6 C    3.970 --    25 C    1.396    21 C    1.351    64 H    0.950
    29   6 C    3.932 --    46 N    1.232    48 N    1.226    25 C    1.103
                            49 O    0.142    47 O    0.138
    30   6 C    3.951 --    33 C    0.994    32 C    0.970    31 C    0.955
                            46 N    0.907
    31   6 C    3.949 --    34 C    0.995    35 C    0.966    30 C    0.955
                            48 N    0.907
    32   6 C    3.967 --    59 H    0.982    60 H    0.975    61 H    0.975
                            30 C    0.970
    33   6 C    3.977 --    30 C    0.994    56 H    0.979    58 H    0.978
                            57 H    0.976
    34   6 C    3.975 --    31 C    0.995    53 H    0.979    55 H    0.978
                            54 H    0.975
    35   6 C    3.966 --    50 H    0.983    52 H    0.977    51 H    0.974
                            31 C    0.966
    36  35 Br   1.124 --     3 C    0.995
    37   7 N    3.529 --    12 C    1.172    16 C    1.153    45 C    0.997
    38  14 Si   3.570 --    44 C    0.910    43 C    0.910    42 C    0.886
                            39 C    0.780
    39   6 C    3.896 --    40 C    1.025    74 H    0.982    73 H    0.981
                            38 Si   0.780
    40   6 C    3.934 --    39 C    1.025    71 H    0.973    72 H    0.972
                            41 O    0.952
    41   8 O    2.059 --    45 C    0.987    40 C    0.952
    42   6 C    3.955 --    79 H    0.987    80 H    0.984    78 H    0.984
                            38 Si   0.886
    43   6 C    3.980 --    81 H    0.984    82 H    0.984    83 H    0.983
                            38 Si   0.910
    44   6 C    3.979 --    75 H    0.984    77 H    0.984    76 H    0.983
                            38 Si   0.910
    45   6 C    3.950 --    37 N    0.997    41 O    0.987    69 H    0.954
                            70 H    0.953
    46   7 N    3.639 --    47 O    1.340    29 C    1.232    30 C    0.907
    47   8 O    1.731 --    46 N    1.340    29 C    0.138
    48   7 N    3.646 --    49 O    1.372    29 C    1.226    31 C    0.907
    49   8 O    1.753 --    48 N    1.372    29 C    0.142
    50   1 H    0.997 --    35 C    0.983
    51   1 H    0.991 --    35 C    0.974
    52   1 H    0.993 --    35 C    0.977
    53   1 H    0.995 --    34 C    0.979
    54   1 H    0.992 --    34 C    0.975
    55   1 H    0.994 --    34 C    0.978
    56   1 H    0.995 --    33 C    0.979
    57   1 H    0.992 --    33 C    0.976
    58   1 H    0.994 --    33 C    0.978
    59   1 H    0.997 --    32 C    0.982
    60   1 H    0.992 --    32 C    0.975
    61   1 H    0.994 --    32 C    0.975
    62   1 H    0.992 --    26 C    0.957
    63   1 H    0.995 --    27 C    0.965
    64   1 H    0.993 --    28 C    0.950
    65   1 H    0.995 --    23 C    0.965
    66   1 H    0.996 --    24 C    0.965
    67   1 H    0.996 --    19 C    0.966
    68   1 H    0.996 --    20 C    0.963
    69   1 H    0.996 --    45 C    0.954
    70   1 H    0.997 --    45 C    0.953
    71   1 H    1.000 --    40 C    0.973
    72   1 H    1.000 --    40 C    0.972
    73   1 H    0.996 --    39 C    0.981
    74   1 H    0.997 --    39 C    0.982
    75   1 H    0.998 --    44 C    0.984
    76   1 H    0.998 --    44 C    0.983
    77   1 H    0.996 --    44 C    0.984
    78   1 H    0.998 --    42 C    0.984
    79   1 H    0.995 --    42 C    0.987
    80   1 H    0.998 --    42 C    0.984
    81   1 H    0.998 --    43 C    0.984
    82   1 H    0.996 --    43 C    0.984
    83   1 H    0.998 --    43 C    0.983
    84   1 H    0.996 --    13 C    0.962
    85   1 H    0.996 --    14 C    0.966
    86   1 H    0.996 --     9 C    0.966
    87   1 H    0.997 --    10 C    0.965
    88   1 H    0.997 --     1 C    0.965
    89   1 H    0.995 --     2 C    0.966
    90   1 H    0.996 --     4 C    0.959
 ---------------------------------------------------------------------------

Topologies differ in bond orders
Writing corrected topology to xtbtopo.mol

molecular dipole:
                 x           y           z       tot (Debye)
 q only:       -1.538       3.255      -2.982
   full:       -1.417       3.729      -3.061      12.780
molecular quadrupole (traceless):
                xx          xy          yy          xz          yz          zz
 q only:       21.949     -27.517     -43.444      90.731     -12.833      21.495
  q+dip:       31.728     -31.175     -40.990      88.492     -10.925       9.262
   full:       28.053     -29.685     -46.389      84.010     -13.804      18.336

           -------------------------------------------------
          |                Geometry Summary                 |
           -------------------------------------------------

      molecular mass/u    :      731.7730935
   center of mass at/Å    :       -0.9426111       0.1074203      -0.6385786
  moments of inertia/u·Å² :        0.5662252E+04   0.1636987E+05   0.1863525E+05
rotational constants/cm⁻¹ :        0.2977196E-02   0.1029796E-02   0.9046099E-03

 * 93 selected distances

     #   Z          #   Z                                           value/Å
     1   6 C        2   6 C                                       1.3710233
     2   6 C        3   6 C                                       1.3954118
     3   6 C        4   6 C                                       1.3754838
     4   6 C        5   6 C                                       1.4013322
     1   6 C        6   6 C                                       1.4062465
     5   6 C        6   6 C                                       1.4169136
     7   6 C        8   6 C                                       1.4203522
     8   6 C        9   6 C                                       1.4174123
     6   6 C       10   6 C                                       1.4187718
     9   6 C       10   6 C                                       1.3580843
     7   6 C       11   6 C                                       1.4140103
    11   6 C       12   6 C                                       1.4185505
    12   6 C       13   6 C                                       1.3982437
     8   6 C       14   6 C                                       1.4122571
    13   6 C       14   6 C                                       1.3655673
    15   6 C       16   6 C                                       1.4150576
    15   6 C       17   6 C                                       1.4135984
    17   6 C       18   6 C                                       1.4202077
    18   6 C       19   6 C                                       1.4100059
    16   6 C       20   6 C                                       1.3967481
    19   6 C       20   6 C                                       1.3687119
    21   6 C       22   6 C                                       1.4158760
    22   6 C       23   6 C                                       1.4192282
    18   6 C       24   6 C                                       1.4213354
    23   6 C       24   6 C                                       1.3570140
    25   6 C       26   6 C                                       1.4131630
    22   6 C       27   6 C                                       1.4046937
    26   6 C       27   6 C                                       1.3682828
    21   6 C       28   6 C                                       1.3971505
    25   6 C       28   6 C                                       1.3914345
    30   6 C       31   6 C                                       1.5377381
    30   6 C       32   6 C                                       1.5322326
    30   6 C       33   6 C                                       1.5226672
    31   6 C       34   6 C                                       1.5217196
    31   6 C       35   6 C                                       1.5348870
     3   6 C       36  35 Br                                      1.9020511
    12   6 C       37   7 N                                       1.3671085
    16   6 C       37   7 N                                       1.3712359
    38  14 Si      39   6 C                                       1.9308292 (max)
    39   6 C       40   6 C                                       1.5124894
    40   6 C       41   8 O                                       1.4190533
    38  14 Si      42   6 C                                       1.9059774
    38  14 Si      43   6 C                                       1.9068437
    38  14 Si      44   6 C                                       1.9065838
    37   7 N       45   6 C                                       1.4290322
    41   8 O       45   6 C                                       1.4004765
    29   6 C       46   7 N                                       1.3503148
    30   6 C       46   7 N                                       1.4795962
    46   7 N       47   8 O                                       1.2417711
    29   6 C       48   7 N                                       1.3518328
    31   6 C       48   7 N                                       1.4774368
    48   7 N       49   8 O                                       1.2338359
    35   6 C       50   1 H                                       1.0880643
    35   6 C       51   1 H                                       1.0856945
    35   6 C       52   1 H                                       1.0881931
    34   6 C       53   1 H                                       1.0855594
    34   6 C       54   1 H                                       1.0871956
    34   6 C       55   1 H                                       1.0857655
    33   6 C       56   1 H                                       1.0855632
    33   6 C       57   1 H                                       1.0871890
    33   6 C       58   1 H                                       1.0857767
    32   6 C       59   1 H                                       1.0878925
    32   6 C       60   1 H                                       1.0857112
    32   6 C       61   1 H                                       1.0878469
    26   6 C       62   1 H                                       1.0762672
    27   6 C       63   1 H                                       1.0792249
    28   6 C       64   1 H                                       1.0752594 (min)
    23   6 C       65   1 H                                       1.0788040
    24   6 C       66   1 H                                       1.0795620
    19   6 C       67   1 H                                       1.0788851
    20   6 C       68   1 H                                       1.0776813
    45   6 C       69   1 H                                       1.1030614
    45   6 C       70   1 H                                       1.1029615
    40   6 C       71   1 H                                       1.0989876
    40   6 C       72   1 H                                       1.0994911
    39   6 C       73   1 H                                       1.0889382
    39   6 C       74   1 H                                       1.0888164
    44   6 C       75   1 H                                       1.0859925
Note: The following floating-point exceptions are signalling: IEEE_UNDERFLOW_FLAG
normal termination of xtb
    44   6 C       76   1 H                                       1.0865549
    44   6 C       77   1 H                                       1.0859364
    42   6 C       78   1 H                                       1.0859511
    42   6 C       79   1 H                                       1.0850690
    42   6 C       80   1 H                                       1.0859313
    43   6 C       81   1 H                                       1.0863943
    43   6 C       82   1 H                                       1.0859134
    43   6 C       83   1 H                                       1.0865448
    13   6 C       84   1 H                                       1.0777237
    14   6 C       85   1 H                                       1.0791299
     9   6 C       86   1 H                                       1.0801995
    10   6 C       87   1 H                                       1.0803369
     1   6 C       88   1 H                                       1.0804567
     2   6 C       89   1 H                                       1.0784051
     4   6 C       90   1 H                                       1.0767130

 * 7 distinct bonds (by element types)

   Z      Z             #   av. dist./Å        max./Å        min./Å
   1 H    6 C          41     1.0852596     1.1030614     1.0752594
   6 C    6 C          36     1.4212195     1.5377381     1.3570140
   6 C    7 N           7     1.4037939     1.4795962     1.3503148
   6 C    8 O           2     1.4097649     1.4190533     1.4004765
   7 N    8 O           2     1.2378035     1.2417711     1.2338359
   6 C   14 Si          4     1.9125585     1.9308292     1.9059774
   6 C   35 Br          1     1.9020511     1.9020511     1.9020511


optimized geometry written to: xtbopt.mol


           -------------------------------------------------
          | TOTAL ENERGY             -135.073763602246 Eh   |
          | GRADIENT NORM               0.000811957017 Eh/α |
          | HOMO-LUMO GAP               0.065966196814 eV   |
           -------------------------------------------------
########################################################################
[WARNING] Runtime exception occurred
-1- restart_readRestart: Number of electron missmatch in restart file.
########################################################################

------------------------------------------------------------------------
 * finished run on 2024/11/14 at 11:21:29.020     
------------------------------------------------------------------------
 total:
 * wall-time:     0 d,  0 h,  0 min, 47.717 sec
 *  cpu-time:     0 d,  0 h,  2 min, 24.186 sec
 * ratio c/w:     3.022 speedup
 SCF:
 * wall-time:     0 d,  0 h,  0 min,  1.809 sec
 *  cpu-time:     0 d,  0 h,  0 min,  6.709 sec
 * ratio c/w:     3.708 speedup
 ANC optimizer:
 * wall-time:     0 d,  0 h,  0 min, 45.890 sec
 *  cpu-time:     0 d,  0 h,  2 min, 17.454 sec
 * ratio c/w:     2.995 speedup

