      -----------------------------------------------------------      
     |                   =====================                   |     
     |                           x T B                           |     
     |                   =====================                   |     
     |                         S. Grimme                         |     
     |          Mulliken Center for Theoretical Chemistry        |     
     |                    University of Bonn                     |     
      -----------------------------------------------------------      

   * xtb version 6.6.1 (8d0f1dd) compiled by 'runner@Mac-1690902418499.local' on 2023-08-01

   xtb is free software: you can redistribute it and/or modify it under
   the terms of the GNU Lesser General Public License as published by
   the Free Software Foundation, either version 3 of the License, or
   (at your option) any later version.
   
   xtb is distributed in the hope that it will be useful,
   but WITHOUT ANY WARRANTY; without even the implied warranty of
   MERCHANTABILITY or FITNESS FOR A PARTICULAR PURPOSE.  See the
   GNU Lesser General Public License for more details.
   
   Cite this work as:
   * C. Bannwarth, E. Caldeweyher, S. Ehlert, A. Hansen, P. Pracht,
     J. Seibert, S. Spicher, S. Grimme, WIREs Comput. Mol. Sci., 2020, 11,
     e01493. DOI: 10.1002/wcms.1493
   
   for GFN2-xTB:
   * C. Bannwarth, S. Ehlert and S. Grimme., J. Chem. Theory Comput., 2019,
     15, 1652-1671. DOI: 10.1021/acs.jctc.8b01176
   for GFN1-xTB:
   * S. Grimme, C. Bannwarth, P. Shushkov, J. Chem. Theory Comput., 2017,
     13, 1989-2009. DOI: 10.1021/acs.jctc.7b00118
   for GFN0-xTB:
   * P. Pracht, E. Caldeweyher, S. Ehlert, S. Grimme, ChemRxiv, 2019, preprint.
     DOI: 10.26434/chemrxiv.8326202.v1
   for GFN-FF:
   * S. Spicher and S. Grimme, Angew. Chem. Int. Ed., 2020, 59, 15665-15673.
     DOI: 10.1002/anie.202004239
   
   for ALPB and GBSA implicit solvation:
   * S. Ehlert, M. Stahn, S. Spicher, S. Grimme, J. Chem. Theory Comput.,
     2021, 17, 4250-4261. DOI: 10.1021/acs.jctc.1c00471
   
   for DFT-D4:
   * E. Caldeweyher, C. Bannwarth and S. Grimme, J. Chem. Phys., 2017,
     147, 034112. DOI: 10.1063/1.4993215
   * E. Caldeweyher, S. Ehlert, A. Hansen, H. Neugebauer, S. Spicher,
     C. Bannwarth and S. Grimme, J. Chem. Phys., 2019, 150, 154122.
     DOI: 10.1063/1.5090222
   * E. Caldeweyher, J.-M. Mewes, S. Ehlert and S. Grimme, Phys. Chem. Chem. Phys.
     2020, 22, 8499-8512. DOI: 10.1039/D0CP00502A
   
   for sTDA-xTB:
   * S. Grimme and C. Bannwarth, J. Chem. Phys., 2016, 145, 054103.
     DOI: 10.1063/1.4959605
   
   in the mass-spec context:
   * V. Asgeirsson, C. Bauer and S. Grimme, Chem. Sci., 2017, 8, 4879.
     DOI: 10.1039/c7sc00601b
   * J. Koopman and S. Grimme, ACS Omega 2019, 4, 12, 15120-15133.
     DOI: 10.1021/acsomega.9b02011
   
   for metadynamics refer to:
   * S. Grimme, J. Chem. Theory Comput., 2019, 155, 2847-2862
     DOI: 10.1021/acs.jctc.9b00143
   
   for SPH calculations refer to:
   * S. Spicher and S. Grimme, J. Chem. Theory Comput., 2021, 17, 1701-1714
     DOI: 10.1021/acs.jctc.0c01306
   
   with help from (in alphabetical order)
   P. Atkinson, C. Bannwarth, F. Bohle, G. Brandenburg, E. Caldeweyher
   M. Checinski, S. Dohm, S. Ehlert, S. Ehrlich, I. Gerasimov, C. Hölzer
   A. Katbashev, J. Koopman, C. Lavigne, S. Lehtola, F. März, M. Müller,
   F. Musil, H. Neugebauer, J. Pisarek, C. Plett, P. Pracht, F. Pultar,
   J. Seibert, P. Shushkov, S. Spicher, M. Stahn, M. Steiner, T. Strunk,
   J. Stückrath, T. Rose, and J. Unsleber
   
 * started run on 2024/11/14 at 11:21:56.453     

           -------------------------------------------------
          |                Calculation Setup                |
           -------------------------------------------------

          program call               : xtb opt_cation_Nitro4.mol --gfn2 --sp --chrg 0 --uhf 1
          coordinate file            : opt_cation_Nitro4.mol
          omp threads                :                     8

   ID    Z sym.   atoms
    1    6 C      1-35, 39, 40, 42-45
    2   35 Br     36
    3    7 N      37, 46, 48
    4   14 Si     38
    5    8 O      41, 47, 49
    6    1 H      50-90
########################################################################
[WARNING] Please study the warnings concerning your input carefully
-1- prog_main: Charge in sdf/mol input was overwritten
########################################################################

           -------------------------------------------------
          |                 G F N 2 - x T B                 |
           -------------------------------------------------

        Reference                      10.1021/acs.jctc.8b01176
      * Hamiltonian:
        H0-scaling (s, p, d)           1.850000    2.230000    2.230000
        zeta-weighting                 0.500000
      * Dispersion:
        s8                             2.700000
        a1                             0.520000
        a2                             5.000000
        s9                             5.000000
      * Repulsion:
        kExp                           1.500000    1.000000
        rExp                           1.000000
      * Coulomb:
        alpha                          2.000000
        third order                    shell-resolved
        anisotropic                    true
        a3                             3.000000
        a5                             4.000000
        cn-shift                       1.200000
        cn-exp                         4.000000
        max-rad                        5.000000

q/qsh data taken from xtbrestart
CAMM data taken from xtbrestart

          ...................................................
          :                      SETUP                      :
          :.................................................:
          :  # basis functions                 249          :
          :  # atomic orbitals                 247          :
          :  # shells                          141          :
          :  # electrons                       249          :
          :  max. iterations                   250          :
          :  Hamiltonian                  GFN2-xTB          :
          :  restarted?                       true          :
          :  GBSA solvation                  false          :
          :  PC potential                    false          :
          :  electronic temp.          300.0000000     K    :
          :  accuracy                    1.0000000          :
          :  -> integral cutoff          0.2500000E+02      :
          :  -> integral neglect         0.1000000E-07      :
          :  -> SCF convergence          0.1000000E-05 Eh   :
          :  -> wf. convergence          0.1000000E-03 e    :
          :  Broyden damping             0.4000000          :
          ...................................................

 iter      E             dE          RMSdq      gap      omega  full diag
   1   -137.4984703 -0.137498E+03  0.497E-01    1.99       0.0  T
   2   -137.5305916 -0.321213E-01  0.306E-01    1.11       1.0  T
   3   -137.5349502 -0.435856E-02  0.206E-01    1.36       1.0  T
   4   -137.5351470 -0.196823E-03  0.169E-01    1.38       1.0  T
   5   -137.5356068 -0.459838E-03  0.995E-02    1.43       1.0  T
   6   -137.5356223 -0.154766E-04  0.669E-02    1.43       1.0  T
   7   -137.5357052 -0.829258E-04  0.479E-02    1.43       1.0  T
   8   -137.5357147 -0.949076E-05  0.328E-02    1.43       1.0  T
   9   -137.5357774 -0.626432E-04  0.141E-02    1.44       1.0  T
  10   -137.5357814 -0.399831E-05  0.938E-03    1.44       1.1  T
  11   -137.5357823 -0.982470E-06  0.607E-03    1.44       1.7  T
  12   -137.5357832 -0.864971E-06  0.350E-03    1.43       3.0  T
  13   -137.5357834 -0.178358E-06  0.182E-03    1.44       5.8  T
  14   -137.5357835 -0.110395E-06  0.909E-04    1.44      11.6  T
  15   -137.5357835 -0.119177E-07  0.634E-04    1.44      16.6  T

   *** convergence criteria satisfied after 15 iterations ***

         #    Occupation            Energy/Eh            Energy/eV
      -------------------------------------------------------------
         1        2.0000           -0.8203165             -22.3219
       ...           ...                  ...                  ...
       119        2.0000           -0.3861448             -10.5075
       120        2.0000           -0.3843235             -10.4580
       121        2.0000           -0.3772269             -10.2649
       122        2.0000           -0.3729716             -10.1491
       123        2.0000           -0.3587834              -9.7630
       124        2.0000           -0.3551473              -9.6640
       125        1.0000           -0.3192371              -8.6869 (HOMO)
       126                         -0.2664952              -7.2517 (LUMO)
       127                         -0.2615605              -7.1174
       128                         -0.2543992              -6.9226
       129                         -0.2354623              -6.4073
       130                         -0.2233035              -6.0764
       ...                                ...                  ...
       247                          0.7482585              20.3612
      -------------------------------------------------------------
                  HL-Gap            0.0527418 Eh            1.4352 eV
             Fermi-level           -0.3150240 Eh           -8.5722 eV

 SCC (total)                   0 d,  0 h,  0 min,  0.710 sec
 SCC setup                      ...        0 min,  0.000 sec (  0.032%)
 Dispersion                     ...        0 min,  0.001 sec (  0.109%)
 classical contributions        ...        0 min,  0.000 sec (  0.027%)
 integral evaluation            ...        0 min,  0.004 sec (  0.588%)
 iterations                     ...        0 min,  0.681 sec ( 95.831%)
 molecular gradient             ...        0 min,  0.022 sec (  3.090%)
 printout                       ...        0 min,  0.002 sec (  0.322%)

         :::::::::::::::::::::::::::::::::::::::::::::::::::::
         ::                     SUMMARY                     ::
         :::::::::::::::::::::::::::::::::::::::::::::::::::::
         :: total energy            -135.470537668077 Eh    ::
         :: gradient norm              0.061162018911 Eh/a0 ::
         :: HOMO-LUMO gap              1.435178250435 eV    ::
         ::.................................................::
         :: SCC energy              -137.535783514799 Eh    ::
         :: -> isotropic ES            0.112744098231 Eh    ::
         :: -> anisotropic ES          0.011672233507 Eh    ::
         :: -> anisotropic XC          0.045702773676 Eh    ::
         :: -> dispersion             -0.133528226794 Eh    ::
         :: repulsion energy           2.061128352069 Eh    ::
         :: add. restraining           0.000000000000 Eh    ::
         :: total charge              -0.000118809789 e     ::
         :::::::::::::::::::::::::::::::::::::::::::::::::::::

           -------------------------------------------------
          |                Property Printout                |
           -------------------------------------------------

    * Orbital Energies and Occupations

         #    Occupation            Energy/Eh            Energy/eV
      -------------------------------------------------------------
         1        2.0000           -0.8203165             -22.3219
       ...           ...                  ...                  ...
       113        2.0000           -0.4049921             -11.0204
       114        2.0000           -0.4039143             -10.9911
       115        2.0000           -0.3955907             -10.7646
       116        2.0000           -0.3941249             -10.7247
       117        2.0000           -0.3935120             -10.7080
       118        2.0000           -0.3901731             -10.6172
       119        2.0000           -0.3861448             -10.5075
       120        2.0000           -0.3843235             -10.4580
       121        2.0000           -0.3772269             -10.2649
       122        2.0000           -0.3729716             -10.1491
       123        2.0000           -0.3587834              -9.7630
       124        2.0000           -0.3551473              -9.6640
       125        1.0000           -0.3192371              -8.6869 (HOMO)
       126                         -0.2664952              -7.2517 (LUMO)
       127                         -0.2615605              -7.1174
       128                         -0.2543992              -6.9226
       129                         -0.2354623              -6.4073
       130                         -0.2233035              -6.0764
       131                         -0.2036348              -5.5412
       132                         -0.1960912              -5.3359
       133                         -0.1866542              -5.0791
       134                         -0.1856166              -5.0509
       135                         -0.1731615              -4.7120
       136                         -0.1505990              -4.0980
       ...                                ...                  ...
       247                          0.7482585              20.3612
      -------------------------------------------------------------
                  HL-Gap            0.0527418 Eh            1.4352 eV
             Fermi-level           -0.3150240 Eh           -8.5722 eV

     #   Z          covCN         q      C6AA      α(0)
     1   6 C        2.925    -0.040    28.983     8.829
     2   6 C        2.984    -0.038    28.934     8.824
     3   6 C        2.915     0.075    26.318     8.412
     4   6 C        3.001    -0.039    28.959     8.828
     5   6 C        2.984     0.013    27.706     8.634
     6   6 C        2.987     0.011    27.772     8.645
     7   6 C        2.976     0.016    27.644     8.625
     8   6 C        2.986     0.013    27.728     8.638
     9   6 C        2.918    -0.029    28.715     8.787
    10   6 C        2.914    -0.040    28.991     8.829
    11   6 C        3.057    -0.017    28.388     8.738
    12   6 C        3.091     0.050    26.773     8.481
    13   6 C        2.907    -0.046    29.149     8.853
    14   6 C        2.927    -0.036    28.897     8.816
    15   6 C        3.059    -0.021    28.480     8.752
    16   6 C        3.091     0.047    26.836     8.491
    17   6 C        2.979     0.005    27.902     8.665
    18   6 C        2.985     0.003    27.948     8.672
    19   6 C        2.926    -0.039    28.966     8.826
    20   6 C        2.907    -0.049    29.208     8.862
    21   6 C        2.981     0.008    27.838     8.655
    22   6 C        2.987     0.017    27.634     8.623
    23   6 C        2.913    -0.036    28.897     8.815
    24   6 C        2.917    -0.034    28.835     8.806
    25   6 C        2.967     0.009    27.821     8.652
    26   6 C        2.918    -0.040    28.989     8.829
    27   6 C        2.919    -0.034    28.856     8.809
    28   6 C        2.925    -0.042    29.054     8.840
    29   6 C        2.884     0.031    27.302     8.566
    30   6 C        3.883     0.045    19.778     6.323
    31   6 C        3.884     0.043    19.799     6.326
    32   6 C        3.760    -0.113    22.717     6.795
    33   6 C        3.758    -0.112    22.685     6.791
    34   6 C        3.758    -0.112    22.687     6.791
    35   6 C        3.761    -0.114    22.719     6.795
    36  35 Br       1.073    -0.178   189.977    22.224
    37   7 N        2.798    -0.046    22.119     6.985
    38  14 Si       3.502     0.483   100.924    19.435
    39   6 C        3.696    -0.172    24.048     7.015
    40   6 C        3.710     0.091    19.207     6.263
    41   8 O        1.702    -0.322    19.378     5.943
    42   6 C        3.649    -0.210    25.032     7.188
    43   6 C        3.649    -0.208    24.991     7.182
    44   6 C        3.649    -0.207    24.987     7.181
    45   6 C        3.640     0.156    18.404     6.169
    46   7 N        2.809     0.194    18.024     6.306
    47   8 O        0.926    -0.440    22.469     6.357
    48   7 N        2.811     0.200    17.944     6.291
    49   8 O        0.926    -0.430    22.258     6.327
    50   1 H        0.925     0.044     2.399     2.422
    51   1 H        0.925     0.055     2.253     2.347
    52   1 H        0.925     0.066     2.131     2.283
    53   1 H        0.925     0.056     2.250     2.346
    54   1 H        0.925     0.074     2.041     2.234
    55   1 H        0.925     0.047     2.352     2.398
    56   1 H        0.925     0.054     2.270     2.356
    57   1 H        0.925     0.073     2.056     2.243
    58   1 H        0.925     0.048     2.348     2.396
    59   1 H        0.925     0.044     2.394     2.419
    60   1 H        0.925     0.055     2.263     2.352
    61   1 H        0.925     0.068     2.109     2.271
    62   1 H        0.926     0.072     2.064     2.247
    63   1 H        0.926     0.039     2.460     2.453
    64   1 H        0.926     0.077     2.011     2.218
    65   1 H        0.926     0.036     2.509     2.477
    66   1 H        0.926     0.032     2.564     2.504
    67   1 H        0.926     0.034     2.528     2.487
    68   1 H        0.926     0.029     2.595     2.519
    69   1 H        0.923     0.027     2.631     2.537
    70   1 H        0.923     0.027     2.626     2.534
    71   1 H        0.923     0.007     2.935     2.679
    72   1 H        0.923     0.006     2.961     2.691
    73   1 H        0.925     0.041     2.432     2.439
    74   1 H        0.925     0.039     2.460     2.453
    75   1 H        0.925     0.033     2.540     2.492
    76   1 H        0.925     0.041     2.441     2.443
    77   1 H        0.925     0.037     2.486     2.466
    78   1 H        0.925     0.038     2.478     2.462
    79   1 H        0.925     0.032     2.563     2.504
    80   1 H        0.925     0.038     2.473     2.459
    81   1 H        0.925     0.032     2.552     2.498
    82   1 H        0.925     0.038     2.478     2.462
    83   1 H        0.925     0.038     2.469     2.457
    84   1 H        0.926     0.030     2.588     2.516
    85   1 H        0.926     0.034     2.525     2.485
    86   1 H        0.926     0.030     2.589     2.516
    87   1 H        0.926     0.027     2.633     2.538
    88   1 H        0.926     0.034     2.537     2.491
    89   1 H        0.926     0.048     2.351     2.398
    90   1 H        0.926     0.055     2.262     2.352

 Mol. C6AA /au·bohr⁶  :     105382.578720
 Mol. C8AA /au·bohr⁸  :    2785829.766431
 Mol. α(0) /au        :        513.326855


Wiberg/Mayer (AO) data.
largest (>0.10) Wiberg bond orders for each atom

 ---------------------------------------------------------------------------
     #   Z sym  total        # sym  WBO       # sym  WBO       # sym  WBO
 ---------------------------------------------------------------------------
     1   6 C    3.982 --     2 C    1.515     6 C    1.309    88 H    0.966
                             4 C    0.106
     2   6 C    3.980 --     1 C    1.515     3 C    1.334    89 H    0.969
     3   6 C    3.927 --     4 C    1.476     2 C    1.334    36 Br   0.972
     4   6 C    3.989 --     3 C    1.476     5 C    1.319    90 H    0.960
                             1 C    0.106
     5   6 C    3.987 --     4 C    1.319     6 C    1.269     7 C    1.175
     6   6 C    3.987 --     1 C    1.309     5 C    1.269    10 C    1.222
     7   6 C    3.976 --     8 C    1.287    11 C    1.268     5 C    1.175
     8   6 C    3.984 --     7 C    1.287    14 C    1.279     9 C    1.228
     9   6 C    3.982 --    10 C    1.619     8 C    1.228    86 H    0.967
    10   6 C    3.977 --     9 C    1.619     6 C    1.222    87 H    0.967
    11   6 C    3.974 --    12 C    1.281     7 C    1.268    15 C    1.172
    12   6 C    3.948 --    13 C    1.297    11 C    1.281    37 N    1.151
    13   6 C    3.978 --    14 C    1.540    12 C    1.297    84 H    0.964
    14   6 C    3.961 --    13 C    1.540     8 C    1.279    85 H    0.968
    15   6 C    3.974 --    16 C    1.283    17 C    1.267    11 C    1.172
    16   6 C    3.946 --    20 C    1.302    15 C    1.283    37 N    1.144
    17   6 C    3.978 --    18 C    1.290    15 C    1.267    21 C    1.169
    18   6 C    3.984 --    17 C    1.290    19 C    1.284    24 C    1.222
    19   6 C    3.960 --    20 C    1.534    18 C    1.284    67 H    0.968
    20   6 C    3.978 --    19 C    1.534    16 C    1.302    68 H    0.965
    21   6 C    3.987 --    28 C    1.340    22 C    1.265    17 C    1.169
    22   6 C    3.985 --    27 C    1.300    21 C    1.265    23 C    1.224
    23   6 C    3.977 --    24 C    1.622    22 C    1.224    65 H    0.967
    24   6 C    3.974 --    23 C    1.622    18 C    1.222    66 H    0.967
    25   6 C    3.973 --    28 C    1.417    26 C    1.285    29 C    1.095
    26   6 C    3.975 --    27 C    1.542    25 C    1.285    62 H    0.958
    27   6 C    3.983 --    26 C    1.542    22 C    1.300    63 H    0.967
    28   6 C    3.984 --    25 C    1.417    21 C    1.340    64 H    0.950
    29   6 C    3.938 --    46 N    1.239    48 N    1.232    25 C    1.095
                            47 O    0.146    49 O    0.146
    30   6 C    3.968 --    33 C    0.998    32 C    0.981    31 C    0.960
                            46 N    0.912
    31   6 C    3.968 --    34 C    0.999    35 C    0.979    30 C    0.960
                            48 N    0.912
    32   6 C    3.989 --    59 H    0.983    30 C    0.981    60 H    0.981
                            61 H    0.977
    33   6 C    3.989 --    30 C    0.998    58 H    0.982    56 H    0.981
                            57 H    0.978
    34   6 C    3.988 --    31 C    0.999    55 H    0.982    53 H    0.981
                            54 H    0.978
    35   6 C    3.990 --    50 H    0.984    51 H    0.981    52 H    0.980
                            31 C    0.979
    36  35 Br   1.095 --     3 C    0.972
    37   7 N    3.551 --    12 C    1.151    16 C    1.144    45 C    1.003
    38  14 Si   3.618 --    44 C    0.903    43 C    0.901    42 C    0.897
                            39 C    0.841
    39   6 C    3.966 --    40 C    1.026    74 H    0.982    73 H    0.981
                            38 Si   0.841
    40   6 C    3.943 --    39 C    1.026    71 H    0.972    72 H    0.972
                            41 O    0.960
    41   8 O    2.067 --    45 C    0.985    40 C    0.960
    42   6 C    3.980 --    79 H    0.991    80 H    0.987    78 H    0.987
                            38 Si   0.897
    43   6 C    3.981 --    82 H    0.987    81 H    0.987    83 H    0.986
                            38 Si   0.901
    44   6 C    3.982 --    77 H    0.987    75 H    0.986    76 H    0.985
                            38 Si   0.903
    45   6 C    3.956 --    37 N    1.003    41 O    0.985    69 H    0.955
                            70 H    0.954
    46   7 N    3.708 --    47 O    1.317    29 C    1.239    30 C    0.912
    47   8 O    1.762 --    46 N    1.317    29 C    0.146
    48   7 N    3.709 --    49 O    1.328    29 C    1.232    31 C    0.912
    49   8 O    1.769 --    48 N    1.328    29 C    0.146
    50   1 H    0.998 --    35 C    0.984
    51   1 H    0.996 --    35 C    0.981
    52   1 H    0.995 --    35 C    0.980
    53   1 H    0.997 --    34 C    0.981
    54   1 H    0.994 --    34 C    0.978
    55   1 H    0.997 --    34 C    0.982
    56   1 H    0.997 --    33 C    0.981
    57   1 H    0.994 --    33 C    0.978
    58   1 H    0.997 --    33 C    0.982
    59   1 H    0.998 --    32 C    0.983
    60   1 H    0.996 --    32 C    0.981
    61   1 H    0.995 --    32 C    0.977
    62   1 H    0.994 --    26 C    0.958
    63   1 H    0.997 --    27 C    0.967
    64   1 H    0.994 --    28 C    0.950
    65   1 H    0.997 --    23 C    0.967
    66   1 H    0.998 --    24 C    0.967
    67   1 H    0.998 --    19 C    0.968
    68   1 H    0.998 --    20 C    0.965
    69   1 H    0.998 --    45 C    0.955
    70   1 H    0.998 --    45 C    0.954
    71   1 H    1.000 --    40 C    0.972
    72   1 H    1.000 --    40 C    0.972
    73   1 H    0.998 --    39 C    0.981
    74   1 H    0.998 --    39 C    0.982
    75   1 H    0.999 --    44 C    0.986
    76   1 H    0.998 --    44 C    0.985
    77   1 H    0.999 --    44 C    0.987
    78   1 H    0.999 --    42 C    0.987
    79   1 H    0.999 --    42 C    0.991
    80   1 H    0.999 --    42 C    0.987
Note: The following floating-point exceptions are signalling: IEEE_UNDERFLOW_FLAG
normal termination of xtb
    81   1 H    0.999 --    43 C    0.987
    82   1 H    0.999 --    43 C    0.987
    83   1 H    0.999 --    43 C    0.986
    84   1 H    0.998 --    13 C    0.964
    85   1 H    0.998 --    14 C    0.968
    86   1 H    0.998 --     9 C    0.967
    87   1 H    0.998 --    10 C    0.967
    88   1 H    0.998 --     1 C    0.966
    89   1 H    0.997 --     2 C    0.969
    90   1 H    0.997 --     4 C    0.960
 ---------------------------------------------------------------------------

Topologies differ in bond orders
Writing corrected topology to xtbtopo.mol

molecular dipole:
                 x           y           z       tot (Debye)
 q only:        1.096       2.383       0.153
   full:        1.313       3.171      -0.116       8.728
molecular quadrupole (traceless):
                xx          xy          yy          xz          yz          zz
 q only:        8.285     -21.900     -14.786      24.046     -13.890       6.500
  q+dip:       19.619     -29.095     -15.054      24.846     -11.724      -4.565
   full:       15.983     -27.732     -19.957      20.730     -14.488       3.974


           -------------------------------------------------
          | TOTAL ENERGY             -135.470537668077 Eh   |
          | GRADIENT NORM               0.061162018911 Eh/α |
          | HOMO-LUMO GAP               1.435178250435 eV   |
           -------------------------------------------------
########################################################################
[WARNING] Runtime exception occurred
-2- restart_readRestart: Multiplicity missmatch in restart file.
-1- restart_readRestart: Number of electron missmatch in restart file.
########################################################################

------------------------------------------------------------------------
 * finished run on 2024/11/14 at 11:21:57.175     
------------------------------------------------------------------------
 total:
 * wall-time:     0 d,  0 h,  0 min,  0.722 sec
 *  cpu-time:     0 d,  0 h,  0 min,  2.572 sec
 * ratio c/w:     3.564 speedup
 SCF:
 * wall-time:     0 d,  0 h,  0 min,  0.711 sec
 *  cpu-time:     0 d,  0 h,  0 min,  2.549 sec
 * ratio c/w:     3.587 speedup

