      -----------------------------------------------------------      
     |                   =====================                   |     
     |                           x T B                           |     
     |                   =====================                   |     
     |                         S. Grimme                         |     
     |          Mulliken Center for Theoretical Chemistry        |     
     |                    University of Bonn                     |     
      -----------------------------------------------------------      

   * xtb version 6.6.1 (8d0f1dd) compiled by 'runner@Mac-1690902418499.local' on 2023-08-01

   xtb is free software: you can redistribute it and/or modify it under
   the terms of the GNU Lesser General Public License as published by
   the Free Software Foundation, either version 3 of the License, or
   (at your option) any later version.
   
   xtb is distributed in the hope that it will be useful,
   but WITHOUT ANY WARRANTY; without even the implied warranty of
   MERCHANTABILITY or FITNESS FOR A PARTICULAR PURPOSE.  See the
   GNU Lesser General Public License for more details.
   
   Cite this work as:
   * C. Bannwarth, E. Caldeweyher, S. Ehlert, A. Hansen, P. Pracht,
     J. Seibert, S. Spicher, S. Grimme, WIREs Comput. Mol. Sci., 2020, 11,
     e01493. DOI: 10.1002/wcms.1493
   
   for GFN2-xTB:
   * C. Bannwarth, S. Ehlert and S. Grimme., J. Chem. Theory Comput., 2019,
     15, 1652-1671. DOI: 10.1021/acs.jctc.8b01176
   for GFN1-xTB:
   * S. Grimme, C. Bannwarth, P. Shushkov, J. Chem. Theory Comput., 2017,
     13, 1989-2009. DOI: 10.1021/acs.jctc.7b00118
   for GFN0-xTB:
   * P. Pracht, E. Caldeweyher, S. Ehlert, S. Grimme, ChemRxiv, 2019, preprint.
     DOI: 10.26434/chemrxiv.8326202.v1
   for GFN-FF:
   * S. Spicher and S. Grimme, Angew. Chem. Int. Ed., 2020, 59, 15665-15673.
     DOI: 10.1002/anie.202004239
   
   for ALPB and GBSA implicit solvation:
   * S. Ehlert, M. Stahn, S. Spicher, S. Grimme, J. Chem. Theory Comput.,
     2021, 17, 4250-4261. DOI: 10.1021/acs.jctc.1c00471
   
   for DFT-D4:
   * E. Caldeweyher, C. Bannwarth and S. Grimme, J. Chem. Phys., 2017,
     147, 034112. DOI: 10.1063/1.4993215
   * E. Caldeweyher, S. Ehlert, A. Hansen, H. Neugebauer, S. Spicher,
     C. Bannwarth and S. Grimme, J. Chem. Phys., 2019, 150, 154122.
     DOI: 10.1063/1.5090222
   * E. Caldeweyher, J.-M. Mewes, S. Ehlert and S. Grimme, Phys. Chem. Chem. Phys.
     2020, 22, 8499-8512. DOI: 10.1039/D0CP00502A
   
   for sTDA-xTB:
   * S. Grimme and C. Bannwarth, J. Chem. Phys., 2016, 145, 054103.
     DOI: 10.1063/1.4959605
   
   in the mass-spec context:
   * V. Asgeirsson, C. Bauer and S. Grimme, Chem. Sci., 2017, 8, 4879.
     DOI: 10.1039/c7sc00601b
   * J. Koopman and S. Grimme, ACS Omega 2019, 4, 12, 15120-15133.
     DOI: 10.1021/acsomega.9b02011
   
   for metadynamics refer to:
   * S. Grimme, J. Chem. Theory Comput., 2019, 155, 2847-2862
     DOI: 10.1021/acs.jctc.9b00143
   
   for SPH calculations refer to:
   * S. Spicher and S. Grimme, J. Chem. Theory Comput., 2021, 17, 1701-1714
     DOI: 10.1021/acs.jctc.0c01306
   
   with help from (in alphabetical order)
   P. Atkinson, C. Bannwarth, F. Bohle, G. Brandenburg, E. Caldeweyher
   M. Checinski, S. Dohm, S. Ehlert, S. Ehrlich, I. Gerasimov, C. Hölzer
   A. Katbashev, J. Koopman, C. Lavigne, S. Lehtola, F. März, M. Müller,
   F. Musil, H. Neugebauer, J. Pisarek, C. Plett, P. Pracht, F. Pultar,
   J. Seibert, P. Shushkov, S. Spicher, M. Stahn, M. Steiner, T. Strunk,
   J. Stückrath, T. Rose, and J. Unsleber
   
 * started run on 2024/11/14 at 11:24:34.568     

           -------------------------------------------------
          |                Calculation Setup                |
           -------------------------------------------------

          program call               : xtb stacked_dimer_Nitro4.mol --opt --gfn2 --chrg 0 --uhf 1 --tight
          coordinate file            : stacked_dimer_Nitro4.mol
          omp threads                :                     8

   ID    Z sym.   atoms
    1    6 C      1-35, 39, 40, 42-45, 91-125, 129, 130, 132-135
    2   35 Br     36, 126
    3    7 N      37, 46, 48, 127, 136, 138
    4   14 Si     38, 128
    5    8 O      41, 47, 49, 131, 137, 139
    6    1 H      50-90, 140-180
########################################################################
[WARNING] Please study the warnings concerning your input carefully
-1- prog_main_parseArguments: Unknown option '--tight' provided
########################################################################

           -------------------------------------------------
          |                 G F N 2 - x T B                 |
           -------------------------------------------------

        Reference                      10.1021/acs.jctc.8b01176
      * Hamiltonian:
        H0-scaling (s, p, d)           1.850000    2.230000    2.230000
        zeta-weighting                 0.500000
      * Dispersion:
        s8                             2.700000
        a1                             0.520000
        a2                             5.000000
        s9                             5.000000
      * Repulsion:
        kExp                           1.500000    1.000000
        rExp                           1.000000
      * Coulomb:
        alpha                          2.000000
        third order                    shell-resolved
        anisotropic                    true
        a3                             3.000000
        a5                             4.000000
        cn-shift                       1.200000
        cn-exp                         4.000000
        max-rad                        5.000000


          ...................................................
          :                      SETUP                      :
          :.................................................:
          :  # basis functions                 498          :
          :  # atomic orbitals                 494          :
          :  # shells                          282          :
          :  # electrons                       498          :
          :  max. iterations                   250          :
          :  Hamiltonian                  GFN2-xTB          :
          :  restarted?                      false          :
          :  GBSA solvation                  false          :
          :  PC potential                    false          :
          :  electronic temp.          300.0000000     K    :
          :  accuracy                    1.0000000          :
          :  -> integral cutoff          0.2500000E+02      :
          :  -> integral neglect         0.1000000E-07      :
          :  -> SCF convergence          0.1000000E-05 Eh   :
          :  -> wf. convergence          0.1000000E-03 e    :
          :  Broyden damping             0.4000000          :
          ...................................................

 iter      E             dE          RMSdq      gap      omega  full diag
   1   -273.9621586 -0.273962E+03  0.422E+00    0.06       0.0  T
   2   -274.3463514 -0.384193E+00  0.266E+00    1.61       1.0  T
   3   -273.7179379  0.628414E+00  0.197E+00    0.04       1.0  T
   4   -274.3750126 -0.657075E+00  0.119E+00    1.40       1.0  T
   5   -274.5136200 -0.138607E+00  0.926E-01    0.83       1.0  T
   6   -274.5563410 -0.427210E-01  0.779E-01    0.30       1.0  T
   7   -274.5622291 -0.588818E-02  0.814E-01    0.49       1.0  T
   8   -274.7069742 -0.144745E+00  0.442E-01    0.07       1.0  T
   9   -274.5582939  0.148680E+00  0.748E-01    0.27       1.0  T
  10   -274.6685837 -0.110290E+00  0.528E-01    0.10       1.0  T
  11   -274.5821996  0.863841E-01  0.705E-01    0.18       1.0  T
  12   -274.7785863 -0.196387E+00  0.564E-02    0.01       1.0  T
  13   -274.7052692  0.733171E-01  0.429E-01    0.07       1.0  T
  14   -274.7374138 -0.321446E-01  0.319E-01    0.05       1.0  T
  15   -274.7482594 -0.108456E-01  0.276E-01    0.04       1.0  T
  16   -274.7624188 -0.141594E-01  0.204E-01    0.03       1.0  T
  17   -274.7763003 -0.138815E-01  0.886E-02    0.01       1.0  T
  18   -274.7792581 -0.295780E-02  0.263E-02    0.01       1.0  T
  19   -274.7793998 -0.141691E-03  0.180E-02    0.00       1.0  T
  20   -274.7792540  0.145841E-03  0.260E-02    0.00       1.0  T
  21   -274.7795241 -0.270052E-03  0.481E-03    0.00       1.5  T
  22   -274.7795222  0.186703E-05  0.528E-03    0.00       1.4  T
  23   -274.7795332 -0.110094E-04  0.921E-04    0.00       8.1  T
  24   -274.7795335 -0.283447E-06  0.359E-04    0.00      20.8  T
  25   -274.7795333  0.148954E-06  0.702E-04    0.00      10.6  T

   *** convergence criteria satisfied after 25 iterations ***

         #    Occupation            Energy/Eh            Energy/eV
      -------------------------------------------------------------
         1        2.0000           -0.8174764             -22.2447
       ...           ...                  ...                  ...
       243        2.0000           -0.3731432             -10.1537
       244        2.0000           -0.3610799              -9.8255
       245        2.0000           -0.3603095              -9.8045
       246        2.0000           -0.3596907              -9.7877
       247        2.0000           -0.3561974              -9.6926
       248        2.0000           -0.3489236              -9.4947
       249        1.0172           -0.3228835              -8.7861 (HOMO)
       250        0.9828           -0.3228182              -8.7843 (LUMO)
       251                         -0.2668436              -7.2612
       252                         -0.2647018              -7.2029
       253                         -0.2629035              -7.1540
       254                         -0.2619327              -7.1276
       ...                                ...                  ...
       494                          0.7480212              20.3547
      -------------------------------------------------------------
                  HL-Gap            0.0000653 Eh            0.0018 eV
             Fermi-level           -0.3228509 Eh           -8.7852 eV

 SCC (total)                   0 d,  0 h,  0 min,  3.700 sec
 SCC setup                      ...        0 min,  0.001 sec (  0.032%)
 Dispersion                     ...        0 min,  0.004 sec (  0.117%)
 classical contributions        ...        0 min,  0.001 sec (  0.020%)
 integral evaluation            ...        0 min,  0.016 sec (  0.443%)
 iterations                     ...        0 min,  3.512 sec ( 94.929%)
 molecular gradient             ...        0 min,  0.121 sec (  3.259%)
 printout                       ...        0 min,  0.044 sec (  1.199%)

         :::::::::::::::::::::::::::::::::::::::::::::::::::::
         ::                     SUMMARY                     ::
         :::::::::::::::::::::::::::::::::::::::::::::::::::::
         :: total energy            -270.611260957504 Eh    ::
         :: gradient norm              0.294616659486 Eh/a0 ::
         :: HOMO-LUMO gap              0.001775646221 eV    ::
         ::.................................................::
         :: SCC energy              -274.779533326861 Eh    ::
         :: -> isotropic ES            0.243281639029 Eh    ::
         :: -> anisotropic ES          0.026318630029 Eh    ::
         :: -> anisotropic XC          0.096429409015 Eh    ::
         :: -> dispersion             -0.293659741725 Eh    ::
         :: repulsion energy           4.147812114285 Eh    ::
         :: add. restraining           0.000000000000 Eh    ::
         :: total charge               0.000000000002 e     ::
         :::::::::::::::::::::::::::::::::::::::::::::::::::::

      ----------------------------------------------------------- 
     |                   =====================                   |
     |                        A N C O P T                        |
     |                   =====================                   |
     |               Approximate Normal Coordinate               |
     |                Rational Function Optimizer                |
      ----------------------------------------------------------- 

          ...................................................
          :                      SETUP                      :
          :.................................................:
          :   optimization level            normal          :
          :   max. optcycles                   540          :
          :   ANC micro-cycles                  20          :
          :   degrees of freedom               534          :
          :.................................................:
          :   RF solver                   davidson          :
          :   write xtbopt.log                true          :
          :   linear?                        false          :
          :   energy convergence         0.5000000E-05 Eh   :
          :   grad. convergence          0.1000000E-02 Eh/α :
          :   maxmium RF displ.          1.0000000          :
          :   Hlow (freq-cutoff)         0.1000000E-01      :
          :   Hmax (freq-cutoff)         5.0000000          :
          :   S6 in model hess.         20.0000000          :
          ...................................................

generating ANC from model Hessian ...
Using Lindh-Hessian (1995)
 Shifting diagonal of input Hessian by    1.0010411576092466E-002
 Lowest  eigenvalues of input Hessian
    0.010000    0.000000    0.000000    0.000000    0.000000    0.000000
    0.000000    0.010027    0.010050    0.010082    0.010092    0.010101
    0.010133    0.010221    0.010257    0.010347    0.010424    0.010496
 Highest eigenvalues
    2.176591    2.189577    2.209106    2.209166    2.395769    2.395931


........................................................................
.............................. CYCLE    1 ..............................
........................................................................

 iter      E             dE          RMSdq      gap      omega  full diag
   1   -274.7795335 -0.274780E+03  0.243E-04    0.00       0.0  T
   2   -274.7794881  0.454242E-04  0.105E-02    0.00       1.0  T
   3   -274.7795335 -0.454411E-04  0.130E-04    0.00      57.2  T
   4   -274.7795335 -0.641762E-08  0.338E-05    0.00     220.8  T
   5   -274.7795335  0.208615E-10  0.336E-05    0.00     221.8  T
     SCC iter.                  ...        0 min,  0.746 sec
     gradient                   ...        0 min,  0.114 sec
 * total energy  :  -270.6112612 Eh     change       -0.2010913E-06 Eh
   gradient norm :     0.2946163 Eh/α   predicted     0.0000000E+00 (-100.00%)
   displ. norm   :     0.7084699 α      lambda       -0.1804424E+00
   maximum displ.:     0.1629516 α      in ANC's #313, #133, #151, ...

........................................................................
.............................. CYCLE    2 ..............................
........................................................................

 iter      E             dE          RMSdq      gap      omega  full diag
   1   -274.9245964 -0.274925E+03  0.262E-01    0.01       0.0  T
   2   -274.7094517  0.215145E+00  0.767E-01    0.43       1.0  T
   3   -274.7833701 -0.739184E-01  0.618E-01    0.11       1.0  T
   4   -274.7644467  0.189234E-01  0.650E-01    0.15       1.0  T
   5   -274.9251071 -0.160660E+00  0.109E-01    0.01       1.0  T
   6   -274.9101132  0.149938E-01  0.215E-01    0.03       1.0  T
   7   -274.9170108 -0.689754E-02  0.170E-01    0.03       1.0  T
   8   -274.9211414 -0.413065E-02  0.136E-01    0.02       1.0  T
   9   -274.9265821 -0.544070E-02  0.715E-02    0.01       1.0  T
  10   -274.9271411 -0.558963E-03  0.607E-02    0.01       1.0  T
  11   -274.9284880 -0.134692E-02  0.190E-02    0.00       1.0  T
  12   -274.9285804 -0.924328E-04  0.114E-02    0.00       1.0  T
  13   -274.9286303 -0.499197E-04  0.271E-03    0.00       2.7  T
  14   -274.9286325 -0.211128E-05  0.143E-03    0.00       5.2  T
  15   -274.9286328 -0.350734E-06  0.107E-03    0.00       7.0  T
  16   -274.9286332 -0.407271E-06  0.362E-04    0.00      20.6  T
  17   -274.9286332 -0.287505E-07  0.245E-04    0.00      30.4  T
     SCC iter.                  ...        0 min,  1.928 sec
     gradient                   ...        0 min,  0.117 sec
 * total energy  :  -270.7485503 Eh     change       -0.1372891E+00 Eh
   gradient norm :     0.1646721 Eh/α   predicted    -0.1355233E+00 (  -1.29%)
   displ. norm   :     0.6353583 α      lambda       -0.9173599E-01
   maximum displ.:     0.1383696 α      in ANC's #133, #109, #151, ...

........................................................................
.............................. CYCLE    3 ..............................
........................................................................

 iter      E             dE          RMSdq      gap      omega  full diag
   1   -275.0057721 -0.275006E+03  0.173E-01    0.01       0.0  T
   2   -274.7933040  0.212468E+00  0.744E-01    0.38       1.0  T
   3   -274.9648420 -0.171538E+00  0.339E-01    0.05       1.0  T
   4   -274.9017023  0.631397E-01  0.518E-01    0.10       1.0  T
   5   -274.9819638 -0.802615E-01  0.256E-01    0.04       1.0  T
   6   -275.0053527 -0.233889E-01  0.847E-02    0.01       1.0  T
   7   -275.0080821 -0.272934E-02  0.157E-02    0.00       1.0  T
   8   -275.0073832  0.698833E-03  0.438E-02    0.00       1.0  T
   9   -275.0074810 -0.977904E-04  0.409E-02    0.01       1.0  T
  10   -275.0077001 -0.219056E-03  0.336E-02    0.00       1.0  T
  11   -275.0081355 -0.435444E-03  0.754E-03    0.00       1.0  T
  12   -275.0081541 -0.185367E-04  0.324E-03    0.00       2.3  T
  13   -275.0081575 -0.339594E-05  0.138E-03    0.00       5.4  T
  14   -275.0081581 -0.657119E-06  0.525E-04    0.00      14.2  T
  15   -275.0081582 -0.102441E-06  0.106E-04    0.00      70.5  T
     SCC iter.                  ...        0 min,  1.594 sec
     gradient                   ...        0 min,  0.119 sec
 * total energy  :  -270.8196089 Eh     change       -0.7105863E-01 Eh
   gradient norm :     0.0930211 Eh/α   predicted    -0.6438404E-01 (  -9.39%)
   displ. norm   :     0.6794578 α      lambda       -0.5393364E-01
   maximum displ.:     0.1765556 α      in ANC's #109, #133, #75, ...

........................................................................
.............................. CYCLE    4 ..............................
........................................................................

 iter      E             dE          RMSdq      gap      omega  full diag
   1   -275.0484093 -0.275048E+03  0.132E-01    0.01       0.0  T
   2   -274.8337557  0.214654E+00  0.749E-01    0.46       1.0  T
   3   -275.0507112 -0.216956E+00  0.640E-02    0.00       1.0  T
   4   -275.0507069  0.429636E-05  0.395E-02    0.00       1.0  T
   5   -275.0492645  0.144246E-02  0.655E-02    0.01       1.0  T
   6   -275.0409282  0.833627E-02  0.157E-01    0.03       1.0  T
   7   -275.0421438 -0.121564E-02  0.147E-01    0.02       1.0  T
   8   -275.0491394 -0.699557E-02  0.668E-02    0.01       1.0  T
   9   -275.0509335 -0.179409E-02  0.645E-03    0.00       1.2  T
  10   -275.0509244  0.912449E-05  0.795E-03    0.00       1.0  T
  11   -275.0509495 -0.250966E-04  0.105E-03    0.00       7.1  T
  12   -275.0509372  0.122360E-04  0.556E-03    0.00       1.3  T
  13   -275.0509494 -0.121169E-04  0.107E-03    0.00       7.0  T
  14   -275.0509497 -0.351300E-06  0.522E-04    0.00      14.3  T
  15   -275.0509498 -0.106246E-06  0.880E-05    0.00      84.7  T
     SCC iter.                  ...        0 min,  1.715 sec
     gradient                   ...        0 min,  0.117 sec
 * total energy  :  -270.8633060 Eh     change       -0.4369713E-01 Eh
   gradient norm :     0.0554557 Eh/α   predicted    -0.3941651E-01 (  -9.80%)
   displ. norm   :     0.7161461 α      lambda       -0.3494118E-01
   maximum displ.:     0.1867971 α      in ANC's #109, #75, #133, ...

........................................................................
.............................. CYCLE    5 ..............................
........................................................................

 iter      E             dE          RMSdq      gap      omega  full diag
   1   -275.0712328 -0.275071E+03  0.127E-01    0.01       0.0  T
   2   -274.8542909  0.216942E+00  0.758E-01    0.54       1.0  T
   3   -275.0657142 -0.211423E+00  0.155E-01    0.02       1.0  T
   4   -274.8777593  0.187955E+00  0.700E-01    0.17       1.0  T
   5   -275.0224039 -0.144645E+00  0.360E-01    0.06       1.0  T
   6   -275.0702050 -0.478011E-01  0.102E-01    0.01       1.0  T
   7   -275.0702201 -0.150752E-04  0.101E-01    0.02       1.0  T
   8   -275.0669898  0.323031E-02  0.135E-01    0.02       1.0  T
   9   -275.0724999 -0.551014E-02  0.683E-02    0.01       1.0  T
  10   -275.0743918 -0.189188E-02  0.540E-03    0.00       1.4  T
  11   -275.0744013 -0.955207E-05  0.223E-03    0.00       3.3  T
  12   -275.0743743  0.270816E-04  0.842E-03    0.00       1.0  T
  13   -275.0744024 -0.281396E-04  0.129E-03    0.00       5.8  T
  14   -275.0744024  0.225760E-07  0.130E-03    0.00       5.7  T
  15   -275.0744025 -0.132580E-06  0.116E-03    0.00       6.4  T
  16   -275.0744030 -0.497576E-06  0.358E-04    0.00      20.8  T
  17   -275.0744030  0.399381E-07  0.474E-04    0.00      15.7  T
     SCC iter.                  ...        0 min,  2.108 sec
     gradient                   ...        0 min,  0.115 sec
 * total energy  :  -270.8915287 Eh     change       -0.2822271E-01 Eh
   gradient norm :     0.0330514 Eh/α   predicted    -0.2643096E-01 (  -6.35%)
   displ. norm   :     0.7316210 α      lambda       -0.2193670E-01
   maximum displ.:     0.2100944 α      in ANC's #58, #75, #109, ...

........................................................................
.............................. CYCLE    6 ..............................
........................................................................

 iter      E             dE          RMSdq      gap      omega  full diag
   1   -275.0852644 -0.275085E+03  0.963E-02    0.00       0.0  T
   2   -274.8812430  0.204021E+00  0.718E-01    0.25       1.0  T
   3   -275.0829097 -0.201667E+00  0.100E-01    0.01       1.0  T
   4   -275.0775096  0.540016E-02  0.146E-01    0.02       1.0  T
   5   -275.0836938 -0.618424E-02  0.758E-02    0.01       1.0  T
   6   -275.0859186 -0.222476E-02  0.118E-02    0.00       1.0  T
   7   -275.0858336  0.849510E-04  0.177E-02    0.00       1.0  T
   8   -275.0857238  0.109809E-03  0.240E-02    0.00       1.0  T
   9   -275.0858278 -0.104017E-03  0.180E-02    0.00       1.0  T
  10   -275.0859477 -0.119872E-03  0.509E-03    0.00       1.5  T
  11   -275.0859292  0.185195E-04  0.845E-03    0.00       1.0  T
  12   -275.0859530 -0.238513E-04  0.362E-03    0.00       2.1  T
  13   -275.0859582 -0.518280E-05  0.559E-04    0.00      13.3  T
  14   -275.0859574  0.774781E-06  0.148E-03    0.00       5.0  T
  15   -275.0859582 -0.755900E-06  0.596E-04    0.00      12.5  T
  16   -275.0859583 -0.141112E-06  0.836E-05    0.00      89.1  T
     SCC iter.                  ...        0 min,  1.959 sec
     gradient                   ...        0 min,  0.113 sec
 * total energy  :  -270.9095045 Eh     change       -0.1797577E-01 Eh
   gradient norm :     0.0225551 Eh/α   predicted    -0.1683937E-01 (  -6.32%)
   displ. norm   :     0.7427779 α      lambda       -0.1445396E-01
   maximum displ.:     0.2516593 α      in ANC's #58, #75, #97, ...

........................................................................
.............................. CYCLE    7 ..............................
........................................................................

 iter      E             dE          RMSdq      gap      omega  full diag
   1   -275.0918341 -0.275092E+03  0.818E-02    0.00       0.0  T
   2   -275.0106923  0.811418E-01  0.449E-01    0.07       1.0  T
   3   -275.0599211 -0.492288E-01  0.285E-01    0.04       1.0  T
   4   -275.0908400 -0.309189E-01  0.531E-02    0.01       1.0  T
   5   -275.0918414 -0.100148E-02  0.167E-02    0.00       1.0  T
   6   -275.0919235 -0.820941E-04  0.670E-03    0.00       1.1  T
   7   -275.0918799  0.436306E-04  0.112E-02    0.00       1.0  T
   8   -275.0919245 -0.446214E-04  0.358E-03    0.00       2.1  T
   9   -275.0919287 -0.421967E-05  0.112E-03    0.00       6.7  T
  10   -275.0919288 -0.487237E-07  0.670E-04    0.00      11.1  T
  11   -275.0919287  0.123618E-06  0.818E-04    0.00       9.1  T
     SCC iter.                  ...        0 min,  1.381 sec
     gradient                   ...        0 min,  0.115 sec
 * total energy  :  -270.9214576 Eh     change       -0.1195311E-01 Eh
   gradient norm :     0.0171522 Eh/α   predicted    -0.1121425E-01 (  -6.18%)
   displ. norm   :     0.7537937 α      lambda       -0.9889797E-02
   maximum displ.:     0.2724203 α      in ANC's #58, #75, #77, ...

........................................................................
.............................. CYCLE    8 ..............................
........................................................................

 iter      E             dE          RMSdq      gap      omega  full diag
   1   -275.0933147 -0.275093E+03  0.976E-02    0.01       0.0  T
   2   -274.8605447  0.232770E+00  0.773E-01    0.40       1.0  T
   3   -275.0949755 -0.234431E+00  0.432E-02    0.00       1.0  T
   4   -275.0874520  0.752358E-02  0.139E-01    0.02       1.0  T
   5   -275.0883125 -0.860500E-03  0.129E-01    0.02       1.0  T
   6   -275.0894900 -0.117759E-02  0.117E-01    0.02       1.0  T
   7   -275.0912269 -0.173682E-02  0.964E-02    0.01       1.0  T
   8   -275.0937300 -0.250319E-02  0.561E-02    0.01       1.0  T
   9   -275.0950073 -0.127721E-02  0.330E-03    0.00       2.3  T
  10   -275.0950106 -0.334970E-05  0.106E-03    0.00       7.0  T
  11   -275.0949963  0.142839E-04  0.598E-03    0.00       1.2  T
  12   -275.0950109 -0.145315E-04  0.248E-04    0.00      30.0  T
  13   -275.0950108  0.978170E-07  0.518E-04    0.00      14.4  T
  14   -275.0950109 -0.104218E-06  0.677E-05    0.00     110.2  T
     SCC iter.                  ...        0 min,  1.756 sec
     gradient                   ...        0 min,  0.118 sec
 * total energy  :  -270.9297343 Eh     change       -0.8276647E-02 Eh
   gradient norm :     0.0135151 Eh/α   predicted    -0.7754617E-02 (  -6.31%)
   displ. norm   :     0.7695940 α      lambda       -0.7113457E-02
   maximum displ.:     0.2721184 α      in ANC's #58, #75, #21, ...

........................................................................
.............................. CYCLE    9 ..............................
........................................................................

 iter      E             dE          RMSdq      gap      omega  full diag
   1   -275.0959920 -0.275096E+03  0.801E-02    0.01       0.0  T
   2   -274.8697234  0.226269E+00  0.754E-01    0.27       1.0  T
   3   -275.0946426 -0.224919E+00  0.817E-02    0.01       1.0  T
   4   -275.0865366  0.810599E-02  0.158E-01    0.02       1.0  T
   5   -275.0894912 -0.295462E-02  0.134E-01    0.02       1.0  T
   6   -275.0951789 -0.568774E-02  0.629E-02    0.01       1.0  T
   7   -275.0967082 -0.152927E-02  0.134E-02    0.00       1.0  T
   8   -275.0966069  0.101248E-03  0.202E-02    0.01       1.0  T
   9   -275.0966261 -0.191616E-04  0.190E-02    0.00       1.0  T
  10   -275.0967526 -0.126474E-03  0.735E-03    0.00       1.0  T
  11   -275.0967740 -0.214276E-04  0.102E-03    0.00       7.3  T
  12   -275.0967742 -0.218803E-06  0.684E-04    0.00      10.9  T
  13   -275.0967744 -0.178473E-06  0.141E-04    0.00      52.9  T
     SCC iter.                  ...        0 min,  1.522 sec
     gradient                   ...        0 min,  0.117 sec
 * total energy  :  -270.9357819 Eh     change       -0.6047665E-02 Eh
   gradient norm :     0.0103754 Eh/α   predicted    -0.5663291E-02 (  -6.36%)
   displ. norm   :     0.7888529 α      lambda       -0.5415282E-02
   maximum displ.:     0.2548324 α      in ANC's #58, #21, #9, ...

........................................................................
.............................. CYCLE   10 ..............................
........................................................................

 iter      E             dE          RMSdq      gap      omega  full diag
   1   -275.0975176 -0.275098E+03  0.702E-02    0.01       0.0  T
   2   -274.8873635  0.210154E+00  0.721E-01    0.19       1.0  T
   3   -275.0944376 -0.207074E+00  0.990E-02    0.02       1.0  T
   4   -275.0913453  0.309228E-02  0.127E-01    0.02       1.0  T
   5   -275.0969728 -0.562746E-02  0.487E-02    0.01       1.0  T
   6   -275.0979265 -0.953766E-03  0.536E-03    0.00       1.4  T
   7   -275.0977549  0.171613E-03  0.208E-02    0.00       1.0  T
   8   -275.0978844 -0.129467E-03  0.109E-02    0.00       1.0  T
   9   -275.0979285 -0.440604E-04  0.293E-03    0.00       2.5  T
  10   -275.0979124  0.160149E-04  0.684E-03    0.00       1.1  T
  11   -275.0979216 -0.919011E-05  0.498E-03    0.00       1.5  T
  12   -275.0979318 -0.101366E-04  0.305E-04    0.00      24.5  T
  13   -275.0979313  0.479181E-06  0.112E-03    0.00       6.7  T
  14   -275.0979316 -0.316044E-06  0.698E-04    0.00      10.7  T
  15   -275.0979318 -0.176987E-06  0.225E-04    0.00      33.1  T
     SCC iter.                  ...        0 min,  1.606 sec
     gradient                   ...        0 min,  0.110 sec
 * total energy  :  -270.9404634 Eh     change       -0.4681443E-02 Eh
   gradient norm :     0.0082799 Eh/α   predicted    -0.4392576E-02 (  -6.17%)
   displ. norm   :     0.8062501 α      lambda       -0.4328507E-02
   maximum displ.:     0.2308104 α      in ANC's #21, #58, #9, ...

........................................................................
.............................. CYCLE   11 ..............................
........................................................................

 iter      E             dE          RMSdq      gap      omega  full diag
   1   -275.0986683 -0.275099E+03  0.614E-02    0.00       0.0  T
   2   -274.9768829  0.121785E+00  0.546E-01    0.09       1.0  T
   3   -275.0919385 -0.115056E+00  0.133E-01    0.02       1.0  T
   4   -275.0979631 -0.602468E-02  0.453E-02    0.00       1.0  T
   5   -275.0987734 -0.810251E-03  0.606E-03    0.00       1.2  T
   6   -275.0987770 -0.362785E-05  0.370E-03    0.00       2.0  T
   7   -275.0987758  0.123892E-05  0.320E-03    0.00       2.3  T
   8   -275.0987773 -0.152691E-05  0.163E-03    0.00       4.6  T
   9   -275.0987771  0.202359E-06  0.146E-03    0.00       5.1  T
  10   -275.0987778 -0.655673E-06  0.347E-04    0.00      21.5  T
  11   -275.0987774  0.336194E-06  0.929E-04    0.00       8.0  T
     SCC iter.                  ...        0 min,  0.914 sec
     gradient                   ...        0 min,  0.113 sec
 * total energy  :  -270.9442514 Eh     change       -0.3788070E-02 Eh
   gradient norm :     0.0072864 Eh/α   predicted    -0.3571104E-02 (  -5.73%)
   displ. norm   :     0.8156398 α      lambda       -0.3546136E-02
   maximum displ.:     0.2509485 α      in ANC's #21, #9, #10, ...

........................................................................
.............................. CYCLE   12 ..............................
........................................................................

 iter      E             dE          RMSdq      gap      omega  full diag
   1   -275.0993712 -0.275099E+03  0.587E-02    0.00       0.0  T
   2   -274.9802602  0.119111E+00  0.539E-01    0.09       1.0  T
   3   -275.0939955 -0.113735E+00  0.120E-01    0.02       1.0  T
   4   -275.0988059 -0.481040E-02  0.410E-02    0.00       1.0  T
   5   -275.0994697 -0.663796E-03  0.555E-03    0.00       1.3  T
   6   -275.0994732 -0.356027E-05  0.336E-03    0.00       2.2  T
   7   -275.0994715  0.178445E-05  0.333E-03    0.00       2.2  T
   8   -275.0994744 -0.290700E-05  0.129E-03    0.00       5.8  T
   9   -275.0994742  0.155464E-06  0.115E-03    0.00       6.5  T
  10   -275.0994746 -0.356600E-06  0.363E-04    0.00      20.5  T
  11   -275.0994743  0.264315E-06  0.835E-04    0.00       8.9  T
     SCC iter.                  ...        0 min,  1.010 sec
     gradient                   ...        0 min,  0.113 sec
 * total energy  :  -270.9473679 Eh     change       -0.3116465E-02 Eh
   gradient norm :     0.0065585 Eh/α   predicted    -0.2952638E-02 (  -5.26%)
   displ. norm   :     0.8150869 α      lambda       -0.2896301E-02
   maximum displ.:     0.2612179 α      in ANC's #21, #10, #9, ...

........................................................................
.............................. CYCLE   13 ..............................
........................................................................

 iter      E             dE          RMSdq      gap      omega  full diag
   1   -275.1001288 -0.275100E+03  0.546E-02    0.00       0.0  T
   2   -275.0971605  0.296832E-02  0.906E-02    0.01       1.0  T
   3   -274.9959062  0.101254E+00  0.503E-01    0.08       1.0  T
   4   -275.0998993 -0.103993E+00  0.251E-02    0.00       1.0  T
   5   -275.1001245 -0.225152E-03  0.698E-03    0.00       1.1  T
   6   -275.1001388 -0.142895E-04  0.258E-03    0.00       2.9  T
   7   -275.1001382  0.533276E-06  0.212E-03    0.00       3.5  T
   8   -275.1001387 -0.485563E-06  0.137E-03    0.00       5.5  T
   9   -275.1001381  0.649024E-06  0.172E-03    0.00       4.3  T
  10   -275.1001392 -0.112799E-05  0.261E-04    0.00      28.6  T
  11   -275.1001392  0.337507E-07  0.355E-04    0.00      21.0  T
  12   -275.1001392 -0.458702E-07  0.933E-05    0.00      79.9  T
     SCC iter.                  ...        0 min,  1.463 sec
     gradient                   ...        0 min,  0.116 sec
 * total energy  :  -270.9499048 Eh     change       -0.2536896E-02 Eh
   gradient norm :     0.0056445 Eh/α   predicted    -0.2410261E-02 (  -4.99%)
   displ. norm   :     0.8068361 α      lambda       -0.2318742E-02
   maximum displ.:     0.2605599 α      in ANC's #21, #10, #9, ...

........................................................................
.............................. CYCLE   14 ..............................
........................................................................

 iter      E             dE          RMSdq      gap      omega  full diag
   1   -275.1004648 -0.275100E+03  0.588E-02    0.00       0.0  T
   2   -274.9195118  0.180953E+00  0.665E-01    0.17       1.0  T
   3   -275.1000955 -0.180584E+00  0.500E-02    0.00       1.0  T
   4   -275.0998129  0.282579E-03  0.486E-02    0.01       1.0  T
   5   -275.1006094 -0.796497E-03  0.200E-02    0.00       1.0  T
   6   -275.1007594 -0.149986E-03  0.549E-03    0.00       1.4  T
   7   -275.1007455  0.139287E-04  0.789E-03    0.00       1.0  T
   8   -275.1007691 -0.236326E-04  0.182E-03    0.00       4.1  T
   9   -275.1007663  0.285020E-05  0.314E-03    0.00       2.4  T
  10   -275.1007675 -0.121065E-05  0.263E-03    0.00       2.8  T
  11   -275.1007691 -0.161310E-05  0.170E-03    0.00       4.4  T
  12   -275.1007697 -0.650782E-06  0.116E-03    0.00       6.4  T
  13   -275.1007701 -0.382636E-06  0.655E-04    0.00      11.4  T
  14   -275.1007703 -0.144907E-06  0.271E-04    0.00      27.5  T
     SCC iter.                  ...        0 min,  2.467 sec
     gradient                   ...        0 min,  0.121 sec
 * total energy  :  -270.9519213 Eh     change       -0.2016551E-02 Eh
   gradient norm :     0.0047180 Eh/α   predicted    -0.1914111E-02 (  -5.08%)
   displ. norm   :     0.7932648 α      lambda       -0.1818927E-02
   maximum displ.:     0.2704921 α      in ANC's #10, #21, #11, ...

........................................................................
.............................. CYCLE   15 ..............................
........................................................................

 iter      E             dE          RMSdq      gap      omega  full diag
   1   -275.1011957 -0.275101E+03  0.545E-02    0.00       0.0  T
   2   -274.9467440  0.154452E+00  0.612E-01    0.14       1.0  T
   3   -275.1004178 -0.153674E+00  0.560E-02    0.00       1.0  T
   4   -275.1007720 -0.354274E-03  0.391E-02    0.01       1.0  T
   5   -275.1013738 -0.601767E-03  0.585E-03    0.00       1.3  T
   6   -275.1013707  0.313529E-05  0.570E-03    0.00       1.3  T
   7   -275.1013819 -0.111896E-04  0.190E-03    0.00       3.9  T
   8   -275.1013718  0.100790E-04  0.513E-03    0.00       1.5  T
   9   -275.1013820 -0.102748E-04  0.124E-03    0.00       6.0  T
  10   -275.1013821 -0.808881E-07  0.109E-03    0.00       6.8  T
  11   -275.1013816  0.499327E-06  0.153E-03    0.00       4.9  T
  12   -275.1013826 -0.974606E-06  0.832E-05    0.00      89.5  T
  13   -275.1013825  0.893357E-07  0.464E-04    0.00      16.1  T
     SCC iter.                  ...        0 min,  1.281 sec
     gradient                   ...        0 min,  0.114 sec
 * total energy  :  -270.9534945 Eh     change       -0.1573150E-02 Eh
   gradient norm :     0.0040717 Eh/α   predicted    -0.1481772E-02 (  -5.81%)
   displ. norm   :     0.7793303 α      lambda       -0.1426077E-02
   maximum displ.:     0.2770856 α      in ANC's #10, #11, #21, ...

........................................................................
.............................. CYCLE   16 ..............................
........................................................................

 iter      E             dE          RMSdq      gap      omega  full diag
   1   -275.1013507 -0.275101E+03  0.608E-02    0.00       0.0  T
   2   -274.8985566  0.202794E+00  0.706E-01    0.24       1.0  T
   3   -275.1018673 -0.203311E+00  0.307E-02    0.00       1.0  T
   4   -275.1005097  0.135757E-02  0.592E-02    0.01       1.0  T
   5   -275.1017623 -0.125255E-02  0.205E-02    0.01       1.0  T
   6   -275.1018770 -0.114759E-03  0.111E-02    0.00       1.0  T
   7   -275.1018569  0.200930E-04  0.130E-02    0.00       1.0  T
   8   -275.1018719 -0.149921E-04  0.116E-02    0.00       1.0  T
   9   -275.1019268 -0.548462E-04  0.903E-04    0.00       8.3  T
  10   -275.1019260  0.804884E-06  0.160E-03    0.00       4.7  T
  11   -275.1019233  0.264320E-05  0.298E-03    0.00       2.5  T
  12   -275.1019269 -0.355147E-05  0.602E-04    0.00      12.4  T
  13   -275.1019270 -0.139874E-06  0.139E-04    0.00      53.8  T
  14   -275.1019269  0.738236E-07  0.441E-04    0.00      16.9  T
     SCC iter.                  ...        0 min,  1.799 sec
     gradient                   ...        0 min,  0.148 sec
 * total energy  :  -270.9547262 Eh     change       -0.1231698E-02 Eh
   gradient norm :     0.0037945 Eh/α   predicted    -0.1146123E-02 (  -6.95%)
   displ. norm   :     0.7670071 α      lambda       -0.1142228E-02
   maximum displ.:     0.2803999 α      in ANC's #10, #1, #11, ...

........................................................................
.............................. CYCLE   17 ..............................
........................................................................

 iter      E             dE          RMSdq      gap      omega  full diag
   1   -275.1024323 -0.275102E+03  0.490E-02    0.00       0.0  T
   2   -275.0114620  0.909703E-01  0.469E-01    0.08       1.0  T
   3   -275.1010259 -0.895639E-01  0.653E-02    0.01       1.0  T
   4   -275.1023585 -0.133253E-02  0.199E-02    0.01       1.0  T
   5   -275.1024953 -0.136832E-03  0.548E-03    0.00       1.4  T
   6   -275.1025038 -0.853279E-05  0.188E-03    0.00       4.0  T
   7   -275.1025027  0.113902E-05  0.217E-03    0.00       3.4  T
   8   -275.1025027 -0.258389E-07  0.194E-03    0.00       3.8  T
   9   -275.1025040 -0.125697E-05  0.765E-04    0.00       9.7  T
  10   -275.1025040 -0.751814E-07  0.556E-04    0.00      13.4  T
  11   -275.1025041 -0.883667E-07  0.265E-04    0.00      28.1  T
     SCC iter.                  ...        0 min,  1.960 sec
     gradient                   ...        0 min,  0.115 sec
 * total energy  :  -270.9557152 Eh     change       -0.9890569E-03 Eh
   gradient norm :     0.0036142 Eh/α   predicted    -0.9071080E-03 (  -8.29%)
   displ. norm   :     0.7566318 α      lambda       -0.9455392E-03
   maximum displ.:     0.2803049 α      in ANC's #10, #1, #11, ...

........................................................................
.............................. CYCLE   18 ..............................
........................................................................

 iter      E             dE          RMSdq      gap      omega  full diag
   1   -275.1026570 -0.275103E+03  0.562E-02    0.00       0.0  T
   2   -274.9082793  0.194378E+00  0.688E-01    0.20       1.0  T
   3   -275.1030593 -0.194780E+00  0.278E-02    0.00       1.0  T
   4   -275.1027967  0.262596E-03  0.266E-02    0.00       1.0  T
   5   -275.1030594 -0.262688E-03  0.537E-03    0.00       1.4  T
   6   -275.1030230  0.364610E-04  0.105E-02    0.00       1.0  T
   7   -275.1030559 -0.329140E-04  0.544E-03    0.00       1.4  T
   8   -275.1030671 -0.112292E-04  0.126E-03    0.00       5.9  T
   9   -275.1030652  0.185718E-05  0.243E-03    0.00       3.1  T
  10   -275.1030653 -0.972253E-07  0.238E-03    0.00       3.1  T
  11   -275.1030676 -0.229873E-05  0.282E-04    0.00      26.5  T
  12   -275.1030673  0.295959E-06  0.886E-04    0.00       8.4  T
  13   -275.1030673  0.780116E-07  0.986E-04    0.00       7.6  T
     SCC iter.                  ...        0 min,  1.340 sec
     gradient                   ...        0 min,  0.120 sec
 * total energy  :  -270.9565343 Eh     change       -0.8190509E-03 Eh
   gradient norm :     0.0033244 Eh/α   predicted    -0.7434270E-03 (  -9.23%)
   displ. norm   :     0.7450825 α      lambda       -0.7978424E-03
   maximum displ.:     0.2759260 α      in ANC's #10, #1, #11, ...

........................................................................
.............................. CYCLE   19 ..............................
........................................................................

 iter      E             dE          RMSdq      gap      omega  full diag
   1   -275.1031800 -0.275103E+03  0.600E-02    0.00       0.0  T
   2   -274.8990122  0.204168E+00  0.707E-01    0.24       1.0  T
   3   -275.1035782 -0.204566E+00  0.349E-02    0.01       1.0  T
   4   -275.1010692  0.250902E-02  0.810E-02    0.01       1.0  T
   5   -275.1032415 -0.217232E-02  0.358E-02    0.01       1.0  T
   6   -275.1037365 -0.495017E-03  0.783E-03    0.00       1.0  T
   7   -275.1037361  0.414070E-06  0.787E-03    0.00       1.0  T
   8   -275.1037375 -0.142428E-05  0.766E-03    0.00       1.0  T
   9   -275.1037615 -0.240025E-04  0.675E-04    0.00      11.1  T
  10   -275.1037615  0.398820E-07  0.675E-04    0.00      11.0  T
  11   -275.1037606  0.848451E-06  0.157E-03    0.00       4.7  T
  12   -275.1037615 -0.835469E-06  0.686E-04    0.00      10.9  T
     SCC iter.                  ...        0 min,  1.314 sec
     gradient                   ...        0 min,  0.111 sec
 * total energy  :  -270.9572219 Eh     change       -0.6876526E-03 Eh
   gradient norm :     0.0030017 Eh/α   predicted    -0.6203834E-03 (  -9.78%)
   displ. norm   :     0.7283021 α      lambda       -0.6637781E-03
   maximum displ.:     0.2867374 α      in ANC's #1, #10, #14, ...

........................................................................
.............................. CYCLE   20 ..............................
........................................................................

 iter      E             dE          RMSdq      gap      omega  full diag
   1   -275.1038360 -0.275104E+03  0.492E-02    0.00       0.0  T
   2   -275.0131299  0.907061E-01  0.467E-01    0.08       1.0  T
   3   -275.1021879 -0.890581E-01  0.693E-02    0.01       1.0  T
   4   -275.1034449 -0.125698E-02  0.334E-02    0.01       1.0  T
   5   -275.1039043 -0.459365E-03  0.291E-03    0.00       2.6  T
   6   -275.1039053 -0.101991E-05  0.172E-03    0.00       4.3  T
   7   -275.1039057 -0.420656E-06  0.112E-03    0.00       6.6  T
   8   -275.1039052  0.543517E-06  0.137E-03    0.00       5.4  T
   9   -275.1039058 -0.608255E-06  0.508E-04    0.00      14.7  T
  10   -275.1039058 -0.619564E-07  0.198E-04    0.00      37.6  T
     SCC iter.                  ...        0 min,  1.056 sec
     gradient                   ...        0 min,  0.108 sec
 * total energy  :  -270.9577865 Eh     change       -0.5645932E-03 Eh
   gradient norm :     0.0027061 Eh/α   predicted    -0.5079349E-03 ( -10.04%)
   displ. norm   :     0.6980691 α      lambda       -0.5392954E-03
   maximum displ.:     0.2935084 α      in ANC's #1, #10, #14, ...
 * RMSD in coord.:     0.9160885 α      energy gain  -0.3465256E+00 Eh

generating ANC from model Hessian ...
Using Lindh-Hessian (1995)
 Shifting diagonal of input Hessian by    1.0041409498025015E-002
 Lowest  eigenvalues of input Hessian
    0.010000    0.010024    0.010036    0.000000    0.000000    0.000000
    0.000000    0.000000    0.000000    0.010042    0.010074    0.010081
    0.010105    0.010126    0.010129    0.010153    0.010247    0.010301
 Highest eigenvalues
    2.176417    2.177685    2.201937    2.209794    2.385582    2.400166


........................................................................
.............................. CYCLE   21 ..............................
........................................................................

 iter      E             dE          RMSdq      gap      omega  full diag
   1   -275.1052251 -0.275105E+03  0.464E-02    0.00       0.0  T
   2   -275.0976652  0.755992E-02  0.137E-01    0.02       1.0  T
   3   -275.0719074  0.257578E-01  0.283E-01    0.05       1.0  T
   4   -275.1050692 -0.331618E-01  0.202E-02    0.01       1.0  T
   5   -275.1052316 -0.162448E-03  0.217E-03    0.00       3.4  T
   6   -275.1052323 -0.669801E-06  0.123E-03    0.00       6.0  T
   7   -275.1052325 -0.145617E-06  0.796E-04    0.00       9.4  T
   8   -275.1052324  0.916748E-08  0.590E-04    0.00      12.6  T
     SCC iter.                  ...        0 min,  1.026 sec
     gradient                   ...        0 min,  0.120 sec
 * total energy  :  -270.9582280 Eh     change       -0.4414804E-03 Eh
   gradient norm :     0.0038948 Eh/α   predicted     0.0000000E+00 (-100.00%)
   displ. norm   :     0.0889959 α      lambda       -0.1288217E-03
   maximum displ.:     0.0290106 α      in ANC's #3, #1, #20, ...

........................................................................
.............................. CYCLE   22 ..............................
........................................................................

 iter      E             dE          RMSdq      gap      omega  full diag
   1   -275.1053720 -0.275105E+03  0.110E-02    0.00       0.0  T
   2   -275.0875069  0.178651E-01  0.206E-01    0.03       1.0  T
   3   -275.1053304 -0.178236E-01  0.124E-02    0.00       1.0  T
   4   -275.1053698 -0.393455E-04  0.567E-03    0.00       1.3  T
   5   -275.1053783 -0.853003E-05  0.300E-03    0.00       2.5  T
   6   -275.1053812 -0.293047E-05  0.131E-03    0.00       5.7  T
   7   -275.1053816 -0.418987E-06  0.624E-04    0.00      11.9  T
   8   -275.1053817 -0.854349E-07  0.226E-04    0.00      33.0  T
     SCC iter.                  ...        0 min,  0.952 sec
     gradient                   ...        0 min,  0.136 sec
 * total energy  :  -270.9583391 Eh     change       -0.1110494E-03 Eh
   gradient norm :     0.0016992 Eh/α   predicted    -0.6503723E-04 ( -41.43%)
   displ. norm   :     0.5178602 α      lambda       -0.3540001E-03
   maximum displ.:     0.1711470 α      in ANC's #3, #1, #20, ...

........................................................................
.............................. CYCLE   23 ..............................
........................................................................

 iter      E             dE          RMSdq      gap      omega  full diag
   1   -275.1047873 -0.275105E+03  0.458E-02    0.00       0.0  T
   2   -275.1045656  0.221703E-03  0.354E-02    0.00       1.0  T
   3   -274.9407099  0.163856E+00  0.627E-01    0.14       1.0  T
   4   -275.1036555 -0.162946E+00  0.519E-02    0.01       1.0  T
   5   -275.1046798 -0.102431E-02  0.167E-02    0.00       1.0  T
   6   -275.1047822 -0.102359E-03  0.549E-03    0.00       1.4  T
   7   -275.1047748  0.736928E-05  0.651E-03    0.00       1.1  T
   8   -275.1047886 -0.137984E-04  0.285E-03    0.00       2.6  T
   9   -275.1047912 -0.262285E-05  0.117E-03    0.00       6.4  T
  10   -275.1047902  0.101964E-05  0.191E-03    0.00       3.9  T
  11   -275.1047914 -0.123220E-05  0.861E-04    0.00       8.7  T
  12   -275.1047917 -0.307436E-06  0.823E-05    0.00      90.6  T
  13   -275.1047916  0.120996E-06  0.538E-04    0.00      13.9  T
     SCC iter.                  ...        0 min,  1.194 sec
     gradient                   ...        0 min,  0.112 sec
 * total energy  :  -270.9586392 Eh     change       -0.3000892E-03 Eh
   gradient norm :     0.0071455 Eh/α   predicted    -0.1981053E-03 ( -33.98%)
   displ. norm   :     0.2012431 α      lambda       -0.1585155E-03
   maximum displ.:     0.0736510 α      in ANC's #3, #1, #11, ...

........................................................................
.............................. CYCLE   24 ..............................
........................................................................

 iter      E             dE          RMSdq      gap      omega  full diag
   1   -275.1049049 -0.275105E+03  0.166E-02    0.00       0.0  T
   2   -275.0558401  0.490648E-01  0.342E-01    0.06       1.0  T
   3   -275.1048718 -0.490317E-01  0.147E-02    0.00       1.0  T
   4   -275.1048752 -0.340027E-05  0.121E-02    0.00       1.0  T
   5   -275.1049113 -0.360516E-04  0.747E-03    0.00       1.0  T
   6   -275.1049347 -0.234268E-04  0.764E-04    0.00       9.8  T
   7   -275.1049343  0.408952E-06  0.117E-03    0.00       6.3  T
   8   -275.1049347 -0.423293E-06  0.502E-04    0.00      14.9  T
   9   -275.1049348 -0.787668E-07  0.178E-04    0.00      42.0  T
     SCC iter.                  ...        0 min,  1.080 sec
     gradient                   ...        0 min,  0.116 sec
 * total energy  :  -270.9587836 Eh     change       -0.1444776E-03 Eh
   gradient norm :     0.0060097 Eh/α   predicted    -0.8247030E-04 ( -42.92%)
   displ. norm   :     0.5185911 α      lambda       -0.4144923E-03
   maximum displ.:     0.1959278 α      in ANC's #3, #1, #11, ...

........................................................................
.............................. CYCLE   25 ..............................
........................................................................

 iter      E             dE          RMSdq      gap      omega  full diag
   1   -275.1042918 -0.275104E+03  0.520E-02    0.00       0.0  T
   2   -274.8985291  0.205763E+00  0.708E-01    0.24       1.0  T
   3   -275.1047340 -0.206205E+00  0.284E-02    0.01       1.0  T
   4   -275.1040431  0.690917E-03  0.460E-02    0.00       1.0  T
   5   -275.1048689 -0.825807E-03  0.707E-03    0.00       1.1  T
   6   -275.1047849  0.840519E-04  0.154E-02    0.00       1.0  T
   7   -275.1046289  0.156009E-03  0.247E-02    0.00       1.0  T
   8   -275.1048798 -0.250987E-03  0.330E-03    0.00       2.3  T
   9   -275.1048836 -0.371742E-05  0.124E-03    0.00       6.0  T
  10   -275.1048788  0.477098E-05  0.357E-03    0.00       2.1  T
  11   -275.1048804 -0.159087E-05  0.300E-03    0.00       2.5  T
  12   -275.1048840 -0.361796E-05  0.632E-04    0.00      11.8  T
  13   -275.1048842 -0.163385E-06  0.728E-05    0.00     102.4  T
  14   -275.1048842  0.140477E-08  0.865E-05    0.00      86.1  T
     SCC iter.                  ...        0 min,  1.449 sec
     gradient                   ...        0 min,  0.114 sec
 * total energy  :  -270.9590957 Eh     change       -0.3120189E-03 Eh
   gradient norm :     0.0020418 Eh/α   predicted    -0.2630459E-03 ( -15.70%)
   displ. norm   :     0.4965538 α      lambda       -0.2310745E-03
   maximum displ.:     0.1949033 α      in ANC's #3, #1, #11, ...

........................................................................
.............................. CYCLE   26 ..............................
........................................................................

 iter      E             dE          RMSdq      gap      omega  full diag
   1   -275.1040333 -0.275104E+03  0.333E-02    0.00       0.0  T
   2   -275.0909080  0.131253E-01  0.178E-01    0.03       1.0  T
   3   -275.0989345 -0.802654E-02  0.112E-01    0.01       1.0  T
   4   -275.1037122 -0.477775E-02  0.280E-02    0.01       1.0  T
   5   -275.1040405 -0.328282E-03  0.278E-03    0.00       2.7  T
   6   -275.1040421 -0.158535E-05  0.158E-03    0.00       4.7  T
   7   -275.1040424 -0.295425E-06  0.970E-04    0.00       7.7  T
   8   -275.1040425 -0.841787E-07  0.487E-04    0.00      15.3  T
     SCC iter.                  ...        0 min,  1.204 sec
     gradient                   ...        0 min,  0.120 sec
 * total energy  :  -270.9592755 Eh     change       -0.1798333E-03 Eh
   gradient norm :     0.0023517 Eh/α   predicted    -0.1440321E-03 ( -19.91%)
   displ. norm   :     0.4601805 α      lambda       -0.1762480E-03
   maximum displ.:     0.1872302 α      in ANC's #3, #1, #11, ...

........................................................................
.............................. CYCLE   27 ..............................
........................................................................

 iter      E             dE          RMSdq      gap      omega  full diag
   1   -275.1039955 -0.275104E+03  0.316E-02    0.00       0.0  T
   2   -275.0371946  0.668009E-01  0.399E-01    0.06       1.0  T
   3   -275.1030802 -0.658855E-01  0.510E-02    0.01       1.0  T
   4   -275.1040250 -0.944822E-03  0.721E-03    0.00       1.0  T
   5   -275.1040152  0.976768E-05  0.754E-03    0.00       1.0  T
   6   -275.1040375 -0.223081E-04  0.152E-03    0.00       4.9  T
   7   -275.1040375 -0.717318E-08  0.122E-03    0.00       6.1  T
   8   -275.1040374  0.113622E-06  0.104E-03    0.00       7.1  T
   9   -275.1040378 -0.376767E-06  0.299E-04    0.00      24.9  T
  10   -275.1040377  0.627288E-07  0.438E-04    0.00      17.0  T
     SCC iter.                  ...        0 min,  1.321 sec
     gradient                   ...        0 min,  0.120 sec
 * total energy  :  -270.9594244 Eh     change       -0.1489378E-03 Eh
   gradient norm :     0.0025424 Eh/α   predicted    -0.1067916E-03 ( -28.30%)
   displ. norm   :     0.5033881 α      lambda       -0.2054007E-03
   maximum displ.:     0.2108413 α      in ANC's #3, #1, #5, ...

........................................................................
.............................. CYCLE   28 ..............................
........................................................................

 iter      E             dE          RMSdq      gap      omega  full diag
   1   -275.1048022 -0.275105E+03  0.374E-02    0.00       0.0  T
   2   -274.9639355  0.140867E+00  0.580E-01    0.11       1.0  T
   3   -275.1041956 -0.140260E+00  0.460E-02    0.01       1.0  T
   4   -275.1048522 -0.656598E-03  0.145E-02    0.00       1.0  T
   5   -275.1049020 -0.497691E-04  0.787E-03    0.00       1.0  T
   6   -275.1049182 -0.162031E-04  0.444E-03    0.00       1.7  T
   7   -275.1049254 -0.719812E-05  0.139E-03    0.00       5.4  T
   8   -275.1049192  0.619428E-05  0.399E-03    0.00       1.9  T
   9   -275.1049257 -0.648007E-05  0.728E-04    0.00      10.2  T
  10   -275.1049252  0.469354E-06  0.126E-03    0.00       5.9  T
  11   -275.1049259 -0.665442E-06  0.735E-05    0.00     101.4  T
  12   -275.1049258  0.678750E-08  0.138E-04    0.00      53.8  T
     SCC iter.                  ...        0 min,  1.188 sec
     gradient                   ...        0 min,  0.109 sec
 * total energy  :  -270.9596014 Eh     change       -0.1770182E-03 Eh
   gradient norm :     0.0026331 Eh/α   predicted    -0.1287254E-03 ( -27.28%)
   displ. norm   :     0.5624261 α      lambda       -0.2408671E-03
   maximum displ.:     0.2403751 α      in ANC's #3, #1, #5, ...

........................................................................
.............................. CYCLE   29 ..............................
........................................................................

 iter      E             dE          RMSdq      gap      omega  full diag
   1   -275.1058803 -0.275106E+03  0.391E-02    0.00       0.0  T
   2   -275.0799994  0.258809E-01  0.249E-01    0.04       1.0  T
   3   -275.1022200 -0.222206E-01  0.957E-02    0.01       1.0  T
   4   -275.1056477 -0.342776E-02  0.247E-02    0.01       1.0  T
   5   -275.1058962 -0.248472E-03  0.225E-03    0.00       3.3  T
   6   -275.1058964 -0.155000E-06  0.173E-03    0.00       4.3  T
   7   -275.1058971 -0.737790E-06  0.782E-04    0.00       9.5  T
   8   -275.1058971 -0.317877E-07  0.437E-04    0.00      17.0  T
     SCC iter.                  ...        0 min,  1.144 sec
     gradient                   ...        0 min,  0.115 sec
 * total energy  :  -270.9598056 Eh     change       -0.2041237E-03 Eh
   gradient norm :     0.0029021 Eh/α   predicted    -0.1585356E-03 ( -22.33%)
   displ. norm   :     0.5759292 α      lambda       -0.2403343E-03
   maximum displ.:     0.2494622 α      in ANC's #3, #1, #5, ...

........................................................................
.............................. CYCLE   30 ..............................
........................................................................

 iter      E             dE          RMSdq      gap      omega  full diag
   1   -275.1062490 -0.275106E+03  0.445E-02    0.00       0.0  T
   2   -274.9851919  0.121057E+00  0.538E-01    0.10       1.0  T
   3   -275.1056997 -0.120508E+00  0.459E-02    0.00       1.0  T
   4   -275.1056404  0.593429E-04  0.413E-02    0.01       1.0  T
   5   -275.1063401 -0.699707E-03  0.657E-03    0.00       1.1  T
   6   -275.1063441 -0.397602E-05  0.543E-03    0.00       1.4  T
   7   -275.1063560 -0.118948E-04  0.107E-03    0.00       6.9  T
   8   -275.1063553  0.624747E-06  0.151E-03    0.00       4.9  T
   9   -275.1063562 -0.825635E-06  0.478E-04    0.00      15.6  T
  10   -275.1063562 -0.559942E-07  0.207E-04    0.00      35.9  T
     SCC iter.                  ...        0 min,  0.940 sec
     gradient                   ...        0 min,  0.112 sec
 * total energy  :  -270.9600062 Eh     change       -0.2005858E-03 Eh
   gradient norm :     0.0028629 Eh/α   predicted    -0.1600264E-03 ( -20.22%)
   displ. norm   :     0.5670229 α      lambda       -0.2240923E-03
   maximum displ.:     0.2481043 α      in ANC's #3, #1, #5, ...

........................................................................
.............................. CYCLE   31 ..............................
........................................................................

 iter      E             dE          RMSdq      gap      omega  full diag
   1   -275.1059822 -0.275106E+03  0.467E-02    0.00       0.0  T
   2   -274.9539095  0.152073E+00  0.603E-01    0.13       1.0  T
   3   -275.1056890 -0.151779E+00  0.408E-02    0.00       1.0  T
   4   -275.1052062  0.482756E-03  0.473E-02    0.01       1.0  T
   5   -275.1060308 -0.824590E-03  0.170E-02    0.00       1.0  T
   6   -275.1061324 -0.101616E-03  0.672E-03    0.00       1.1  T
   7   -275.1061490 -0.165702E-04  0.244E-03    0.00       3.1  T
   8   -275.1061509 -0.187131E-05  0.108E-03    0.00       6.9  T
   9   -275.1061507  0.185710E-06  0.122E-03    0.00       6.1  T
  10   -275.1061500  0.630084E-06  0.171E-03    0.00       4.4  T
  11   -275.1061513 -0.122491E-05  0.179E-04    0.00      41.8  T
  12   -275.1061512  0.342094E-07  0.330E-04    0.00      22.6  T
  13   -275.1061513 -0.373219E-07  0.143E-04    0.00      52.0  T
     SCC iter.                  ...        0 min,  1.313 sec
     gradient                   ...        0 min,  0.111 sec
 * total energy  :  -270.9601959 Eh     change       -0.1897062E-03 Eh
   gradient norm :     0.0024170 Eh/α   predicted    -0.1480710E-03 ( -21.95%)
   displ. norm   :     0.5759000 α      lambda       -0.2337092E-03
   maximum displ.:     0.2532220 α      in ANC's #3, #1, #5, ...

........................................................................
.............................. CYCLE   32 ..............................
........................................................................

 iter      E             dE          RMSdq      gap      omega  full diag
   1   -275.1056828 -0.275106E+03  0.471E-02    0.00       0.0  T
   2   -274.9643784  0.141304E+00  0.581E-01    0.12       1.0  T
   3   -275.1051086 -0.140730E+00  0.478E-02    0.00       1.0  T
   4   -275.1046862  0.422401E-03  0.519E-02    0.01       1.0  T
   5   -275.1057175 -0.103127E-02  0.161E-02    0.00       1.0  T
   6   -275.1058068 -0.893861E-04  0.688E-03    0.00       1.1  T
   7   -275.1058249 -0.180535E-04  0.214E-03    0.00       3.5  T
   8   -275.1058242  0.665923E-06  0.238E-03    0.00       3.1  T
   9   -275.1058251 -0.901667E-06  0.185E-03    0.00       4.0  T
  10   -275.1058260 -0.853963E-06  0.117E-03    0.00       6.4  T
  11   -275.1058265 -0.518653E-06  0.356E-04    0.00      20.9  T
  12   -275.1058265 -0.345153E-07  0.206E-04    0.00      36.2  T
     SCC iter.                  ...        0 min,  1.412 sec
     gradient                   ...        0 min,  0.125 sec
 * total energy  :  -270.9603996 Eh     change       -0.2036900E-03 Eh
   gradient norm :     0.0022107 Eh/α   predicted    -0.1556139E-03 ( -23.60%)
   displ. norm   :     0.6210078 α      lambda       -0.2783510E-03
   maximum displ.:     0.2721765 α      in ANC's #3, #1, #5, ...

........................................................................
.............................. CYCLE   33 ..............................
........................................................................

 iter      E             dE          RMSdq      gap      omega  full diag
   1   -275.1053933 -0.275105E+03  0.490E-02    0.00       0.0  T
   2   -274.9791615  0.126232E+00  0.549E-01    0.11       1.0  T
   3   -275.1042354 -0.125074E+00  0.605E-02    0.01       1.0  T
   4   -275.1040702  0.165131E-03  0.583E-02    0.01       1.0  T
   5   -275.1054599 -0.138970E-02  0.110E-02    0.00       1.0  T
   6   -275.1054911 -0.311414E-04  0.671E-03    0.00       1.1  T
   7   -275.1055072 -0.161582E-04  0.255E-03    0.00       2.9  T
   8   -275.1055055  0.173962E-05  0.317E-03    0.00       2.3  T
   9   -275.1055075 -0.204681E-05  0.225E-03    0.00       3.3  T
  10   -275.1055096 -0.206818E-05  0.332E-04    0.00      22.4  T
  11   -275.1055096  0.184386E-07  0.370E-04    0.00      20.2  T
  12   -275.1055096 -0.554990E-07  0.573E-05    0.00     130.0  T
     SCC iter.                  ...        0 min,  1.106 sec
     gradient                   ...        0 min,  0.124 sec
 * total energy  :  -270.9606453 Eh     change       -0.2457508E-03 Eh
   gradient norm :     0.0030314 Eh/α   predicted    -0.1928489E-03 ( -21.53%)
   displ. norm   :     0.6670161 α      lambda       -0.3267723E-03
   maximum displ.:     0.2899899 α      in ANC's #3, #1, #5, ...

........................................................................
.............................. CYCLE   34 ..............................
........................................................................

 iter      E             dE          RMSdq      gap      omega  full diag
   1   -275.1053371 -0.275105E+03  0.493E-02    0.00       0.0  T
   2   -275.0520083  0.533288E-01  0.356E-01    0.05       1.0  T
   3   -275.0977973 -0.457890E-01  0.137E-01    0.02       1.0  T
   4   -275.1053095 -0.751213E-02  0.135E-02    0.00       1.0  T
   5   -275.1053634 -0.539306E-04  0.523E-03    0.00       1.4  T
   6   -275.1053715 -0.809754E-05  0.212E-03    0.00       3.5  T
   7   -275.1053712  0.251668E-06  0.201E-03    0.00       3.7  T
   8   -275.1053726 -0.138792E-05  0.654E-04    0.00      11.4  T
   9   -275.1053725  0.161096E-06  0.764E-04    0.00       9.8  T
  10   -275.1053726 -0.145293E-06  0.353E-04    0.00      21.1  T
     SCC iter.                  ...        0 min,  0.907 sec
     gradient                   ...        0 min,  0.112 sec
 * total energy  :  -270.9609315 Eh     change       -0.2862397E-03 Eh
   gradient norm :     0.0041467 Eh/α   predicted    -0.2360788E-03 ( -17.52%)
   displ. norm   :     0.6912311 α      lambda       -0.3465264E-03
   maximum displ.:     0.3013110 α      in ANC's #3, #1, #5, ...

........................................................................
.............................. CYCLE   35 ..............................
........................................................................

 iter      E             dE          RMSdq      gap      omega  full diag
   1   -275.1046825 -0.275105E+03  0.607E-02    0.01       0.0  T
   2   -274.8819283  0.222754E+00  0.732E-01    0.23       1.0  T
   3   -275.1047351 -0.222807E+00  0.439E-02    0.01       1.0  T
   4   -275.1048399 -0.104801E-03  0.310E-02    0.00       1.0  T
   5   -275.1050303 -0.190491E-03  0.217E-02    0.01       1.0  T
   6   -275.1052033 -0.172965E-03  0.748E-03    0.00       1.0  T
   7   -275.1052142 -0.108547E-04  0.537E-03    0.00       1.4  T
   8   -275.1052254 -0.112101E-04  0.108E-03    0.00       6.9  T
   9   -275.1052197  0.562977E-05  0.376E-03    0.00       2.0  T
  10   -275.1052190  0.712862E-06  0.400E-03    0.00       1.9  T
  11   -275.1052256 -0.655760E-05  0.561E-04    0.00      13.3  T
  12   -275.1052253  0.297013E-06  0.101E-03    0.00       7.4  T
  13   -275.1052252  0.101257E-06  0.112E-03    0.00       6.6  T
  14   -275.1052257 -0.530767E-06  0.318E-05    0.00     234.6  T
  15   -275.1052257  0.203814E-07  0.221E-04    0.00      33.7  T
     SCC iter.                  ...        0 min,  1.496 sec
     gradient                   ...        0 min,  0.113 sec
 * total energy  :  -270.9612318 Eh     change       -0.3002733E-03 Eh
   gradient norm :     0.0043184 Eh/α   predicted    -0.2560493E-03 ( -14.73%)
   displ. norm   :     0.6973916 α      lambda       -0.3413872E-03
   maximum displ.:     0.3097254 α      in ANC's #3, #1, #5, ...

........................................................................
.............................. CYCLE   36 ..............................
........................................................................

 iter      E             dE          RMSdq      gap      omega  full diag
   1   -275.1049931 -0.275105E+03  0.581E-02    0.01       0.0  T
   2   -274.8880798  0.216913E+00  0.721E-01    0.21       1.0  T
   3   -275.1044839 -0.216404E+00  0.549E-02    0.01       1.0  T
   4   -275.1045006 -0.166257E-04  0.477E-02    0.00       1.0  T
   5   -275.1052943 -0.793778E-03  0.188E-02    0.01       1.0  T
   6   -275.1054383 -0.143991E-03  0.220E-03    0.00       3.4  T
   7   -275.1054304  0.796912E-05  0.474E-03    0.00       1.6  T
   8   -275.1054365 -0.610591E-05  0.277E-03    0.00       2.7  T
   9   -275.1054394 -0.290979E-05  0.725E-04    0.00      10.3  T
  10   -275.1054342  0.517896E-05  0.353E-03    0.00       2.1  T
  11   -275.1054377 -0.354042E-05  0.205E-03    0.00       3.6  T
  12   -275.1054395 -0.171271E-05  0.403E-04    0.00      18.5  T
  13   -275.1054394  0.155260E-07  0.438E-04    0.00      17.0  T
  14   -275.1054394  0.432923E-07  0.544E-04    0.00      13.7  T
     SCC iter.                  ...        0 min,  1.538 sec
     gradient                   ...        0 min,  0.116 sec
 * total energy  :  -270.9615267 Eh     change       -0.2948818E-03 Eh
   gradient norm :     0.0034821 Eh/α   predicted    -0.2537121E-03 ( -13.96%)
   displ. norm   :     0.7022119 α      lambda       -0.3317822E-03
   maximum displ.:     0.3203605 α      in ANC's #3, #1, #5, ...

........................................................................
.............................. CYCLE   37 ..............................
........................................................................

 iter      E             dE          RMSdq      gap      omega  full diag
   1   -275.1049281 -0.275105E+03  0.657E-02    0.01       0.0  T
   2   -274.8725995  0.232329E+00  0.750E-01    0.29       1.0  T
   3   -275.1058087 -0.233209E+00  0.269E-02    0.00       1.0  T
   4   -275.1035911  0.221758E-02  0.730E-02    0.01       1.0  T
   5   -275.1044376 -0.846468E-03  0.573E-02    0.01       1.0  T
   6   -275.1053935 -0.955917E-03  0.317E-02    0.01       1.0  T
   7   -275.1057274 -0.333876E-03  0.146E-02    0.00       1.0  T
   8   -275.1057951 -0.677039E-04  0.709E-03    0.00       1.1  T
   9   -275.1058144 -0.193129E-04  0.204E-03    0.00       3.7  T
  10   -275.1058152 -0.814607E-06  0.144E-03    0.00       5.2  T
  11   -275.1058161 -0.826263E-06  0.193E-04    0.00      38.6  T
  12   -275.1058160  0.169868E-07  0.246E-04    0.00      30.3  T
     SCC iter.                  ...        0 min,  1.245 sec
     gradient                   ...        0 min,  0.114 sec
 * total energy  :  -270.9618161 Eh     change       -0.2893705E-03 Eh
   gradient norm :     0.0028984 Eh/α   predicted    -0.2476937E-03 ( -14.40%)
   displ. norm   :     0.7141554 α      lambda       -0.3362683E-03
   maximum displ.:     0.3319789 α      in ANC's #3, #1, #5, ...

........................................................................
.............................. CYCLE   38 ..............................
........................................................................

 iter      E             dE          RMSdq      gap      omega  full diag
   1   -275.1067229 -0.275107E+03  0.507E-02    0.01       0.0  T
   2   -274.9412069  0.165516E+00  0.626E-01    0.13       1.0  T
   3   -275.1044329 -0.163226E+00  0.810E-02    0.01       1.0  T
   4   -275.1064847 -0.205185E-02  0.325E-02    0.00       1.0  T
   5   -275.1068113 -0.326586E-03  0.146E-02    0.00       1.0  T
   6   -275.1068858 -0.744669E-04  0.582E-03    0.00       1.3  T
   7   -275.1068965 -0.107140E-04  0.269E-03    0.00       2.8  T
   8   -275.1068901  0.636367E-05  0.466E-03    0.00       1.6  T
   9   -275.1068992 -0.906683E-05  0.391E-04    0.00      19.1  T
  10   -275.1068972  0.199860E-05  0.217E-03    0.00       3.4  T
  11   -275.1068992 -0.199092E-05  0.195E-04    0.00      38.3  T
  12   -275.1068992 -0.581457E-08  0.147E-04    0.00      50.8  T
  13   -275.1068992 -0.117325E-09  0.137E-04    0.00      54.6  T
     SCC iter.                  ...        0 min,  2.007 sec
     gradient                   ...        0 min,  0.118 sec
 * total energy  :  -270.9621136 Eh     change       -0.2974816E-03 Eh
   gradient norm :     0.0036101 Eh/α   predicted    -0.2538887E-03 ( -14.65%)
   displ. norm   :     0.7370238 α      lambda       -0.3548545E-03
   maximum displ.:     0.3459901 α      in ANC's #3, #1, #5, ...

........................................................................
.............................. CYCLE   39 ..............................
........................................................................

 iter      E             dE          RMSdq      gap      omega  full diag
   1   -275.1074021 -0.275107E+03  0.465E-02    0.00       0.0  T
   2   -275.1049284  0.247368E-02  0.805E-02    0.01       1.0  T
   3   -275.0279502  0.769782E-01  0.434E-01    0.08       1.0  T
   4   -275.1063881 -0.784379E-01  0.493E-02    0.01       1.0  T
   5   -275.1073818 -0.993627E-03  0.848E-03    0.00       1.0  T
   6   -275.1074070 -0.252264E-04  0.312E-03    0.00       2.4  T
   7   -275.1074091 -0.210912E-05  0.191E-03    0.00       3.9  T
   8   -275.1074102 -0.109871E-05  0.631E-04    0.00      11.8  T
   9   -275.1074102  0.403139E-08  0.440E-04    0.00      16.9  T
  10   -275.1074102 -0.208450E-07  0.216E-04    0.00      34.5  T
     SCC iter.                  ...        0 min,  1.054 sec
     gradient                   ...        0 min,  0.112 sec
 * total energy  :  -270.9624308 Eh     change       -0.3172092E-03 Eh
   gradient norm :     0.0044124 Eh/α   predicted    -0.2738076E-03 ( -13.68%)
   displ. norm   :     0.7469194 α      lambda       -0.3748726E-03
   maximum displ.:     0.3503740 α      in ANC's #3, #1, #5, ...

........................................................................
.............................. CYCLE   40 ..............................
........................................................................

 iter      E             dE          RMSdq      gap      omega  full diag
   1   -275.1087643 -0.275109E+03  0.495E-02    0.00       0.0  T
   2   -274.9697329  0.139031E+00  0.574E-01    0.12       1.0  T
   3   -275.1079073 -0.138174E+00  0.548E-02    0.00       1.0  T
   4   -275.1071085  0.798811E-03  0.651E-02    0.01       1.0  T
   5   -275.1088962 -0.178773E-02  0.642E-03    0.00       1.2  T
   6   -275.1088708  0.254096E-04  0.964E-03    0.00       1.0  T
   7   -275.1089097 -0.388604E-04  0.133E-03    0.00       5.6  T
   8   -275.1089097 -0.153907E-07  0.105E-03    0.00       7.1  T
   9   -275.1089095  0.171898E-06  0.115E-03    0.00       6.5  T
  10   -275.1089098 -0.295651E-06  0.738E-04    0.00      10.1  T
  11   -275.1089099 -0.114115E-06  0.484E-04    0.00      15.4  T
     SCC iter.                  ...        0 min,  1.396 sec
     gradient                   ...        0 min,  0.121 sec
 * total energy  :  -270.9627608 Eh     change       -0.3300687E-03 Eh
   gradient norm :     0.0042682 Eh/α   predicted    -0.2920082E-03 ( -11.53%)
   displ. norm   :     0.7749412 α      lambda       -0.3704000E-03
   maximum displ.:     0.3667117 α      in ANC's #3, #1, #5, ...

........................................................................
.............................. CYCLE   41 ..............................
........................................................................

 iter      E             dE          RMSdq      gap      omega  full diag
   1   -275.1062932 -0.275106E+03  0.478E-02    0.00       0.0  T
   2   -275.0957110  0.105821E-01  0.160E-01    0.03       1.0  T
   3   -275.0791659  0.165452E-01  0.253E-01    0.04       1.0  T
   4   -275.1055870 -0.264212E-01  0.415E-02    0.01       1.0  T
   5   -275.1063044 -0.717328E-03  0.359E-03    0.00       2.1  T
   6   -275.1062966  0.777079E-05  0.516E-03    0.00       1.4  T
   7   -275.1063060 -0.944353E-05  0.150E-03    0.00       5.0  T
   8   -275.1063062 -0.113226E-06  0.101E-03    0.00       7.4  T
   9   -275.1063063 -0.106710E-06  0.699E-04    0.00      10.7  T
  10   -275.1063064 -0.124736E-06  0.269E-04    0.00      27.7  T
     SCC iter.                  ...        0 min,  0.959 sec
     gradient                   ...        0 min,  0.118 sec
 * total energy  :  -270.9630838 Eh     change       -0.3229472E-03 Eh
   gradient norm :     0.0039701 Eh/α   predicted    -0.2964204E-03 (  -8.21%)
   displ. norm   :     0.7242686 α      lambda       -0.3727076E-03
   maximum displ.:     0.3381013 α      in ANC's #3, #1, #6, ...

........................................................................
.............................. CYCLE   42 ..............................
........................................................................

 iter      E             dE          RMSdq      gap      omega  full diag
   1   -275.1086697 -0.275109E+03  0.674E-02    0.01       0.0  T
   2   -274.8954700  0.213200E+00  0.720E-01    0.34       1.0  T
   3   -275.1074214 -0.211951E+00  0.797E-02    0.01       1.0  T
   4   -275.0633979  0.440235E-01  0.331E-01    0.05       1.0  T
   5   -275.0936867 -0.302888E-01  0.195E-01    0.03       1.0  T
   6   -275.1073127 -0.136260E-01  0.767E-02    0.01       1.0  T
   7   -275.1096612 -0.234844E-02  0.196E-02    0.01       1.0  T
   8   -275.1097930 -0.131795E-03  0.876E-03    0.00       1.0  T
   9   -275.1098224 -0.294658E-04  0.264E-03    0.00       2.8  T
  10   -275.1098241 -0.165352E-05  0.167E-03    0.00       4.5  T
  11   -275.1098234  0.682374E-06  0.208E-03    0.00       3.6  T
  12   -275.1098244 -0.103296E-05  0.138E-03    0.00       5.4  T
  13   -275.1098250 -0.535268E-06  0.791E-04    0.00       9.4  T
  14   -275.1098250 -0.205224E-07  0.758E-04    0.00       9.8  T
     SCC iter.                  ...        0 min,  1.733 sec
     gradient                   ...        0 min,  0.117 sec
 * total energy  :  -270.9633904 Eh     change       -0.3065938E-03 Eh
   gradient norm :     0.0040699 Eh/α   predicted    -0.2841103E-03 (  -7.33%)
   displ. norm   :     0.7723026 α      lambda       -0.3482283E-03
   maximum displ.:     0.3705820 α      in ANC's #3, #1, #6, ...
 * RMSD in coord.:     0.8704621 α      energy gain  -0.5603827E-02 Eh

generating ANC from model Hessian ...
Using Lindh-Hessian (1995)
 Shifting diagonal of input Hessian by    1.0038259187090925E-002
 Lowest  eigenvalues of input Hessian
    0.010000    0.010031    0.000000    0.000000    0.000000    0.000000
    0.000000    0.000000    0.010042    0.010064    0.010076    0.010097
    0.010108    0.010124    0.010128    0.010140    0.010244    0.010296
 Highest eigenvalues
    2.174326    2.178450    2.195095    2.210203    2.374725    2.397899


........................................................................
.............................. CYCLE   43 ..............................
........................................................................

 iter      E             dE          RMSdq      gap      omega  full diag
   1   -275.1055682 -0.275106E+03  0.452E-02    0.00       0.0  T
   2   -275.1038985  0.166966E-02  0.676E-02    0.01       1.0  T
   3   -275.0154099  0.884886E-01  0.460E-01    0.08       1.0  T
   4   -275.1039766 -0.885666E-01  0.609E-02    0.01       1.0  T
   5   -275.1055706 -0.159407E-02  0.429E-03    0.00       1.7  T
   6   -275.1055635  0.712683E-05  0.562E-03    0.00       1.3  T
   7   -275.1055761 -0.125640E-04  0.109E-03    0.00       6.8  T
   8   -275.1055751  0.967464E-06  0.164E-03    0.00       4.5  T
   9   -275.1055761 -0.101298E-05  0.436E-04    0.00      17.1  T
  10   -275.1055761 -0.146100E-07  0.263E-04    0.00      28.3  T
  11   -275.1055761  0.727687E-08  0.205E-04    0.00      36.4  T
     SCC iter.                  ...        0 min,  1.030 sec
     gradient                   ...        0 min,  0.114 sec
 * total energy  :  -270.9637002 Eh     change       -0.3098187E-03 Eh
   gradient norm :     0.0045955 Eh/α   predicted     0.0000000E+00 (-100.00%)
   displ. norm   :     0.0766470 α      lambda       -0.1051743E-03
   maximum displ.:     0.0382360 α      in ANC's #11, #4, #9, ...

........................................................................
.............................. CYCLE   44 ..............................
........................................................................

 iter      E             dE          RMSdq      gap      omega  full diag
   1   -275.1084254 -0.275108E+03  0.220E-02    0.00       0.0  T
   2   -274.9531094  0.155316E+00  0.604E-01    0.14       1.0  T
   3   -275.1084985 -0.155389E+00  0.168E-02    0.00       1.0  T
   4   -275.1085934 -0.949031E-04  0.607E-03    0.00       1.2  T
   5   -275.1086032 -0.980679E-05  0.310E-03    0.00       2.4  T
   6   -275.1085931  0.101085E-04  0.546E-03    0.00       1.4  T
   7   -275.1086056 -0.125382E-04  0.518E-04    0.00      14.4  T
[...]
                           128 Si   0.844
   130   6 C    3.944 --   129 C    1.024   161 H    0.971   162 H    0.971
                           131 O    0.964
   131   8 O    2.068 --   135 C    0.980   130 C    0.964
   132   6 C    3.980 --   169 H    0.991   168 H    0.987   170 H    0.987
                           128 Si   0.896
   133   6 C    3.981 --   172 H    0.987   171 H    0.987   173 H    0.986
                           128 Si   0.902
   134   6 C    3.981 --   167 H    0.987   165 H    0.987   166 H    0.986
                           128 Si   0.902
   135   6 C    3.955 --   127 N    1.008   131 O    0.980   160 H    0.953
                           159 H    0.953
   136   7 N    3.546 --   119 C    1.249   137 O    1.247   120 C    0.915
   137   8 O    1.545 --   136 N    1.247   119 C    0.138
   138   7 N    3.543 --   139 O    1.248   119 C    1.247   121 C    0.914
   139   8 O    1.542 --   138 N    1.248   119 C    0.137
   140   1 H    0.997 --   125 C    0.975
   141   1 H    0.997 --   125 C    0.982
   142   1 H    0.994 --   125 C    0.977
   143   1 H    0.998 --   124 C    0.979
   144   1 H    0.995 --   124 C    0.980
   145   1 H    0.995 --   124 C    0.981
   146   1 H    0.998 --   123 C    0.977
   147   1 H    0.995 --   123 C    0.980
   148   1 H    0.995 --   123 C    0.981
   149   1 H    0.997 --   122 C    0.978
   150   1 H    0.997 --   122 C    0.983
   151   1 H    0.994 --   122 C    0.978
   152   1 H    0.994 --   116 C    0.954
   153   1 H    0.998 --   117 C    0.967
   154   1 H    0.993 --   118 C    0.946
   155   1 H    0.997 --   113 C    0.966
   156   1 H    0.998 --   114 C    0.967
   157   1 H    0.998 --   109 C    0.968
   158   1 H    0.998 --   110 C    0.964
   159   1 H    0.998 --   135 C    0.953
   160   1 H    0.998 --   135 C    0.953
   161   1 H    1.000 --   130 C    0.971
   162   1 H    1.000 --   130 C    0.971
   163   1 H    0.998 --   129 C    0.981
   164   1 H    0.998 --   129 C    0.981
   165   1 H    0.999 --   134 C    0.987
   166   1 H    0.999 --   134 C    0.986
   167   1 H    0.998 --   134 C    0.987
   168   1 H    0.999 --   132 C    0.987
   169   1 H    0.999 --   132 C    0.991
   170   1 H    0.999 --   132 C    0.987
   171   1 H    0.999 --   133 C    0.987
   172   1 H    0.999 --   133 C    0.987
   173   1 H    0.998 --   133 C    0.986
   174   1 H    0.998 --   103 C    0.964
   175   1 H    0.998 --   104 C    0.968
   176   1 H    0.998 --    99 C    0.967
   177   1 H    0.998 --   100 C    0.965
   178   1 H    0.998 --    91 C    0.965
   179   1 H    0.997 --    92 C    0.968
   180   1 H    0.997 --    94 C    0.960
 ---------------------------------------------------------------------------

Topologies differ in bond orders
Writing corrected topology to xtbtopo.mol

molecular dipole:
                 x           y           z       tot (Debye)
 q only:        1.851       4.156       1.136
   full:        2.334       5.404       0.915      15.142
molecular quadrupole (traceless):
                xx          xy          yy          xz          yz          zz
 q only:      -12.434     -39.922     -24.539      40.001      22.372      36.974
  q+dip:        5.057     -58.081     -30.508      46.882      37.368      25.450
   full:        0.017     -55.609     -36.149      36.305      33.112      36.132

           -------------------------------------------------
          |                Geometry Summary                 |
           -------------------------------------------------

      molecular mass/u    :     1463.5461871
   center of mass at/Å    :       -0.9513070       0.0770594       3.2478612
  moments of inertia/u·Å² :        0.1605193E+05   0.5375736E+05   0.5560818E+05
rotational constants/cm⁻¹ :        0.1050193E-02   0.3135874E-03   0.3031502E-03

 * 185 selected distances

     #   Z          #   Z                                           value/Å
     1   6 C        2   6 C                                       1.3694523
     2   6 C        3   6 C                                       1.3945732
     3   6 C        4   6 C                                       1.3686432
     4   6 C        5   6 C                                       1.4032528
     1   6 C        6   6 C                                       1.4052707
     5   6 C        6   6 C                                       1.4148212
     5   6 C        7   6 C                                       1.4349432
     7   6 C        8   6 C                                       1.4138706
     8   6 C        9   6 C                                       1.4209514
     6   6 C       10   6 C                                       1.4197890
     9   6 C       10   6 C                                       1.3547482
     7   6 C       11   6 C                                       1.4184482
    11   6 C       12   6 C                                       1.4118197
    12   6 C       13   6 C                                       1.3958453
     8   6 C       14   6 C                                       1.4113150
    13   6 C       14   6 C                                       1.3670258
    11   6 C       15   6 C                                       1.4414640
    15   6 C       16   6 C                                       1.4147431
    15   6 C       17   6 C                                       1.4170193
    17   6 C       18   6 C                                       1.4142217
    18   6 C       19   6 C                                       1.4100541
    16   6 C       20   6 C                                       1.3964182
    19   6 C       20   6 C                                       1.3683825
    21   6 C       22   6 C                                       1.4143055
    22   6 C       23   6 C                                       1.4194670
    18   6 C       24   6 C                                       1.4229555
    23   6 C       24   6 C                                       1.3553185
    25   6 C       26   6 C                                       1.4117727
    22   6 C       27   6 C                                       1.4054921
    26   6 C       27   6 C                                       1.3673478
    21   6 C       28   6 C                                       1.3989487
    25   6 C       28   6 C                                       1.3859505
    30   6 C       31   6 C                                       1.5383794
    30   6 C       32   6 C                                       1.5236843
    30   6 C       33   6 C                                       1.5340106
    31   6 C       34   6 C                                       1.5324017
    31   6 C       35   6 C                                       1.5244631
     3   6 C       36  35 Br                                      1.9013591
    12   6 C       37   7 N                                       1.3718777
    16   6 C       37   7 N                                       1.3712537
    38  14 Si      39   6 C                                       1.9093191
    39   6 C       40   6 C                                       1.5163491
    40   6 C       41   8 O                                       1.4120503
    38  14 Si      42   6 C                                       1.9062491
    38  14 Si      43   6 C                                       1.9121590
    38  14 Si      44   6 C                                       1.9115618
    37   7 N       45   6 C                                       1.4279549
    41   8 O       45   6 C                                       1.3977486
    29   6 C       46   7 N                                       1.3455586
    30   6 C       46   7 N                                       1.4790741
    29   6 C       48   7 N                                       1.3443168
    31   6 C       48   7 N                                       1.4797146
    35   6 C       50   1 H                                       1.0853835
    35   6 C       51   1 H                                       1.0863327
    35   6 C       52   1 H                                       1.0874511
    34   6 C       53   1 H                                       1.0866243
    34   6 C       54   1 H                                       1.0883214
    34   6 C       55   1 H                                       1.0861251
    33   6 C       56   1 H                                       1.0878645
    33   6 C       57   1 H                                       1.0881902
    33   6 C       58   1 H                                       1.0859906
    32   6 C       59   1 H                                       1.0848489
    32   6 C       60   1 H                                       1.0863300
    32   6 C       61   1 H                                       1.0873685
    26   6 C       62   1 H                                       1.0770514
    27   6 C       63   1 H                                       1.0803205
    28   6 C       64   1 H                                       1.0752636
    23   6 C       65   1 H                                       1.0797287
    24   6 C       66   1 H                                       1.0807062
    19   6 C       67   1 H                                       1.0803346
    20   6 C       68   1 H                                       1.0787815
    45   6 C       69   1 H                                       1.1009931
    45   6 C       70   1 H                                       1.1109496
    40   6 C       71   1 H                                       1.1026594
    40   6 C       72   1 H                                       1.1000461
    39   6 C       73   1 H                                       1.0876563
    39   6 C       74   1 H                                       1.0896168
    44   6 C       75   1 H                                       1.0860341
    44   6 C       76   1 H                                       1.0853606
    44   6 C       77   1 H                                       1.0859156
    42   6 C       78   1 H                                       1.0852185
    42   6 C       79   1 H                                       1.0855417
    42   6 C       80   1 H                                       1.0848184
    43   6 C       81   1 H                                       1.0861923
    43   6 C       82   1 H                                       1.0858881
    43   6 C       83   1 H                                       1.0859270
    13   6 C       84   1 H                                       1.0773979
    14   6 C       85   1 H                                       1.0813265
     9   6 C       86   1 H                                       1.0823950
    10   6 C       87   1 H                                       1.0825440
     1   6 C       88   1 H                                       1.0813909
     2   6 C       89   1 H                                       1.0790204
     4   6 C       90   1 H                                       1.0761257
    91   6 C       92   6 C                                       1.3701517
    92   6 C       93   6 C                                       1.3948847
    93   6 C       94   6 C                                       1.3702636
    94   6 C       95   6 C                                       1.4041226
    91   6 C       96   6 C                                       1.4058119
    95   6 C       96   6 C                                       1.4155355
    97   6 C       98   6 C                                       1.4137058
    98   6 C       99   6 C                                       1.4209998
    96   6 C      100   6 C                                       1.4207349
    99   6 C      100   6 C                                       1.3543409
    97   6 C      101   6 C                                       1.4172328
   101   6 C      102   6 C                                       1.4126419
   102   6 C      103   6 C                                       1.3963304
    98   6 C      104   6 C                                       1.4099639
   103   6 C      104   6 C                                       1.3679710
   101   6 C      105   6 C                                       1.4419090
   105   6 C      106   6 C                                       1.4121543
   105   6 C      107   6 C                                       1.4164837
   107   6 C      108   6 C                                       1.4136442
   108   6 C      109   6 C                                       1.4107032
   106   6 C      110   6 C                                       1.3960849
   109   6 C      110   6 C                                       1.3693474
   111   6 C      112   6 C                                       1.4131335
   112   6 C      113   6 C                                       1.4198173
   108   6 C      114   6 C                                       1.4234336
   113   6 C      114   6 C                                       1.3555674
   115   6 C      116   6 C                                       1.4110821
   112   6 C      117   6 C                                       1.4053114
   116   6 C      117   6 C                                       1.3669198
   111   6 C      118   6 C                                       1.3984411
   115   6 C      118   6 C                                       1.3852019
   120   6 C      121   6 C                                       1.5372043
   120   6 C      122   6 C                                       1.5235308
   120   6 C      123   6 C                                       1.5327353
   121   6 C      124   6 C                                       1.5331576
   121   6 C      125   6 C                                       1.5224012
    93   6 C      126  35 Br                                      1.9031020
   102   6 C      127   7 N                                       1.3745337
   106   6 C      127   7 N                                       1.3744775
   128  14 Si     129   6 C                                       1.9152989 (max)
   129   6 C      130   6 C                                       1.5155999
   130   6 C      131   8 O                                       1.4126606
   128  14 Si     132   6 C                                       1.9058251
   128  14 Si     133   6 C                                       1.9094844
   128  14 Si     134   6 C                                       1.9097990
   127   7 N      135   6 C                                       1.4232842
   131   8 O      135   6 C                                       1.4045305
   119   6 C      136   7 N                                       1.3451645
   120   6 C      136   7 N                                       1.4791328
   119   6 C      138   7 N                                       1.3456873
   121   6 C      138   7 N                                       1.4790225
   125   6 C      140   1 H                                       1.0850465
   125   6 C      141   1 H                                       1.0865049
   125   6 C      142   1 H                                       1.0877163
   124   6 C      143   1 H                                       1.0866925
   124   6 C      144   1 H                                       1.0883707
   124   6 C      145   1 H                                       1.0862315
   123   6 C      146   1 H                                       1.0876059
   123   6 C      147   1 H                                       1.0883199
   123   6 C      148   1 H                                       1.0862061
   122   6 C      149   1 H                                       1.0848057
   122   6 C      150   1 H                                       1.0864306
   122   6 C      151   1 H                                       1.0873142
   116   6 C      152   1 H                                       1.0763721
   117   6 C      153   1 H                                       1.0807538
   118   6 C      154   1 H                                       1.0748152 (min)
   113   6 C      155   1 H                                       1.0793190
   114   6 C      156   1 H                                       1.0813589
   109   6 C      157   1 H                                       1.0804850
   110   6 C      158   1 H                                       1.0791760
   135   6 C      159   1 H                                       1.1032646
   135   6 C      160   1 H                                       1.1030747
   130   6 C      161   1 H                                       1.1010466
   130   6 C      162   1 H                                       1.1010983
   129   6 C      163   1 H                                       1.0896704
   129   6 C      164   1 H                                       1.0895893
   134   6 C      165   1 H                                       1.0860995
   134   6 C      166   1 H                                       1.0860165
   134   6 C      167   1 H                                       1.0857217
   132   6 C      168   1 H                                       1.0854478
   132   6 C      169   1 H                                       1.0852469
   132   6 C      170   1 H                                       1.0854664
   133   6 C      171   1 H                                       1.0860688
   133   6 C      172   1 H                                       1.0857257
   133   6 C      173   1 H                                       1.0860123
   103   6 C      174   1 H                                       1.0791239
   104   6 C      175   1 H                                       1.0800480
    99   6 C      176   1 H                                       1.0809096
   100   6 C      177   1 H                                       1.0820936
    91   6 C      178   1 H                                       1.0809770
    92   6 C      179   1 H                                       1.0787434
    94   6 C      180   1 H                                       1.0770273

 * 6 distinct bonds (by element types)

   Z      Z             #   av. dist./Å        max./Å        min./Å
   1 H    6 C          82     1.0857077     1.1109496     1.0748152
   6 C    6 C          75     1.4212863     1.5383794     1.3543409
   6 C    7 N          14     1.4029323     1.4797146     1.3443168
   6 C    8 O           4     1.4067475     1.4126606     1.3977486
   6 C   14 Si          8     1.9099620     1.9152989     1.9058251
   6 C   35 Br          2     1.9022306     1.9031020     1.9013591


optimized geometry written to: xtbopt.mol


           -------------------------------------------------
          | TOTAL ENERGY             -270.983916887599 Eh   |
          | GRADIENT NORM               0.000331700545 Eh/α |
          | HOMO-LUMO GAP               0.000710339144 eV   |
           -------------------------------------------------
########################################################################
[WARNING] Runtime exception occurred
-3- restart_readRestart: Dimension missmatch in restart file.
-2- restart_readRestart: Multiplicity missmatch in restart file.
-1- restart_readRestart: Number of electron missmatch in restart file.
########################################################################

------------------------------------------------------------------------
 * finished run on 2024/11/14 at 11:32:37.017     
------------------------------------------------------------------------
Note: The following floating-point exceptions are signalling: IEEE_UNDERFLOW_FLAG
normal termination of xtb
 total:
 * wall-time:     0 d,  0 h,  8 min,  2.448 sec
 *  cpu-time:     0 d,  0 h, 30 min, 26.685 sec
 * ratio c/w:     3.786 speedup
 SCF:
 * wall-time:     0 d,  0 h,  0 min,  3.701 sec
 *  cpu-time:     0 d,  0 h,  0 min, 14.761 sec
 * ratio c/w:     3.988 speedup
 ANC optimizer:
 * wall-time:     0 d,  0 h,  7 min, 58.693 sec
 *  cpu-time:     0 d,  0 h, 30 min, 11.857 sec
 * ratio c/w:     3.785 speedup

