      -----------------------------------------------------------      
     |                   =====================                   |     
     |                           x T B                           |     
     |                   =====================                   |     
     |                         S. Grimme                         |     
     |          Mulliken Center for Theoretical Chemistry        |     
     |                    University of Bonn                     |     
      -----------------------------------------------------------      

   * xtb version 6.6.1 (8d0f1dd) compiled by 'runner@Mac-1690902418499.local' on 2023-08-01

   xtb is free software: you can redistribute it and/or modify it under
   the terms of the GNU Lesser General Public License as published by
   the Free Software Foundation, either version 3 of the License, or
   (at your option) any later version.
   
   xtb is distributed in the hope that it will be useful,
   but WITHOUT ANY WARRANTY; without even the implied warranty of
   MERCHANTABILITY or FITNESS FOR A PARTICULAR PURPOSE.  See the
   GNU Lesser General Public License for more details.
   
   Cite this work as:
   * C. Bannwarth, E. Caldeweyher, S. Ehlert, A. Hansen, P. Pracht,
     J. Seibert, S. Spicher, S. Grimme, WIREs Comput. Mol. Sci., 2020, 11,
     e01493. DOI: 10.1002/wcms.1493
   
   for GFN2-xTB:
   * C. Bannwarth, S. Ehlert and S. Grimme., J. Chem. Theory Comput., 2019,
     15, 1652-1671. DOI: 10.1021/acs.jctc.8b01176
   for GFN1-xTB:
   * S. Grimme, C. Bannwarth, P. Shushkov, J. Chem. Theory Comput., 2017,
     13, 1989-2009. DOI: 10.1021/acs.jctc.7b00118
   for GFN0-xTB:
   * P. Pracht, E. Caldeweyher, S. Ehlert, S. Grimme, ChemRxiv, 2019, preprint.
     DOI: 10.26434/chemrxiv.8326202.v1
   for GFN-FF:
   * S. Spicher and S. Grimme, Angew. Chem. Int. Ed., 2020, 59, 15665-15673.
     DOI: 10.1002/anie.202004239
   
   for ALPB and GBSA implicit solvation:
   * S. Ehlert, M. Stahn, S. Spicher, S. Grimme, J. Chem. Theory Comput.,
     2021, 17, 4250-4261. DOI: 10.1021/acs.jctc.1c00471
   
   for DFT-D4:
   * E. Caldeweyher, C. Bannwarth and S. Grimme, J. Chem. Phys., 2017,
     147, 034112. DOI: 10.1063/1.4993215
   * E. Caldeweyher, S. Ehlert, A. Hansen, H. Neugebauer, S. Spicher,
     C. Bannwarth and S. Grimme, J. Chem. Phys., 2019, 150, 154122.
     DOI: 10.1063/1.5090222
   * E. Caldeweyher, J.-M. Mewes, S. Ehlert and S. Grimme, Phys. Chem. Chem. Phys.
     2020, 22, 8499-8512. DOI: 10.1039/D0CP00502A
   
   for sTDA-xTB:
   * S. Grimme and C. Bannwarth, J. Chem. Phys., 2016, 145, 054103.
     DOI: 10.1063/1.4959605
   
   in the mass-spec context:
   * V. Asgeirsson, C. Bauer and S. Grimme, Chem. Sci., 2017, 8, 4879.
     DOI: 10.1039/c7sc00601b
   * J. Koopman and S. Grimme, ACS Omega 2019, 4, 12, 15120-15133.
     DOI: 10.1021/acsomega.9b02011
   
   for metadynamics refer to:
   * S. Grimme, J. Chem. Theory Comput., 2019, 155, 2847-2862
     DOI: 10.1021/acs.jctc.9b00143
   
   for SPH calculations refer to:
   * S. Spicher and S. Grimme, J. Chem. Theory Comput., 2021, 17, 1701-1714
     DOI: 10.1021/acs.jctc.0c01306
   
   with help from (in alphabetical order)
   P. Atkinson, C. Bannwarth, F. Bohle, G. Brandenburg, E. Caldeweyher
   M. Checinski, S. Dohm, S. Ehlert, S. Ehrlich, I. Gerasimov, C. Hölzer
   A. Katbashev, J. Koopman, C. Lavigne, S. Lehtola, F. März, M. Müller,
   F. Musil, H. Neugebauer, J. Pisarek, C. Plett, P. Pracht, F. Pultar,
   J. Seibert, P. Shushkov, S. Spicher, M. Stahn, M. Steiner, T. Strunk,
   J. Stückrath, T. Rose, and J. Unsleber
   
 * started run on 2024/11/14 at 11:19:21.022     

           -------------------------------------------------
          |                Calculation Setup                |
           -------------------------------------------------

          program call               : xtb Nitro4.mol --opt --gfn2 --chrg 0 --uhf 1 --tight
          coordinate file            : Nitro4.mol
          omp threads                :                     8

   ID    Z sym.   atoms
    1    6 C      1-35, 39, 40, 42-45
    2   35 Br     36
    3    7 N      37, 46, 48
    4   14 Si     38
    5    8 O      41, 47, 49
    6    1 H      50-90
########################################################################
[WARNING] Please study the warnings concerning your input carefully
-1- prog_main_parseArguments: Unknown option '--tight' provided
########################################################################

           -------------------------------------------------
          |                 G F N 2 - x T B                 |
           -------------------------------------------------

        Reference                      10.1021/acs.jctc.8b01176
      * Hamiltonian:
        H0-scaling (s, p, d)           1.850000    2.230000    2.230000
        zeta-weighting                 0.500000
      * Dispersion:
        s8                             2.700000
        a1                             0.520000
        a2                             5.000000
        s9                             5.000000
      * Repulsion:
        kExp                           1.500000    1.000000
        rExp                           1.000000
      * Coulomb:
        alpha                          2.000000
        third order                    shell-resolved
        anisotropic                    true
        a3                             3.000000
        a5                             4.000000
        cn-shift                       1.200000
        cn-exp                         4.000000
        max-rad                        5.000000


          ...................................................
          :                      SETUP                      :
          :.................................................:
          :  # basis functions                 249          :
          :  # atomic orbitals                 247          :
          :  # shells                          141          :
          :  # electrons                       249          :
          :  max. iterations                   250          :
          :  Hamiltonian                  GFN2-xTB          :
          :  restarted?                      false          :
          :  GBSA solvation                  false          :
          :  PC potential                    false          :
          :  electronic temp.          300.0000000     K    :
          :  accuracy                    1.0000000          :
          :  -> integral cutoff          0.2500000E+02      :
          :  -> integral neglect         0.1000000E-07      :
          :  -> SCF convergence          0.1000000E-05 Eh   :
          :  -> wf. convergence          0.1000000E-03 e    :
          :  Broyden damping             0.4000000          :
          ...................................................

 iter      E             dE          RMSdq      gap      omega  full diag
   1   -136.7287965 -0.136729E+03  0.442E+00    0.37       0.0  T
   2   -137.0773145 -0.348518E+00  0.351E+00    0.52       1.0  T
   3   -137.1215971 -0.442825E-01  0.191E+00    1.41       1.0  T
   4   -136.9399694  0.181628E+00  0.149E+00    0.89       1.0  T
   5   -137.1659244 -0.225955E+00  0.517E-01    1.46       1.0  T
   6   -137.1716176 -0.569316E-02  0.228E-01    1.53       1.0  T
   7   -137.1718169 -0.199347E-03  0.146E-01    1.51       1.0  T
   8   -137.1721308 -0.313900E-03  0.790E-02    1.52       1.0  T
   9   -137.1721593 -0.285139E-04  0.461E-02    1.52       1.0  T
  10   -137.1722267 -0.673295E-04  0.292E-02    1.52       1.0  T
  11   -137.1722323 -0.561355E-05  0.260E-02    1.52       1.0  T
  12   -137.1722398 -0.753495E-05  0.179E-02    1.52       1.0  T
  13   -137.1722434 -0.361889E-05  0.610E-03    1.52       1.7  T
  14   -137.1722452 -0.178407E-05  0.235E-03    1.52       4.5  T
  15   -137.1722454 -0.153518E-06  0.135E-03    1.52       7.8  T
  16   -137.1722454 -0.321310E-07  0.602E-04    1.52      17.5  T
  17   -137.1722454 -0.791883E-08  0.349E-04    1.52      30.2  T

   *** convergence criteria satisfied after 17 iterations ***

         #    Occupation            Energy/Eh            Energy/eV
      -------------------------------------------------------------
         1        2.0000           -0.8210603             -22.3422
       ...           ...                  ...                  ...
       119        2.0000           -0.3826731             -10.4131
       120        2.0000           -0.3774613             -10.2712
       121        2.0000           -0.3631249              -9.8811
       122        2.0000           -0.3549578              -9.6589
       123        2.0000           -0.3505958              -9.5402
       124        1.9988           -0.3385906              -9.2135
       125        1.0012           -0.3257751              -8.8648 (HOMO)
       126                         -0.2699435              -7.3455 (LUMO)
       127                         -0.2655238              -7.2253
       128                         -0.2601537              -7.0791
       129                         -0.2593881              -7.0583
       130                         -0.2382573              -6.4833
       ...                                ...                  ...
       247                          0.9552695              25.9942
      -------------------------------------------------------------
                  HL-Gap            0.0558315 Eh            1.5193 eV
             Fermi-level           -0.3150211 Eh           -8.5722 eV

 SCC (total)                   0 d,  0 h,  0 min,  0.606 sec
 SCC setup                      ...        0 min,  0.000 sec (  0.076%)
 Dispersion                     ...        0 min,  0.002 sec (  0.264%)
 classical contributions        ...        0 min,  0.001 sec (  0.113%)
 integral evaluation            ...        0 min,  0.007 sec (  1.163%)
 iterations                     ...        0 min,  0.570 sec ( 94.044%)
 molecular gradient             ...        0 min,  0.022 sec (  3.703%)
 printout                       ...        0 min,  0.004 sec (  0.635%)

         :::::::::::::::::::::::::::::::::::::::::::::::::::::
         ::                     SUMMARY                     ::
         :::::::::::::::::::::::::::::::::::::::::::::::::::::
         :: total energy            -135.281493375177 Eh    ::
         :: gradient norm              0.262491561828 Eh/a0 ::
         :: HOMO-LUMO gap              1.519253523009 eV    ::
         ::.................................................::
         :: SCC energy              -137.172245405197 Eh    ::
         :: -> isotropic ES            0.118768048782 Eh    ::
         :: -> anisotropic ES          0.016366324832 Eh    ::
         :: -> anisotropic XC          0.044921547790 Eh    ::
         :: -> dispersion             -0.134071194376 Eh    ::
         :: repulsion energy           1.886971566842 Eh    ::
         :: add. restraining           0.000000000000 Eh    ::
         :: total charge              -0.000000000000 e     ::
         :::::::::::::::::::::::::::::::::::::::::::::::::::::

      ----------------------------------------------------------- 
     |                   =====================                   |
     |                        A N C O P T                        |
     |                   =====================                   |
     |               Approximate Normal Coordinate               |
     |                Rational Function Optimizer                |
      ----------------------------------------------------------- 

          ...................................................
          :                      SETUP                      :
          :.................................................:
          :   optimization level            normal          :
          :   max. optcycles                   270          :
          :   ANC micro-cycles                  20          :
          :   degrees of freedom               264          :
          :.................................................:
          :   RF solver                   davidson          :
          :   write xtbopt.log                true          :
          :   linear?                        false          :
          :   energy convergence         0.5000000E-05 Eh   :
          :   grad. convergence          0.1000000E-02 Eh/α :
          :   maxmium RF displ.          1.0000000          :
          :   Hlow (freq-cutoff)         0.1000000E-01      :
          :   Hmax (freq-cutoff)         5.0000000          :
          :   S6 in model hess.         20.0000000          :
          ...................................................

generating ANC from model Hessian ...
Using Lindh-Hessian (1995)
 Shifting diagonal of input Hessian by    1.0034317246020490E-002
 Lowest  eigenvalues of input Hessian
    0.010000    0.000000    0.000000    0.000000    0.000000    0.000000
    0.000000    0.010051    0.010068    0.010121    0.010192    0.010242
    0.010603    0.010755    0.010927    0.010980    0.011446    0.011670
 Highest eigenvalues
    2.041671    2.077576    2.100387    2.168990    2.177518    2.538587


........................................................................
.............................. CYCLE    1 ..............................
........................................................................

 iter      E             dE          RMSdq      gap      omega  full diag
   1   -137.1722454 -0.137172E+03  0.241E-04    1.52       0.0  T
   2   -137.1722454 -0.265970E-09  0.189E-04    1.52      55.7  T
   3   -137.1722454 -0.102887E-09  0.162E-04    1.52      65.2  T
     SCC iter.                  ...        0 min,  0.137 sec
     gradient                   ...        0 min,  0.022 sec
 * total energy  :  -135.2814934 Eh     change       -0.2339419E-08 Eh
   gradient norm :     0.2624859 Eh/α   predicted     0.0000000E+00 (-100.00%)
   displ. norm   :     0.4843059 α      lambda       -0.7745738E-01
   maximum displ.:     0.1573820 α      in ANC's #68, #57, #50, ...

........................................................................
.............................. CYCLE    2 ..............................
........................................................................

 iter      E             dE          RMSdq      gap      omega  full diag
   1   -137.2706921 -0.137271E+03  0.372E-01    1.56       0.0  T
   2   -137.2676409  0.305119E-02  0.414E-01    1.56       1.0  T
   3   -137.2823143 -0.146734E-01  0.153E-01    1.55       1.0  T
   4   -137.2815646  0.749666E-03  0.102E-01    1.55       1.0  T
   5   -137.2823371 -0.772478E-03  0.349E-02    1.55       1.0  T
   6   -137.2824318 -0.947715E-04  0.140E-02    1.55       1.0  T
   7   -137.2824338 -0.198723E-05  0.108E-02    1.55       1.0  T
   8   -137.2824352 -0.132664E-05  0.619E-03    1.55       1.7  T
   9   -137.2824357 -0.512308E-06  0.433E-03    1.55       2.4  T
  10   -137.2824360 -0.351116E-06  0.267E-03    1.55       3.9  T
  11   -137.2824361 -0.675153E-07  0.142E-03    1.55       7.4  T
  12   -137.2824361 -0.427048E-07  0.610E-04    1.55      17.3  T
  13   -137.2824361 -0.377381E-08  0.347E-04    1.55      30.4  T
     SCC iter.                  ...        0 min,  0.638 sec
     gradient                   ...        0 min,  0.023 sec
 * total energy  :  -135.3364194 Eh     change       -0.5492599E-01 Eh
   gradient norm :     0.1047581 Eh/α   predicted    -0.4787866E-01 ( -12.83%)
   displ. norm   :     0.5563853 α      lambda       -0.2988757E-01
   maximum displ.:     0.1819059 α      in ANC's #50, #15, #52, ...

........................................................................
.............................. CYCLE    3 ..............................
........................................................................

 iter      E             dE          RMSdq      gap      omega  full diag
   1   -137.3493836 -0.137349E+03  0.253E-01    1.54       0.0  T
   2   -137.3475624  0.182111E-02  0.282E-01    1.53       1.0  T
   3   -137.3549487 -0.738630E-02  0.922E-02    1.54       1.0  T
   4   -137.3546798  0.268982E-03  0.650E-02    1.54       1.0  T
   5   -137.3549754 -0.295608E-03  0.206E-02    1.54       1.0  T
   6   -137.3550075 -0.321287E-04  0.784E-03    1.54       1.3  T
   7   -137.3550084 -0.900018E-06  0.587E-03    1.54       1.8  T
   8   -137.3550091 -0.680403E-06  0.279E-03    1.54       3.8  T
   9   -137.3550093 -0.263744E-06  0.184E-03    1.54       5.7  T
  10   -137.3550094 -0.555696E-07  0.127E-03    1.54       8.3  T
  11   -137.3550094 -0.220664E-07  0.776E-04    1.54      13.6  T
  12   -137.3550094 -0.143840E-07  0.377E-04    1.54      28.0  T
     SCC iter.                  ...        0 min,  0.512 sec
     gradient                   ...        0 min,  0.023 sec
 * total energy  :  -135.3565096 Eh     change       -0.2009028E-01 Eh
   gradient norm :     0.0300694 Eh/α   predicted    -0.1956992E-01 (  -2.59%)
   displ. norm   :     0.6574529 α      lambda       -0.1281431E-01
   maximum displ.:     0.2443662 α      in ANC's #15, #26, #50, ...

........................................................................
.............................. CYCLE    4 ..............................
........................................................................

 iter      E             dE          RMSdq      gap      omega  full diag
   1   -137.3751907 -0.137375E+03  0.152E-01    1.56       0.0  T
   2   -137.3752239 -0.332371E-04  0.956E-02    1.55       1.0  T
   3   -137.3750947  0.129195E-03  0.753E-02    1.57       1.0  T
   4   -137.3754008 -0.306102E-03  0.278E-02    1.56       1.0  T
   5   -137.3754743 -0.734466E-04  0.696E-03    1.56       1.5  T
   6   -137.3754778 -0.348937E-05  0.445E-03    1.56       2.4  T
   7   -137.3754780 -0.187819E-06  0.244E-03    1.56       4.3  T
   8   -137.3754782 -0.206250E-06  0.847E-04    1.56      12.4  T
   9   -137.3754782 -0.187908E-07  0.579E-04    1.56      18.2  T
     SCC iter.                  ...        0 min,  0.318 sec
     gradient                   ...        0 min,  0.022 sec
 * total energy  :  -135.3665888 Eh     change       -0.1007911E-01 Eh
   gradient norm :     0.0226483 Eh/α   predicted    -0.9176612E-02 (  -8.95%)
   displ. norm   :     0.7445460 α      lambda       -0.9690482E-02
   maximum displ.:     0.3019389 α      in ANC's #15, #26, #11, ...

........................................................................
.............................. CYCLE    5 ..............................
........................................................................

 iter      E             dE          RMSdq      gap      omega  full diag
   1   -137.3915124 -0.137392E+03  0.138E-01    1.57       0.0  T
   2   -137.3915580 -0.456148E-04  0.840E-02    1.58       1.0  T
   3   -137.3915000  0.580307E-04  0.446E-02    1.58       1.0  T
   4   -137.3915803 -0.803406E-04  0.909E-03    1.58       1.2  T
   5   -137.3915817 -0.138059E-05  0.601E-03    1.58       1.8  T
   6   -137.3915818 -0.910071E-07  0.447E-03    1.58       2.4  T
   7   -137.3915829 -0.107816E-05  0.207E-03    1.58       5.1  T
   8   -137.3915830 -0.139544E-06  0.126E-03    1.58       8.4  T
   9   -137.3915830  0.769234E-09  0.899E-04    1.58      11.7  T
  10   -137.3915830 -0.156736E-07  0.601E-04    1.58      17.5  T
     SCC iter.                  ...        0 min,  0.336 sec
     gradient                   ...        0 min,  0.022 sec
 * total energy  :  -135.3740574 Eh     change       -0.7468642E-02 Eh
   gradient norm :     0.0188921 Eh/α   predicted    -0.7531202E-02 (   0.84%)
   displ. norm   :     0.7708359 α      lambda       -0.7614696E-02
   maximum displ.:     0.3076189 α      in ANC's #15, #5, #11, ...

........................................................................
.............................. CYCLE    6 ..............................
........................................................................

 iter      E             dE          RMSdq      gap      omega  full diag
   1   -137.4055485 -0.137406E+03  0.140E-01    1.58       0.0  T
   2   -137.4055855 -0.369781E-04  0.984E-02    1.59       1.0  T
   3   -137.4053795  0.206002E-03  0.524E-02    1.59       1.0  T
   4   -137.4055616 -0.182151E-03  0.256E-02    1.59       1.0  T
   5   -137.4056352 -0.735725E-04  0.138E-02    1.59       1.0  T
   6   -137.4056412 -0.599065E-05  0.825E-03    1.59       1.3  T
   7   -137.4056414 -0.179011E-06  0.486E-03    1.59       2.2  T
   8   -137.4056413  0.114955E-06  0.362E-03    1.59       2.9  T
   9   -137.4056415 -0.254836E-06  0.240E-03    1.59       4.4  T
  10   -137.4056416 -0.346941E-07  0.167E-03    1.59       6.3  T
  11   -137.4056416 -0.766710E-08  0.648E-04    1.59      16.3  T
  12   -137.4056416 -0.911530E-08  0.250E-04    1.59      42.2  T
     SCC iter.                  ...        0 min,  0.438 sec
     gradient                   ...        0 min,  0.022 sec
 * total energy  :  -135.3800790 Eh     change       -0.6021594E-02 Eh
   gradient norm :     0.0178590 Eh/α   predicted    -0.6069632E-02 (   0.80%)
   displ. norm   :     0.7841927 α      lambda       -0.6195891E-02
   maximum displ.:     0.3461988 α      in ANC's #5, #15, #11, ...

........................................................................
.............................. CYCLE    7 ..............................
........................................................................

 iter      E             dE          RMSdq      gap      omega  full diag
   1   -137.4178234 -0.137418E+03  0.156E-01    1.59       0.0  T
   2   -137.4178475 -0.241711E-04  0.111E-01    1.60       1.0  T
   3   -137.4174280  0.419500E-03  0.595E-02    1.59       1.0  T
   4   -137.4178405 -0.412461E-03  0.237E-02    1.60       1.0  T
   5   -137.4178943 -0.538337E-04  0.157E-02    1.60       1.0  T
   6   -137.4178999 -0.558144E-05  0.772E-03    1.60       1.4  T
   7   -137.4179001 -0.150179E-06  0.480E-03    1.60       2.2  T
   8   -137.4178997  0.409498E-06  0.411E-03    1.60       2.6  T
   9   -137.4179001 -0.471395E-06  0.274E-03    1.60       3.8  T
  10   -137.4179002 -0.604041E-07  0.162E-03    1.60       6.5  T
  11   -137.4179002 -0.116131E-07  0.374E-04    1.60      28.2  T
  12   -137.4179002 -0.789893E-08  0.110E-04    1.60      95.9  T
     SCC iter.                  ...        0 min,  0.470 sec
     gradient                   ...        0 min,  0.024 sec
 * total energy  :  -135.3857431 Eh     change       -0.5664148E-02 Eh
   gradient norm :     0.0159801 Eh/α   predicted    -0.5003064E-02 ( -11.67%)
   displ. norm   :     0.8793912 α      lambda       -0.6827304E-02
   maximum displ.:     0.4884097 α      in ANC's #5, #10, #11, ...

........................................................................
.............................. CYCLE    8 ..............................
........................................................................

 iter      E             dE          RMSdq      gap      omega  full diag
   1   -137.4315392 -0.137432E+03  0.236E-01    1.60       0.0  T
   2   -137.4315871 -0.479290E-04  0.167E-01    1.61       1.0  T
   3   -137.4309900  0.597045E-03  0.707E-02    1.60       1.0  T
   4   -137.4315701 -0.580083E-03  0.320E-02    1.61       1.0  T
   5   -137.4316294 -0.592334E-04  0.220E-02    1.61       1.0  T
   6   -137.4316439 -0.145175E-04  0.972E-03    1.61       1.1  T
   7   -137.4316441 -0.268940E-06  0.673E-03    1.61       1.6  T
   8   -137.4316435  0.668404E-06  0.541E-03    1.61       1.9  T
   9   -137.4316442 -0.729279E-06  0.323E-03    1.61       3.3  T
  10   -137.4316442 -0.501177E-07  0.173E-03    1.61       6.1  T
  11   -137.4316443 -0.310263E-07  0.436E-04    1.61      24.2  T
  12   -137.4316443 -0.838688E-08  0.105E-04    1.61     100.2  T
     SCC iter.                  ...        0 min,  0.334 sec
     gradient                   ...        0 min,  0.033 sec
 * total energy  :  -135.3923159 Eh     change       -0.6572802E-02 Eh
   gradient norm :     0.0140822 Eh/α   predicted    -0.6053552E-02 (  -7.90%)
   displ. norm   :     0.9337975 α      lambda       -0.7557834E-02
   maximum displ.:     0.5977653 α      in ANC's #5, #10, #11, ...

........................................................................
.............................. CYCLE    9 ..............................
........................................................................

 iter      E             dE          RMSdq      gap      omega  full diag
   1   -137.4443927 -0.137444E+03  0.301E-01    1.61       0.0  T
   2   -137.4444545 -0.618059E-04  0.211E-01    1.62       1.0  T
   3   -137.4437579  0.696548E-03  0.795E-02    1.61       1.0  T
   4   -137.4444649 -0.706979E-03  0.345E-02    1.62       1.0  T
   5   -137.4445006 -0.357553E-04  0.226E-02    1.61       1.0  T
   6   -137.4445202 -0.195756E-04  0.930E-03    1.62       1.1  T
   7   -137.4445205 -0.320207E-06  0.687E-03    1.61       1.5  T
   8   -137.4445202  0.361471E-06  0.493E-03    1.62       2.1  T
   9   -137.4445207 -0.502546E-06  0.286E-03    1.61       3.7  T
  10   -137.4445207 -0.865745E-08  0.146E-03    1.61       7.2  T
  11   -137.4445207 -0.554242E-07  0.364E-04    1.61      29.0  T
  12   -137.4445208 -0.992534E-08  0.996E-05    1.61     105.8  T
     SCC iter.                  ...        0 min,  0.456 sec
     gradient                   ...        0 min,  0.021 sec
 * total energy  :  -135.3997234 Eh     change       -0.7407415E-02 Eh
   gradient norm :     0.0180878 Eh/α   predicted    -0.7074054E-02 (  -4.50%)
   displ. norm   :     0.9518640 α      lambda       -0.8120931E-02
   maximum displ.:     0.6610723 α      in ANC's #5, #10, #13, ...

........................................................................
.............................. CYCLE   10 ..............................
........................................................................

 iter      E             dE          RMSdq      gap      omega  full diag
   1   -137.4561831 -0.137456E+03  0.322E-01    1.62       0.0  T
   2   -137.4562403 -0.571758E-04  0.221E-01    1.62       1.0  T
   3   -137.4558018  0.438494E-03  0.657E-02    1.62       1.0  T
   4   -137.4562700 -0.468172E-03  0.319E-02    1.62       1.0  T
   5   -137.4562834 -0.134678E-04  0.129E-02    1.62       1.0  T
   6   -137.4562886 -0.517366E-05  0.796E-03    1.62       1.3  T
   7   -137.4562898 -0.116212E-05  0.597E-03    1.62       1.8  T
   8   -137.4562899 -0.136074E-06  0.390E-03    1.62       2.7  T
   9   -137.4562902 -0.293995E-06  0.227E-03    1.62       4.6  T
  10   -137.4562902 -0.939434E-08  0.985E-04    1.62      10.7  T
  11   -137.4562902 -0.192523E-07  0.267E-04    1.62      39.5  T
     SCC iter.                  ...        0 min,  0.313 sec
     gradient                   ...        0 min,  0.022 sec
 * total energy  :  -135.4076934 Eh     change       -0.7970020E-02 Eh
   gradient norm :     0.0259162 Eh/α   predicted    -0.7739433E-02 (  -2.89%)
   displ. norm   :     0.9487967 α      lambda       -0.8548493E-02
   maximum displ.:     0.6869260 α      in ANC's #5, #10, #31, ...

........................................................................
.............................. CYCLE   11 ..............................
........................................................................

 iter      E             dE          RMSdq      gap      omega  full diag
   1   -137.4652884 -0.137465E+03  0.300E-01    1.63       0.0  T
   2   -137.4653318 -0.434049E-04  0.203E-01    1.62       1.0  T
   3   -137.4649848  0.347024E-03  0.552E-02    1.62       1.0  T
   4   -137.4653369 -0.352082E-03  0.275E-02    1.62       1.0  T
   5   -137.4653568 -0.199148E-04  0.162E-02    1.62       1.0  T
   6   -137.4653688 -0.120572E-04  0.652E-03    1.62       1.6  T
   7   -137.4653693 -0.494702E-06  0.438E-03    1.62       2.4  T
   8   -137.4653692  0.104617E-06  0.299E-03    1.62       3.5  T
   9   -137.4653694 -0.197151E-06  0.188E-03    1.62       5.6  T
  10   -137.4653695 -0.214158E-07  0.103E-03    1.62      10.2  T
  11   -137.4653695 -0.312491E-08  0.349E-04    1.62      30.2  T
  12   -137.4653695 -0.798482E-08  0.136E-04    1.62      77.2  T
     SCC iter.                  ...        0 min,  0.504 sec
     gradient                   ...        0 min,  0.022 sec
 * total energy  :  -135.4160526 Eh     change       -0.8359200E-02 Eh
   gradient norm :     0.0315159 Eh/α   predicted    -0.8122019E-02 (  -2.84%)
   displ. norm   :     0.9299403 α      lambda       -0.8977968E-02
   maximum displ.:     0.6898223 α      in ANC's #5, #10, #31, ...

........................................................................
.............................. CYCLE   12 ..............................
........................................................................

 iter      E             dE          RMSdq      gap      omega  full diag
   1   -137.4717272 -0.137472E+03  0.255E-01    1.62       0.0  T
   2   -137.4717631 -0.359043E-04  0.172E-01    1.61       1.0  T
   3   -137.4712699  0.493146E-03  0.628E-02    1.62       1.0  T
   4   -137.4717427 -0.472781E-03  0.253E-02    1.61       1.0  T
   5   -137.4717949 -0.522220E-04  0.144E-02    1.61       1.0  T
   6   -137.4718008 -0.585050E-05  0.517E-03    1.61       2.0  T
   7   -137.4718011 -0.329253E-06  0.247E-03    1.61       4.3  T
   8   -137.4718011  0.843215E-08  0.169E-03    1.61       6.2  T
   9   -137.4718012 -0.828256E-07  0.983E-04    1.61      10.7  T
  10   -137.4718012 -0.116997E-07  0.697E-04    1.61      15.1  T
     SCC iter.                  ...        0 min,  0.330 sec
     gradient                   ...        0 min,  0.022 sec
 * total energy  :  -135.4246487 Eh     change       -0.8596093E-02 Eh
   gradient norm :     0.0315250 Eh/α   predicted    -0.8371012E-02 (  -2.62%)
   displ. norm   :     0.9200173 α      lambda       -0.8961551E-02
   maximum displ.:     0.6936784 α      in ANC's #5, #10, #31, ...

........................................................................
.............................. CYCLE   13 ..............................
........................................................................

 iter      E             dE          RMSdq      gap      omega  full diag
   1   -137.4750775 -0.137475E+03  0.217E-01    1.61       0.0  T
   2   -137.4751068 -0.292527E-04  0.150E-01    1.61       1.0  T
   3   -137.4748675  0.239302E-03  0.439E-02    1.62       1.0  T
   4   -137.4751037 -0.236209E-03  0.208E-02    1.61       1.0  T
   5   -137.4751249 -0.211846E-04  0.119E-02    1.61       1.0  T
   6   -137.4751290 -0.412595E-05  0.447E-03    1.61       2.4  T
   7   -137.4751298 -0.796569E-06  0.175E-03    1.61       6.0  T
   8   -137.4751299 -0.452369E-07  0.930E-04    1.61      11.3  T
   9   -137.4751299 -0.267328E-07  0.388E-04    1.61      27.2  T
     SCC iter.                  ...        0 min,  0.352 sec
     gradient                   ...        0 min,  0.022 sec
 * total energy  :  -135.4331050 Eh     change       -0.8456343E-02 Eh
   gradient norm :     0.0280925 Eh/α   predicted    -0.8273460E-02 (  -2.16%)
   displ. norm   :     0.8742547 α      lambda       -0.8891027E-02
   maximum displ.:     0.6421294 α      in ANC's #5, #31, #10, ...

........................................................................
.............................. CYCLE   14 ..............................
........................................................................

 iter      E             dE          RMSdq      gap      omega  full diag
   1   -137.4898350 -0.137490E+03  0.178E-01    1.61       0.0  T
   2   -137.4898735 -0.385120E-04  0.113E-01    1.61       1.0  T
   3   -137.4897253  0.148208E-03  0.444E-02    1.62       1.0  T
   4   -137.4898620 -0.136651E-03  0.214E-02    1.61       1.0  T
   5   -137.4898865 -0.245155E-04  0.125E-02    1.61       1.0  T
   6   -137.4898871 -0.586395E-06  0.817E-03    1.61       1.3  T
   7   -137.4898905 -0.338970E-05  0.359E-03    1.61       2.9  T
   8   -137.4898906 -0.163418E-06  0.231E-03    1.61       4.6  T
   9   -137.4898907 -0.281634E-07  0.119E-03    1.61       8.9  T
  10   -137.4898907  0.640455E-09  0.754E-04    1.61      14.0  T
  11   -137.4898907 -0.780528E-08  0.333E-04    1.61      31.7  T
     SCC iter.                  ...        0 min,  0.391 sec
     gradient                   ...        0 min,  0.023 sec
 * total energy  :  -135.4404138 Eh     change       -0.7308741E-02 Eh
   gradient norm :     0.0330476 Eh/α   predicted    -0.7843320E-02 (   7.31%)
   displ. norm   :     0.9053456 α      lambda       -0.8966315E-02
   maximum displ.:     0.6717425 α      in ANC's #5, #10, #13, ...

........................................................................
.............................. CYCLE   15 ..............................
........................................................................

 iter      E             dE          RMSdq      gap      omega  full diag
   1   -137.4824893 -0.137482E+03  0.203E-01    1.60       0.0  T
   2   -137.4825350 -0.456492E-04  0.144E-01    1.61       1.0  T
   3   -137.4818954  0.639541E-03  0.780E-02    1.60       1.0  T
   4   -137.4825230 -0.627601E-03  0.291E-02    1.61       1.0  T
   5   -137.4825962 -0.731769E-04  0.154E-02    1.61       1.0  T
   6   -137.4825981 -0.193480E-05  0.875E-03    1.61       1.2  T
   7   -137.4826001 -0.194562E-05  0.419E-03    1.61       2.5  T
   8   -137.4826005 -0.434156E-06  0.283E-03    1.61       3.7  T
   9   -137.4826006 -0.291708E-07  0.159E-03    1.61       6.6  T
  10   -137.4826006 -0.367650E-07  0.737E-04    1.61      14.3  T
  11   -137.4826006 -0.117041E-07  0.379E-04    1.61      27.8  T
     SCC iter.                  ...        0 min,  0.393 sec
     gradient                   ...        0 min,  0.037 sec
 * total energy  :  -135.4472398 Eh     change       -0.6826087E-02 Eh
   gradient norm :     0.0267911 Eh/α   predicted    -0.8157798E-02 (  19.51%)
   displ. norm   :     0.8201971 α      lambda       -0.6741254E-02
   maximum displ.:     0.5754855 α      in ANC's #5, #10, #31, ...

........................................................................
.............................. CYCLE   16 ..............................
........................................................................

 iter      E             dE          RMSdq      gap      omega  full diag
   1   -137.4936137 -0.137494E+03  0.192E-01    1.61       0.0  T
   2   -137.4936310 -0.173010E-04  0.128E-01    1.61       1.0  T
   3   -137.4936268  0.422541E-05  0.271E-02    1.61       1.0  T
   4   -137.4936370 -0.102363E-04  0.128E-02    1.61       1.0  T
   5   -137.4936348  0.218451E-05  0.825E-03    1.61       1.3  T
   6   -137.4936381 -0.324517E-05  0.336E-03    1.61       3.1  T
   7   -137.4936383 -0.217468E-06  0.243E-03    1.61       4.3  T
   8   -137.4936385 -0.199554E-06  0.133E-03    1.61       7.9  T
   9   -137.4936385 -0.527614E-07  0.789E-04    1.61      13.4  T
  10   -137.4936385 -0.286872E-08  0.460E-04    1.61      22.9  T
     SCC iter.                  ...        0 min,  0.580 sec
     gradient                   ...        0 min,  0.023 sec
 * total energy  :  -135.4529119 Eh     change       -0.5672058E-02 Eh
   gradient norm :     0.0224027 Eh/α   predicted    -0.5638133E-02 (  -0.60%)
   displ. norm   :     0.7645537 α      lambda       -0.7561587E-02
   maximum displ.:     0.4308415 α      in ANC's #5, #68, #57, ...

........................................................................
.............................. CYCLE   17 ..............................
........................................................................

 iter      E             dE          RMSdq      gap      omega  full diag
   1   -137.5241653 -0.137524E+03  0.150E-01    1.59       0.0  T
   2   -137.5242523 -0.870553E-04  0.944E-02    1.61       1.0  T
   3   -137.5241116  0.140719E-03  0.644E-02    1.60       1.0  T
   4   -137.5242920 -0.180420E-03  0.293E-02    1.61       1.0  T
   5   -137.5242916  0.460163E-06  0.225E-02    1.61       1.0  T
   6   -137.5243054 -0.138706E-04  0.113E-02    1.61       1.0  T
   7   -137.5243109 -0.543316E-05  0.430E-03    1.61       2.4  T
   8   -137.5243110 -0.169148E-06  0.224E-03    1.61       4.7  T
   9   -137.5243111 -0.665221E-07  0.109E-03    1.61       9.7  T
  10   -137.5243112 -0.502123E-07  0.617E-04    1.61      17.1  T
  11   -137.5243112 -0.437450E-08  0.281E-04    1.61      37.5  T
     SCC iter.                  ...        0 min,  0.341 sec
     gradient                   ...        0 min,  0.022 sec
 * total energy  :  -135.4575471 Eh     change       -0.4635199E-02 Eh
   gradient norm :     0.0239917 Eh/α   predicted    -0.5990831E-02 (  29.25%)
   displ. norm   :     0.7927267 α      lambda       -0.5787638E-02
   maximum displ.:     0.5336824 α      in ANC's #5, #13, #31, ...

........................................................................
.............................. CYCLE   18 ..............................
........................................................................

 iter      E             dE          RMSdq      gap      omega  full diag
   1   -137.5102108 -0.137510E+03  0.122E-01    1.62       0.0  T
   2   -137.5102377 -0.268945E-04  0.768E-02    1.61       1.0  T
   3   -137.5100354  0.202331E-03  0.525E-02    1.62       1.0  T
   4   -137.5102480 -0.212631E-03  0.239E-02    1.61       1.0  T
   5   -137.5102618 -0.137935E-04  0.156E-02    1.61       1.0  T
   6   -137.5102599  0.191018E-05  0.883E-03    1.61       1.2  T
   7   -137.5102640 -0.409900E-05  0.328E-03    1.61       3.2  T
   8   -137.5102643 -0.258597E-06  0.174E-03    1.61       6.1  T
   9   -137.5102643 -0.859964E-08  0.862E-04    1.61      12.2  T
  10   -137.5102643 -0.108314E-07  0.455E-04    1.61      23.2  T
     SCC iter.                  ...        0 min,  0.315 sec
     gradient                   ...        0 min,  0.025 sec
 * total energy  :  -135.4614053 Eh     change       -0.3858237E-02 Eh
   gradient norm :     0.0243390 Eh/α   predicted    -0.4712347E-02 (  22.14%)
   displ. norm   :     0.7394577 α      lambda       -0.4573892E-02
   maximum displ.:     0.4987755 α      in ANC's #5, #10, #13, ...

........................................................................
.............................. CYCLE   19 ..............................
........................................................................

 iter      E             dE          RMSdq      gap      omega  full diag
   1   -137.5139604 -0.137514E+03  0.212E-01    1.62       0.0  T
   2   -137.5139929 -0.325432E-04  0.150E-01    1.61       1.0  T
   3   -137.5138280  0.164947E-03  0.453E-02    1.61       1.0  T
   4   -137.5139988 -0.170855E-03  0.206E-02    1.61       1.0  T
   5   -137.5139962  0.264285E-05  0.157E-02    1.61       1.0  T
   6   -137.5140125 -0.163211E-04  0.723E-03    1.61       1.5  T
   7   -137.5140147 -0.220392E-05  0.323E-03    1.61       3.3  T
   8   -137.5140147  0.147912E-07  0.223E-03    1.61       4.7  T
   9   -137.5140148 -0.909288E-07  0.103E-03    1.61      10.2  T
  10   -137.5140148 -0.191699E-07  0.374E-04    1.61      28.2  T
  11   -137.5140148 -0.213197E-08  0.187E-04    1.61      56.5  T
     SCC iter.                  ...        0 min,  0.378 sec
     gradient                   ...        0 min,  0.023 sec
 * total energy  :  -135.4640411 Eh     change       -0.2635763E-02 Eh
   gradient norm :     0.0200822 Eh/α   predicted    -0.3537445E-02 (  34.21%)
   displ. norm   :     0.6065813 α      lambda       -0.3223550E-02
   maximum displ.:     0.3588348 α      in ANC's #5, #9, #68, ...

........................................................................
.............................. CYCLE   20 ..............................
........................................................................

 iter      E             dE          RMSdq      gap      omega  full diag
   1   -137.5259529 -0.137526E+03  0.126E-01    1.60       0.0  T
   2   -137.5259742 -0.212865E-04  0.864E-02    1.61       1.0  T
   3   -137.5258332  0.141003E-03  0.455E-02    1.60       1.0  T
   4   -137.5259635 -0.130377E-03  0.229E-02    1.61       1.0  T
   5   -137.5259825 -0.189892E-04  0.146E-02    1.61       1.0  T
   6   -137.5259889 -0.635166E-05  0.657E-03    1.61       1.6  T
   7   -137.5259911 -0.219703E-05  0.217E-03    1.61       4.9  T
   8   -137.5259911 -0.511224E-08  0.126E-03    1.61       8.4  T
   9   -137.5259911 -0.361088E-07  0.606E-04    1.61      17.4  T
  10   -137.5259911 -0.117960E-07  0.306E-04    1.61      34.5  T
     SCC iter.                  ...        0 min,  0.382 sec
     gradient                   ...        0 min,  0.022 sec
 * total energy  :  -135.4656707 Eh     change       -0.1629575E-02 Eh
   gradient norm :     0.0210688 Eh/α   predicted    -0.2204821E-02 (  35.30%)
   displ. norm   :     0.5635960 α      lambda       -0.3179879E-02
   maximum displ.:     0.2892118 α      in ANC's #5, #13, #68, ...
 * RMSD in coord.:     1.3778798 α      energy gain  -0.1841773E+00 Eh

generating ANC from model Hessian ...
Using Lindh-Hessian (1995)
 Shifting diagonal of input Hessian by    9.9709500189522245E-003
 Lowest  eigenvalues of input Hessian
    0.000000    0.000000    0.000000    0.000000    0.000000    0.000000
    0.010000    0.010022    0.010038    0.010162    0.010295    0.010502
    0.010735    0.010896    0.011025    0.011251    0.011543    0.011929
 Highest eigenvalues
    2.121603    2.137342    2.150810    2.171730    2.190701    2.375439


........................................................................
.............................. CYCLE   21 ..............................
........................................................................

 iter      E             dE          RMSdq      gap      omega  full diag
   1   -137.5207598 -0.137521E+03  0.154E-01    1.60       0.0  T
   2   -137.5207876 -0.277794E-04  0.112E-01    1.61       1.0  T
   3   -137.5207055  0.821039E-04  0.414E-02    1.60       1.0  T
   4   -137.5207741 -0.686361E-04  0.244E-02    1.61       1.0  T
   5   -137.5207837 -0.955805E-05  0.164E-02    1.61       1.0  T
   6   -137.5207977 -0.140554E-04  0.739E-03    1.61       1.4  T
   7   -137.5208015 -0.377349E-05  0.255E-03    1.61       4.1  T
   8   -137.5208015 -0.439529E-07  0.152E-03    1.61       6.9  T
   9   -137.5208016 -0.189537E-07  0.852E-04    1.61      12.4  T
  10   -137.5208016 -0.292079E-07  0.361E-04    1.61      29.2  T
     SCC iter.                  ...        0 min,  0.346 sec
     gradient                   ...        0 min,  0.023 sec
 * total energy  :  -135.4665909 Eh     change       -0.9202738E-03 Eh
   gradient norm :     0.0286423 Eh/α   predicted     0.0000000E+00 (-100.00%)
   displ. norm   :     0.1726551 α      lambda       -0.1648629E-02
   maximum displ.:     0.0776238 α      in ANC's #7, #9, #23, ...

........................................................................
.............................. CYCLE   22 ..............................
........................................................................

 iter      E             dE          RMSdq      gap      omega  full diag
   1   -137.5288436 -0.137529E+03  0.535E-02    1.61       0.0  T
   2   -137.5288494 -0.574385E-05  0.345E-02    1.60       1.0  T
   3   -137.5288465  0.287804E-05  0.125E-02    1.61       1.0  T
   4   -137.5288494 -0.293130E-05  0.768E-03    1.60       1.4  T
   5   -137.5288494  0.425285E-07  0.531E-03    1.60       2.0  T
   6   -137.5288495 -0.143533E-06  0.325E-03    1.60       3.2  T
   7   -137.5288505 -0.967128E-06  0.940E-04    1.60      11.2  T
   8   -137.5288505 -0.246456E-07  0.485E-04    1.60      21.7  T
     SCC iter.                  ...        0 min,  0.262 sec
     gradient                   ...        0 min,  0.032 sec
 * total energy  :  -135.4677308 Eh     change       -0.1139859E-02 Eh
   gradient norm :     0.0094681 Eh/α   predicted    -0.8489057E-03 ( -25.53%)
   displ. norm   :     0.2697635 α      lambda       -0.7821617E-03
   maximum displ.:     0.1396525 α      in ANC's #7, #9, #23, ...

........................................................................
.............................. CYCLE   23 ..............................
........................................................................

 iter      E             dE          RMSdq      gap      omega  full diag
   1   -137.5329986 -0.137533E+03  0.386E-02    1.60       0.0  T
   2   -137.5330010 -0.239487E-05  0.240E-02    1.60       1.0  T
   3   -137.5329933  0.771211E-05  0.926E-03    1.60       1.1  T
   4   -137.5330010 -0.772588E-05  0.437E-03    1.60       2.4  T
   5   -137.5330017 -0.740691E-06  0.293E-03    1.60       3.6  T
   6   -137.5330020 -0.262929E-06  0.167E-03    1.60       6.3  T
   7   -137.5330021 -0.779574E-07  0.631E-04    1.60      16.7  T
   8   -137.5330021 -0.127133E-07  0.329E-04    1.60      32.1  T
     SCC iter.                  ...        0 min,  0.324 sec
     gradient                   ...        0 min,  0.025 sec
 * total energy  :  -135.4683061 Eh     change       -0.5753411E-03 Eh
   gradient norm :     0.0056241 Eh/α   predicted    -0.4196663E-03 ( -27.06%)
   displ. norm   :     0.4152157 α      lambda       -0.7253311E-03
   maximum displ.:     0.2116994 α      in ANC's #7, #9, #23, ...

........................................................................
.............................. CYCLE   24 ..............................
........................................................................

 iter      E             dE          RMSdq      gap      omega  full diag
   1   -137.5335061 -0.137534E+03  0.505E-02    1.60       0.0  T
   2   -137.5335086 -0.244459E-05  0.302E-02    1.60       1.0  T
   3   -137.5334953  0.132930E-04  0.109E-02    1.60       1.0  T
   4   -137.5335092 -0.139159E-04  0.323E-03    1.60       3.3  T
   5   -137.5335102 -0.965106E-06  0.155E-03    1.60       6.8  T
   6   -137.5335103 -0.170005E-06  0.740E-04    1.60      14.3  T
   7   -137.5335104 -0.171322E-07  0.376E-04    1.60      28.1  T
     SCC iter.                  ...        0 min,  0.273 sec
     gradient                   ...        0 min,  0.022 sec
 * total energy  :  -135.4689240 Eh     change       -0.6178649E-03 Eh
   gradient norm :     0.0109342 Eh/α   predicted    -0.4252248E-03 ( -31.18%)
   displ. norm   :     0.6273342 α      lambda       -0.9849507E-03
   maximum displ.:     0.3096810 α      in ANC's #7, #9, #23, ...

........................................................................
.............................. CYCLE   25 ..............................
........................................................................

 iter      E             dE          RMSdq      gap      omega  full diag
   1   -137.5296778 -0.137530E+03  0.786E-02    1.59       0.0  T
   2   -137.5296835 -0.569933E-05  0.469E-02    1.59       1.0  T
   3   -137.5296607  0.227998E-04  0.158E-02    1.59       1.0  T
   4   -137.5296848 -0.241027E-04  0.604E-03    1.59       1.7  T
   5   -137.5296862 -0.137530E-05  0.399E-03    1.59       2.6  T
   6   -137.5296864 -0.241428E-06  0.262E-03    1.59       4.0  T
   7   -137.5296867 -0.294337E-06  0.114E-03    1.59       9.3  T
   8   -137.5296868 -0.189702E-07  0.554E-04    1.59      19.0  T
   9   -137.5296868 -0.389883E-08  0.205E-04    1.59      51.5  T
     SCC iter.                  ...        0 min,  0.316 sec
     gradient                   ...        0 min,  0.022 sec
 * total energy  :  -135.4697080 Eh     change       -0.7840260E-03 Eh
   gradient norm :     0.0113575 Eh/α   predicted    -0.6862905E-03 ( -12.47%)
   displ. norm   :     0.5516049 α      lambda       -0.7459373E-03
   maximum displ.:     0.2873481 α      in ANC's #7, #9, #23, ...

........................................................................
.............................. CYCLE   26 ..............................
........................................................................

 iter      E             dE          RMSdq      gap      omega  full diag
   1   -137.5277678 -0.137528E+03  0.718E-02    1.59       0.0  T
   2   -137.5277715 -0.365358E-05  0.442E-02    1.59       1.0  T
   3   -137.5277562  0.152393E-04  0.135E-02    1.59       1.0  T
   4   -137.5277723 -0.161138E-04  0.639E-03    1.59       1.7  T
   5   -137.5277726 -0.308180E-06  0.455E-03    1.59       2.3  T
   6   -137.5277733 -0.634685E-06  0.256E-03    1.59       4.1  T
   7   -137.5277736 -0.373631E-06  0.100E-03    1.59      10.5  T
   8   -137.5277737 -0.177722E-07  0.519E-04    1.59      20.3  T
   9   -137.5277737 -0.629123E-08  0.220E-04    1.59      48.0  T
     SCC iter.                  ...        0 min,  0.435 sec
     gradient                   ...        0 min,  0.023 sec
 * total energy  :  -135.4702648 Eh     change       -0.5567813E-03 Eh
   gradient norm :     0.0109871 Eh/α   predicted    -0.4864534E-03 ( -12.63%)
   displ. norm   :     0.4139574 α      lambda       -0.6399213E-03
   maximum displ.:     0.2366509 α      in ANC's #7, #9, #14, ...

........................................................................
.............................. CYCLE   27 ..............................
........................................................................

 iter      E             dE          RMSdq      gap      omega  full diag
   1   -137.5324577 -0.137532E+03  0.594E-02    1.59       0.0  T
   2   -137.5324629 -0.514334E-05  0.380E-02    1.59       1.0  T
   3   -137.5324482  0.147290E-04  0.149E-02    1.59       1.0  T
   4   -137.5324649 -0.167382E-04  0.603E-03    1.59       1.7  T
   5   -137.5324656 -0.746676E-06  0.381E-03    1.59       2.8  T
   6   -137.5324657 -0.960169E-07  0.168E-03    1.59       6.3  T
   7   -137.5324659 -0.121823E-06  0.765E-04    1.59      13.8  T
   8   -137.5324658  0.467006E-08  0.547E-04    1.59      19.3  T
     SCC iter.                  ...        0 min,  0.266 sec
     gradient                   ...        0 min,  0.022 sec
 * total energy  :  -135.4707250 Eh     change       -0.4602185E-03 Eh
   gradient norm :     0.0072537 Eh/α   predicted    -0.3747895E-03 ( -18.56%)
   displ. norm   :     0.4911142 α      lambda       -0.4512375E-03
   maximum displ.:     0.2847222 α      in ANC's #7, #9, #14, ...

........................................................................
.............................. CYCLE   28 ..............................
........................................................................

 iter      E             dE          RMSdq      gap      omega  full diag
   1   -137.5327672 -0.137533E+03  0.639E-02    1.59       0.0  T
   2   -137.5327705 -0.336922E-05  0.385E-02    1.59       1.0  T
   3   -137.5327569  0.136427E-04  0.132E-02    1.59       1.0  T
   4   -137.5327725 -0.155815E-04  0.511E-03    1.59       2.1  T
   5   -137.5327725 -0.253382E-07  0.336E-03    1.59       3.1  T
   6   -137.5327723  0.185359E-06  0.216E-03    1.59       4.9  T
   7   -137.5327727 -0.339846E-06  0.101E-03    1.59      10.4  T
   8   -137.5327727 -0.425390E-07  0.508E-04    1.59      20.8  T
   9   -137.5327727 -0.792016E-08  0.200E-04    1.59      52.8  T
     SCC iter.                  ...        0 min,  0.249 sec
     gradient                   ...        0 min,  0.033 sec
 * total energy  :  -135.4710516 Eh     change       -0.3265960E-03 Eh
   gradient norm :     0.0080424 Eh/α   predicted    -0.2800489E-03 ( -14.25%)
   displ. norm   :     0.3899760 α      lambda       -0.3700489E-03
   maximum displ.:     0.2424646 α      in ANC's #7, #14, #17, ...

........................................................................
.............................. CYCLE   29 ..............................
........................................................................

 iter      E             dE          RMSdq      gap      omega  full diag
   1   -137.5378679 -0.137538E+03  0.512E-02    1.59       0.0  T
   2   -137.5378712 -0.325877E-05  0.302E-02    1.59       1.0  T
   3   -137.5378631  0.805018E-05  0.105E-02    1.59       1.0  T
   4   -137.5378725 -0.937413E-05  0.313E-03    1.59       3.4  T
   5   -137.5378727 -0.231847E-06  0.192E-03    1.59       5.5  T
   6   -137.5378727  0.137494E-07  0.115E-03    1.59       9.2  T
   7   -137.5378728 -0.362028E-07  0.609E-04    1.59      17.3  T
   8   -137.5378728 -0.240746E-08  0.389E-04    1.59      27.1  T
     SCC iter.                  ...        0 min,  0.312 sec
     gradient                   ...        0 min,  0.022 sec
 * total energy  :  -135.4712841 Eh     change       -0.2324889E-03 Eh
   gradient norm :     0.0055320 Eh/α   predicted    -0.2131720E-03 (  -8.31%)
   displ. norm   :     0.3997634 α      lambda       -0.2064300E-03
   maximum displ.:     0.2433129 α      in ANC's #7, #14, #17, ...

........................................................................
.............................. CYCLE   30 ..............................
........................................................................

 iter      E             dE          RMSdq      gap      omega  full diag
   1   -137.5352965 -0.137535E+03  0.525E-02    1.59       0.0  T
   2   -137.5352990 -0.247141E-05  0.312E-02    1.58       1.0  T
   3   -137.5352880  0.109696E-04  0.107E-02    1.58       1.0  T
   4   -137.5353003 -0.122388E-04  0.299E-03    1.58       3.5  T
   5   -137.5353006 -0.292143E-06  0.195E-03    1.58       5.4  T
   6   -137.5353007 -0.109397E-06  0.119E-03    1.58       8.9  T
   7   -137.5353008 -0.775648E-07  0.519E-04    1.58      20.3  T
   8   -137.5353008 -0.693379E-08  0.301E-04    1.58      35.0  T
     SCC iter.                  ...        0 min,  0.362 sec
     gradient                   ...        0 min,  0.024 sec
 * total energy  :  -135.4714068 Eh     change       -0.1226303E-03 Eh
   gradient norm :     0.0053258 Eh/α   predicted    -0.1197111E-03 (  -2.38%)
   displ. norm   :     0.1643260 α      lambda       -0.1132008E-03
   maximum displ.:     0.1030306 α      in ANC's #7, #14, #17, ...

........................................................................
.............................. CYCLE   31 ..............................
........................................................................

 iter      E             dE          RMSdq      gap      omega  full diag
   1   -137.5377955 -0.137538E+03  0.250E-02    1.58       0.0  T
   2   -137.5377962 -0.708741E-06  0.160E-02    1.58       1.0  T
   3   -137.5377892  0.697401E-05  0.818E-03    1.58       1.3  T
   4   -137.5377961 -0.689107E-05  0.318E-03    1.58       3.3  T
   5   -137.5377968 -0.699351E-06  0.186E-03    1.58       5.7  T
   6   -137.5377970 -0.130584E-06  0.970E-04    1.58      10.9  T
   7   -137.5377970 -0.169730E-07  0.340E-04    1.58      31.0  T
     SCC iter.                  ...        0 min,  0.196 sec
     gradient                   ...        0 min,  0.022 sec
 * total energy  :  -135.4714729 Eh     change       -0.6611572E-04 Eh
   gradient norm :     0.0031279 Eh/α   predicted    -0.5814273E-04 ( -12.06%)
   displ. norm   :     0.2084684 α      lambda       -0.9389926E-04
   maximum displ.:     0.1195667 α      in ANC's #7, #14, #17, ...

........................................................................
.............................. CYCLE   32 ..............................
........................................................................

 iter      E             dE          RMSdq      gap      omega  full diag
   1   -137.5372634 -0.137537E+03  0.320E-02    1.58       0.0  T
   2   -137.5372647 -0.131091E-05  0.192E-02    1.58       1.0  T
   3   -137.5372585  0.619230E-05  0.888E-03    1.58       1.2  T
   4   -137.5372651 -0.655800E-05  0.404E-03    1.58       2.6  T
   5   -137.5372655 -0.439979E-06  0.287E-03    1.58       3.7  T
   6   -137.5372654  0.146282E-06  0.186E-03    1.58       5.7  T
   7   -137.5372656 -0.199368E-06  0.475E-04    1.58      22.2  T
   8   -137.5372656 -0.679702E-08  0.258E-04    1.58      40.9  T
     SCC iter.                  ...        0 min,  0.426 sec
     gradient                   ...        0 min,  0.022 sec
 * total energy  :  -135.4715136 Eh     change       -0.4076043E-04 Eh
   gradient norm :     0.0045409 Eh/α   predicted    -0.4899042E-04 (  20.19%)
   displ. norm   :     0.0740392 α      lambda       -0.5572466E-04
   maximum displ.:     0.0363553 α      in ANC's #9, #5, #10, ...

........................................................................
.............................. CYCLE   33 ..............................
........................................................................

 iter      E             dE          RMSdq      gap      omega  full diag
   1   -137.5378472 -0.137538E+03  0.114E-02    1.58       0.0  T
   2   -137.5378477 -0.516827E-06  0.648E-03    1.58       1.6  T
   3   -137.5378475  0.191558E-06  0.323E-03    1.58       3.3  T
   4   -137.5378478 -0.274186E-06  0.146E-03    1.58       7.2  T
   5   -137.5378478 -0.363820E-07  0.107E-03    1.58       9.8  T
   6   -137.5378478  0.355795E-07  0.719E-04    1.58      14.7  T
   7   -137.5378478 -0.417037E-07  0.213E-04    1.58      49.4  T
     SCC iter.                  ...        0 min,  0.371 sec
     gradient                   ...        0 min,  0.024 sec
 * total energy  :  -135.4715527 Eh     change       -0.3904746E-04 Eh
   gradient norm :     0.0030578 Eh/α   predicted    -0.2801582E-04 ( -28.25%)
   displ. norm   :     0.1699101 α      lambda       -0.9571707E-04
   maximum displ.:     0.0785459 α      in ANC's #9, #21, #5, ...

........................................................................
.............................. CYCLE   34 ..............................
........................................................................

 iter      E             dE          RMSdq      gap      omega  full diag
   1   -137.5367098 -0.137537E+03  0.242E-02    1.58       0.0  T
   2   -137.5367110 -0.120051E-05  0.148E-02    1.58       1.0  T
   3   -137.5367089  0.214501E-05  0.684E-03    1.58       1.5  T
   4   -137.5367113 -0.247245E-05  0.315E-03    1.58       3.3  T
   5   -137.5367115 -0.143595E-06  0.228E-03    1.58       4.6  T
   6   -137.5367113  0.196212E-06  0.167E-03    1.58       6.3  T
   7   -137.5367115 -0.233384E-06  0.481E-04    1.58      21.9  T
   8   -137.5367115 -0.990420E-08  0.260E-04    1.58      40.6  T
     SCC iter.                  ...        0 min,  0.331 sec
     gradient                   ...        0 min,  0.022 sec
 * total energy  :  -135.4715998 Eh     change       -0.4714226E-04 Eh
   gradient norm :     0.0036431 Eh/α   predicted    -0.4924038E-04 (   4.45%)
   displ. norm   :     0.1188158 α      lambda       -0.5280268E-04
   maximum displ.:     0.0616227 α      in ANC's #9, #5, #8, ...

........................................................................
.............................. CYCLE   35 ..............................
........................................................................

 iter      E             dE          RMSdq      gap      omega  full diag
   1   -137.5369764 -0.137537E+03  0.155E-02    1.58       0.0  T
   2   -137.5369767 -0.381031E-06  0.946E-03    1.58       1.1  T
   3   -137.5369757  0.995137E-06  0.391E-03    1.58       2.7  T
   4   -137.5369768 -0.105144E-05  0.149E-03    1.58       7.1  T
   5   -137.5369769 -0.118070E-06  0.923E-04    1.58      11.4  T
   6   -137.5369769 -0.159851E-07  0.646E-04    1.58      16.3  T
     SCC iter.                  ...        0 min,  0.285 sec
     gradient                   ...        0 min,  0.024 sec
 * total energy  :  -135.4716378 Eh     change       -0.3794716E-04 Eh
   gradient norm :     0.0029730 Eh/α   predicted    -0.2677481E-04 ( -29.44%)
   displ. norm   :     0.1580842 α      lambda       -0.5523553E-04
   maximum displ.:     0.0822506 α      in ANC's #9, #5, #10, ...

........................................................................
.............................. CYCLE   36 ..............................
........................................................................

 iter      E             dE          RMSdq      gap      omega  full diag
   1   -137.5367466 -0.137537E+03  0.186E-02    1.58       0.0  T
   2   -137.5367470 -0.434442E-06  0.111E-02    1.58       1.0  T
   3   -137.5367458  0.124652E-05  0.406E-03    1.58       2.6  T
   4   -137.5367471 -0.132097E-05  0.131E-03    1.58       8.0  T
   5   -137.5367473 -0.129177E-06  0.648E-04    1.58      16.3  T
   6   -137.5367473 -0.190914E-07  0.419E-04    1.58      25.1  T
     SCC iter.                  ...        0 min,  0.250 sec
     gradient                   ...        0 min,  0.024 sec
 * total energy  :  -135.4716779 Eh     change       -0.4013467E-04 Eh
   gradient norm :     0.0029086 Eh/α   predicted    -0.2831245E-04 ( -29.46%)
   displ. norm   :     0.2004774 α      lambda       -0.5759197E-04
   maximum displ.:     0.1069502 α      in ANC's #9, #5, #10, ...

........................................................................
.............................. CYCLE   37 ..............................
........................................................................

 iter      E             dE          RMSdq      gap      omega  full diag
   1   -137.5368782 -0.137537E+03  0.239E-02    1.58       0.0  T
   2   -137.5368788 -0.615116E-06  0.142E-02    1.58       1.0  T
   3   -137.5368773  0.149213E-05  0.505E-03    1.58       2.1  T
   4   -137.5368790 -0.173332E-05  0.216E-03    1.58       4.9  T
   5   -137.5368791 -0.304573E-07  0.158E-03    1.58       6.7  T
   6   -137.5368790  0.768104E-07  0.115E-03    1.58       9.1  T
   7   -137.5368791 -0.103419E-06  0.440E-04    1.58      23.9  T
   8   -137.5368791 -0.546933E-08  0.217E-04    1.58      48.6  T
     SCC iter.                  ...        0 min,  0.401 sec
     gradient                   ...        0 min,  0.031 sec
 * total energy  :  -135.4717148 Eh     change       -0.3691981E-04 Eh
   gradient norm :     0.0031563 Eh/α   predicted    -0.2995498E-04 ( -18.86%)
   displ. norm   :     0.1653013 α      lambda       -0.4486409E-04
   maximum displ.:     0.0860345 α      in ANC's #9, #5, #10, ...

........................................................................
.............................. CYCLE   38 ..............................
........................................................................

 iter      E             dE          RMSdq      gap      omega  full diag
   1   -137.5365930 -0.137537E+03  0.197E-02    1.58       0.0  T
   2   -137.5365935 -0.421443E-06  0.115E-02    1.58       1.0  T
   3   -137.5365927  0.723316E-06  0.350E-03    1.58       3.0  T
   4   -137.5365936 -0.880551E-06  0.117E-03    1.58       9.0  T
   5   -137.5365936 -0.180187E-07  0.763E-04    1.58      13.8  T
   6   -137.5365936  0.140692E-07  0.499E-04    1.58      21.1  T
     SCC iter.                  ...        0 min,  0.254 sec
     gradient                   ...        0 min,  0.023 sec
 * total energy  :  -135.4717421 Eh     change       -0.2732020E-04 Eh
   gradient norm :     0.0031033 Eh/α   predicted    -0.2304662E-04 ( -15.64%)
   displ. norm   :     0.1363301 α      lambda       -0.3523832E-04
   maximum displ.:     0.0513675 α      in ANC's #5, #9, #17, ...

........................................................................
.............................. CYCLE   39 ..............................
........................................................................

 iter      E             dE          RMSdq      gap      omega  full diag
   1   -137.5360658 -0.137536E+03  0.164E-02    1.57       0.0  T
   2   -137.5360660 -0.231070E-06  0.987E-03    1.57       1.1  T
   3   -137.5360641  0.187948E-05  0.407E-03    1.57       2.6  T
   4   -137.5360661 -0.192804E-05  0.129E-03    1.57       8.2  T
   5   -137.5360662 -0.143949E-06  0.622E-04    1.57      16.9  T
   6   -137.5360662 -0.731256E-08  0.357E-04    1.57      29.5  T
     SCC iter.                  ...        0 min,  0.163 sec
     gradient                   ...        0 min,  0.022 sec
 * total energy  :  -135.4717678 Eh     change       -0.2569114E-04 Eh
   gradient norm :     0.0025842 Eh/α   predicted    -0.1794736E-04 ( -30.14%)
   displ. norm   :     0.1430898 α      lambda       -0.4682556E-04
   maximum displ.:     0.0504747 α      in ANC's #5, #2, #8, ...

........................................................................
.............................. CYCLE   40 ..............................
........................................................................

 iter      E             dE          RMSdq      gap      omega  full diag
   1   -137.5368483 -0.137537E+03  0.194E-02    1.57       0.0  T
   2   -137.5368485 -0.182385E-06  0.116E-02    1.57       1.0  T
   3   -137.5368445  0.397811E-05  0.567E-03    1.57       1.9  T
   4   -137.5368487 -0.418408E-05  0.124E-03    1.57       8.5  T
   5   -137.5368488 -0.114528E-06  0.629E-04    1.57      16.8  T
   6   -137.5368488 -0.267781E-08  0.383E-04    1.57      27.5  T
     SCC iter.                  ...        0 min,  0.170 sec
     gradient                   ...        0 min,  0.022 sec
 * total energy  :  -135.4717975 Eh     change       -0.2969877E-04 Eh
   gradient norm :     0.0024784 Eh/α   predicted    -0.2389396E-04 ( -19.55%)
   displ. norm   :     0.1802907 α      lambda       -0.3604510E-04
   maximum displ.:     0.0687557 α      in ANC's #8, #17, #5, ...

........................................................................
.............................. CYCLE   41 ..............................
........................................................................

 iter      E             dE          RMSdq      gap      omega  full diag
   1   -137.5355568 -0.137536E+03  0.224E-02    1.57       0.0  T
   2   -137.5355572 -0.368094E-06  0.134E-02    1.57       1.0  T
   3   -137.5355529  0.433400E-05  0.595E-03    1.57       1.8  T
   4   -137.5355574 -0.454085E-05  0.177E-03    1.57       6.0  T
   5   -137.5355576 -0.149943E-06  0.107E-03    1.57       9.9  T
   6   -137.5355576 -0.548755E-08  0.706E-04    1.57      14.9  T
   7   -137.5355576 -0.125271E-07  0.309E-04    1.57      34.1  T
     SCC iter.                  ...        0 min,  0.216 sec
     gradient                   ...        0 min,  0.023 sec
 * total energy  :  -135.4718211 Eh     change       -0.2352527E-04 Eh
   gradient norm :     0.0030945 Eh/α   predicted    -0.1860981E-04 ( -20.89%)
   displ. norm   :     0.1583087 α      lambda       -0.4191210E-04
   maximum displ.:     0.0706301 α      in ANC's #8, #2, #5, ...

........................................................................
.............................. CYCLE   42 ..............................
........................................................................

 iter      E             dE          RMSdq      gap      omega  full diag
   1   -137.5360806 -0.137536E+03  0.192E-02    1.57       0.0  T
   2   -137.5360808 -0.182986E-06  0.117E-02    1.57       1.0  T
   3   -137.5360789  0.185632E-05  0.398E-03    1.57       2.6  T
   4   -137.5360807 -0.181045E-05  0.171E-03    1.57       6.2  T
   5   -137.5360809 -0.187207E-06  0.112E-03    1.57       9.4  T
   6   -137.5360810 -0.476128E-07  0.564E-04    1.57      18.7  T
   7   -137.5360810 -0.176232E-08  0.267E-04    1.57      39.4  T
     SCC iter.                  ...        0 min,  0.398 sec
     gradient                   ...        0 min,  0.023 sec
 * total energy  :  -135.4718542 Eh     change       -0.3311191E-04 Eh
   gradient norm :     0.0028481 Eh/α   predicted    -0.2148506E-04 ( -35.11%)
   displ. norm   :     0.2784919 α      lambda       -0.6884646E-04
   maximum displ.:     0.1380487 α      in ANC's #8, #2, #5, ...
 * RMSD in coord.:     0.4513016 α      energy gain  -0.6183495E-02 Eh

generating ANC from model Hessian ...
Using Lindh-Hessian (1995)
 Shifting diagonal of input Hessian by    9.9670862291068290E-003
 Lowest  eigenvalues of input Hessian
    0.000000    0.000000    0.000000    0.000000    0.000000    0.000000
    0.010000    0.010037    0.010049    0.010165    0.010294    0.010506
    0.010754    0.010940    0.011029    0.011185    0.011589    0.011811
 Highest eigenvalues
    2.119343    2.135939    2.152492    2.177483    2.193656    2.375962


........................................................................
.............................. CYCLE   43 ..............................
........................................................................

 iter      E             dE          RMSdq      gap      omega  full diag
   1   -137.5364857 -0.137536E+03  0.306E-02    1.57       0.0  T
   2   -137.5364862 -0.424474E-06  0.188E-02    1.57       1.0  T
   3   -137.5364849  0.123015E-05  0.448E-03    1.57       2.4  T
   4   -137.5364861 -0.119475E-05  0.288E-03    1.57       3.7  T
   5   -137.5364863 -0.136758E-06  0.193E-03    1.57       5.5  T
   6   -137.5364864 -0.114433E-06  0.100E-03    1.57      10.5  T
   7   -137.5364864 -0.359480E-07  0.461E-04    1.57      22.9  T
   8   -137.5364864 -0.398038E-08  0.223E-04    1.57      47.2  T
     SCC iter.                  ...        0 min,  0.205 sec
     gradient                   ...        0 min,  0.022 sec
 * total energy  :  -135.4719090 Eh     change       -0.5484813E-04 Eh
   gradient norm :     0.0028992 Eh/α   predicted     0.0000000E+00 (-100.00%)
   displ. norm   :     0.0394918 α      lambda       -0.3406238E-04
   maximum displ.:     0.0193336 α      in ANC's #8, #26, #9, ...

........................................................................
.............................. CYCLE   44 ..............................
........................................................................

 iter      E             dE          RMSdq      gap      omega  full diag
   1   -137.5370275 -0.137537E+03  0.731E-03    1.57       0.0  T
   2   -137.5370276 -0.585155E-07  0.446E-03    1.57       2.4  T
   3   -137.5370267  0.867478E-06  0.289E-03    1.57       3.6  T
   4   -137.5370276 -0.923614E-06  0.858E-04    1.57      12.3  T
   5   -137.5370277 -0.506864E-07  0.474E-04    1.57      22.2  T
     SCC iter.                  ...        0 min,  0.194 sec
     gradient                   ...        0 min,  0.023 sec
 * total energy  :  -135.4719371 Eh     change       -0.2804153E-04 Eh
   gradient norm :     0.0014339 Eh/α   predicted    -0.1710596E-04 ( -39.00%)
   displ. norm   :     0.1826702 α      lambda       -0.6310578E-04
   maximum displ.:     0.0927071 α      in ANC's #8, #9, #6, ...

........................................................................
.............................. CYCLE   45 ..............................
........................................................................

 iter      E             dE          RMSdq      gap      omega  full diag
   1   -137.5381268 -0.137538E+03  0.274E-02    1.57       0.0  T
   2   -137.5381274 -0.562633E-06  0.163E-02    1.57       1.0  T
   3   -137.5381174  0.997157E-05  0.954E-03    1.57       1.1  T
   4   -137.5381279 -0.104940E-04  0.262E-03    1.57       4.0  T
   5   -137.5381284 -0.490973E-06  0.133E-03    1.57       7.9  T
   6   -137.5381284 -0.123599E-07  0.915E-04    1.57      11.5  T
   7   -137.5381284 -0.212058E-07  0.374E-04    1.57      28.2  T
     SCC iter.                  ...        0 min,  0.360 sec
     gradient                   ...        0 min,  0.024 sec
 * total energy  :  -135.4719828 Eh     change       -0.4578078E-04 Eh
   gradient norm :     0.0031309 Eh/α   predicted    -0.3202110E-04 ( -30.06%)
   displ. norm   :     0.0486725 α      lambda       -0.2074178E-04
   maximum displ.:     0.0259527 α      in ANC's #8, #6, #3, ...

........................................................................
.............................. CYCLE   46 ..............................
........................................................................

 iter      E             dE          RMSdq      gap      omega  full diag
   1   -137.5379782 -0.137538E+03  0.601E-03    1.57       0.0  T
   2   -137.5379783 -0.247509E-07  0.361E-03    1.57       2.9  T
   3   -137.5379781  0.201687E-06  0.145E-03    1.57       7.3  T
   4   -137.5379783 -0.206825E-06  0.587E-04    1.57      18.0  T
   5   -137.5379783 -0.145888E-07  0.393E-04    1.57      26.8  T
     SCC iter.                  ...        0 min,  0.217 sec
     gradient                   ...        0 min,  0.022 sec
 * total energy  :  -135.4720022 Eh     change       -0.1932948E-04 Eh
   gradient norm :     0.0024712 Eh/α   predicted    -0.1039586E-04 ( -46.22%)
   displ. norm   :     0.2550525 α      lambda       -0.9652150E-04
   maximum displ.:     0.1290319 α      in ANC's #8, #6, #3, ...

........................................................................
.............................. CYCLE   47 ..............................
........................................................................

 iter      E             dE          RMSdq      gap      omega  full diag
   1   -137.5368480 -0.137537E+03  0.298E-02    1.57       0.0  T
   2   -137.5368486 -0.544112E-06  0.181E-02    1.57       1.0  T
   3   -137.5368418  0.674662E-05  0.834E-03    1.57       1.3  T
   4   -137.5368489 -0.702544E-05  0.302E-03    1.57       3.5  T
   5   -137.5368492 -0.301430E-06  0.210E-03    1.57       5.0  T
   6   -137.5368493 -0.866048E-07  0.111E-03    1.57       9.5  T
   7   -137.5368493 -0.392419E-07  0.489E-04    1.57      21.6  T
   8   -137.5368493 -0.611206E-08  0.253E-04    1.57      41.7  T
     SCC iter.                  ...        0 min,  0.292 sec
     gradient                   ...        0 min,  0.036 sec
 * total energy  :  -135.4720718 Eh     change       -0.6959291E-04 Eh
   gradient norm :     0.0017847 Eh/α   predicted    -0.5140059E-04 ( -26.14%)
   displ. norm   :     0.3899935 α      lambda       -0.5557563E-04
   maximum displ.:     0.1989668 α      in ANC's #8, #6, #3, ...

........................................................................
.............................. CYCLE   48 ..............................
........................................................................

 iter      E             dE          RMSdq      gap      omega  full diag
   1   -137.5350692 -0.137535E+03  0.407E-02    1.57       0.0  T
   2   -137.5350701 -0.918035E-06  0.244E-02    1.57       1.0  T
   3   -137.5350663  0.379884E-05  0.694E-03    1.57       1.5  T
   4   -137.5350703 -0.395270E-05  0.319E-03    1.57       3.3  T
   5   -137.5350705 -0.219258E-06  0.224E-03    1.57       4.7  T
   6   -137.5350706 -0.104689E-06  0.128E-03    1.57       8.2  T
   7   -137.5350707 -0.662166E-07  0.626E-04    1.57      16.8  T
   8   -137.5350707 -0.783163E-08  0.310E-04    1.57      34.0  T
     SCC iter.                  ...        0 min,  0.357 sec
     gradient                   ...        0 min,  0.023 sec
 * total energy  :  -135.4721227 Eh     change       -0.5091040E-04 Eh
   gradient norm :     0.0044904 Eh/α   predicted    -0.2966639E-04 ( -41.73%)
   displ. norm   :     0.1440987 α      lambda       -0.4376486E-04
   maximum displ.:     0.0744921 α      in ANC's #8, #6, #3, ...

........................................................................
.............................. CYCLE   49 ..............................
........................................................................

 iter      E             dE          RMSdq      gap      omega  full diag
   1   -137.5357092 -0.137536E+03  0.124E-02    1.57       0.0  T
   2   -137.5357093 -0.858984E-07  0.751E-03    1.57       1.4  T
   3   -137.5357088  0.512927E-06  0.230E-03    1.57       4.6  T
   4   -137.5357093 -0.508214E-06  0.106E-03    1.57       9.9  T
   5   -137.5357094 -0.506933E-07  0.700E-04    1.57      15.1  T
   6   -137.5357094 -0.110103E-07  0.371E-04    1.57      28.4  T
     SCC iter.                  ...        0 min,  0.248 sec
     gradient                   ...        0 min,  0.022 sec
 * total energy  :  -135.4721628 Eh     change       -0.4012579E-04 Eh
   gradient norm :     0.0036763 Eh/α   predicted    -0.2233812E-04 ( -44.33%)
   displ. norm   :     0.4069249 α      lambda       -0.1398696E-03
   maximum displ.:     0.2088662 α      in ANC's #8, #6, #3, ...

........................................................................
.............................. CYCLE   50 ..............................
........................................................................

 iter      E             dE          RMSdq      gap      omega  full diag
   1   -137.5372888 -0.137537E+03  0.343E-02    1.57       0.0  T
   2   -137.5372895 -0.633469E-06  0.210E-02    1.57       1.0  T
   3   -137.5372825  0.697595E-05  0.813E-03    1.57       1.3  T
   4   -137.5372897 -0.719897E-05  0.323E-03    1.57       3.3  T
   5   -137.5372900 -0.334233E-06  0.218E-03    1.57       4.8  T
   6   -137.5372901 -0.840920E-07  0.106E-03    1.57      10.0  T
   7   -137.5372901 -0.225676E-07  0.489E-04    1.57      21.5  T
   8   -137.5372901 -0.247292E-08  0.242E-04    1.57      43.5  T
     SCC iter.                  ...        0 min,  0.237 sec
     gradient                   ...        0 min,  0.022 sec
 * total energy  :  -135.4722747 Eh     change       -0.1118901E-03 Eh
   gradient norm :     0.0014849 Eh/α   predicted    -0.8151633E-04 ( -27.15%)
   displ. norm   :     0.7824246 α      lambda       -0.1262123E-03
   maximum displ.:     0.4024127 α      in ANC's #8, #6, #3, ...

........................................................................
.............................. CYCLE   51 ..............................
........................................................................

 iter      E             dE          RMSdq      gap      omega  full diag
   1   -137.5356634 -0.137536E+03  0.656E-02    1.57       0.0  T
   2   -137.5356662 -0.280867E-05  0.401E-02    1.57       1.0  T
   3   -137.5356462  0.200639E-04  0.144E-02    1.57       1.0  T
   4   -137.5356668 -0.206523E-04  0.602E-03    1.57       1.7  T
   5   -137.5356680 -0.121763E-05  0.425E-03    1.57       2.5  T
   6   -137.5356685 -0.415804E-06  0.213E-03    1.57       5.0  T
   7   -137.5356686 -0.954678E-07  0.922E-04    1.57      11.4  T
   8   -137.5356686 -0.994999E-08  0.465E-04    1.57      22.7  T
     SCC iter.                  ...        0 min,  0.230 sec
     gradient                   ...        0 min,  0.022 sec
 * total energy  :  -135.4723868 Eh     change       -0.1121049E-03 Eh
   gradient norm :     0.0048198 Eh/α   predicted    -0.8028141E-04 ( -28.39%)
   displ. norm   :     0.2155043 α      lambda       -0.1105050E-03
   maximum displ.:     0.0936075 α      in ANC's #8, #3, #6, ...

........................................................................
.............................. CYCLE   52 ..............................
........................................................................

 iter      E             dE          RMSdq      gap      omega  full diag
   1   -137.5389236 -0.137539E+03  0.259E-02    1.57       0.0  T
   2   -137.5389244 -0.806670E-06  0.155E-02    1.57       1.0  T
   3   -137.5389234  0.108427E-05  0.418E-03    1.57       2.5  T
   4   -137.5389245 -0.111930E-05  0.192E-03    1.57       5.5  T
   5   -137.5389246 -0.163810E-06  0.127E-03    1.57       8.3  T
   6   -137.5389247 -0.203322E-07  0.841E-04    1.57      12.5  T
   7   -137.5389247 -0.359121E-07  0.330E-04    1.57      31.9  T
     SCC iter.                  ...        0 min,  0.220 sec
[...]
    28   6 C        2.927    -0.031    28.783     8.798
    29   6 C        2.892     0.045    26.983     8.517
    30   6 C        3.879     0.045    19.777     6.323
    31   6 C        3.880     0.045    19.774     6.322
    32   6 C        3.760    -0.115    22.742     6.798
    33   6 C        3.759    -0.113    22.720     6.795
    34   6 C        3.759    -0.112    22.696     6.792
    35   6 C        3.760    -0.112    22.696     6.791
    36  35 Br       1.077    -0.176   189.932    22.221
    37   7 N        2.798    -0.046    22.133     6.987
    38  14 Si       3.506     0.483   100.775    19.413
    39   6 C        3.698    -0.171    24.007     7.008
    40   6 C        3.715     0.092    19.174     6.256
    41   8 O        1.702    -0.321    19.368     5.942
    42   6 C        3.649    -0.210    25.039     7.189
    43   6 C        3.648    -0.208    25.009     7.185
    44   6 C        3.648    -0.208    25.009     7.185
    45   6 C        3.644     0.156    18.388     6.164
    46   7 N        2.803     0.190    18.095     6.318
    47   8 O        0.925    -0.444    22.537     6.367
    48   7 N        2.803     0.189    18.105     6.320
    49   8 O        0.925    -0.444    22.554     6.369
    50   1 H        0.925     0.045     2.384     2.414
    51   1 H        0.925     0.054     2.269     2.356
    52   1 H        0.925     0.071     2.076     2.253
    53   1 H        0.925     0.052     2.301     2.372
    54   1 H        0.925     0.074     2.038     2.232
    55   1 H        0.925     0.049     2.331     2.387
    56   1 H        0.925     0.051     2.303     2.373
    57   1 H        0.925     0.075     2.035     2.231
    58   1 H        0.925     0.050     2.322     2.383
    59   1 H        0.925     0.049     2.332     2.388
    60   1 H        0.925     0.053     2.282     2.362
    61   1 H        0.925     0.068     2.103     2.268
    62   1 H        0.926     0.057     2.238     2.339
    63   1 H        0.926     0.041     2.430     2.438
    64   1 H        0.926     0.065     2.141     2.288
    65   1 H        0.926     0.037     2.487     2.466
    66   1 H        0.926     0.033     2.539     2.492
    67   1 H        0.926     0.036     2.507     2.476
    68   1 H        0.926     0.031     2.575     2.509
    69   1 H        0.923     0.028     2.614     2.528
    70   1 H        0.923     0.027     2.626     2.534
    71   1 H        0.923     0.005     2.969     2.695
    72   1 H        0.923     0.006     2.963     2.692
    73   1 H        0.925     0.042     2.427     2.436
    74   1 H        0.925     0.040     2.448     2.447
    75   1 H        0.925     0.032     2.560     2.502
    76   1 H        0.925     0.039     2.466     2.456
    77   1 H        0.925     0.038     2.471     2.458
    78   1 H        0.925     0.037     2.494     2.470
    79   1 H        0.925     0.032     2.551     2.498
    80   1 H        0.925     0.037     2.488     2.467
    81   1 H        0.925     0.032     2.562     2.503
    82   1 H        0.925     0.038     2.470     2.458
    83   1 H        0.925     0.038     2.471     2.458
    84   1 H        0.926     0.032     2.560     2.502
    85   1 H        0.926     0.034     2.524     2.485
    86   1 H        0.926     0.030     2.580     2.512
    87   1 H        0.925     0.023     2.682     2.561
    88   1 H        0.926     0.046     2.365     2.405
    89   1 H        0.926     0.056     2.245     2.343
    90   1 H        0.926     0.054     2.273     2.357

 Mol. C6AA /au·bohr⁶  :     105360.558745
 Mol. C8AA /au·bohr⁸  :    2785155.595731
 Mol. α(0) /au        :        513.244245


Wiberg/Mayer (AO) data.
largest (>0.10) Wiberg bond orders for each atom

 ---------------------------------------------------------------------------
     #   Z sym  total        # sym  WBO       # sym  WBO       # sym  WBO
 ---------------------------------------------------------------------------
     1   6 C    3.982 --     2 C    1.517     6 C    1.308    88 H    0.965
                             4 C    0.106
     2   6 C    3.979 --     1 C    1.517     3 C    1.332    89 H    0.968
     3   6 C    3.929 --     4 C    1.483     2 C    1.332    36 Br   0.971
     4   6 C    3.989 --     3 C    1.483     5 C    1.311    90 H    0.961
                             1 C    0.106
     5   6 C    3.987 --     4 C    1.311     6 C    1.274     7 C    1.176
     6   6 C    3.986 --     1 C    1.308     5 C    1.274    10 C    1.217
     7   6 C    3.976 --     8 C    1.294    11 C    1.260     5 C    1.176
     8   6 C    3.984 --     7 C    1.294    14 C    1.280     9 C    1.221
     9   6 C    3.981 --    10 C    1.622     8 C    1.221    86 H    0.967
    10   6 C    3.977 --     9 C    1.622     6 C    1.217    87 H    0.965
    11   6 C    3.975 --    12 C    1.284     7 C    1.260    15 C    1.177
    12   6 C    3.948 --    13 C    1.300    11 C    1.284    37 N    1.147
    13   6 C    3.979 --    14 C    1.538    12 C    1.300    84 H    0.964
    14   6 C    3.961 --    13 C    1.538     8 C    1.280    85 H    0.968
    15   6 C    3.975 --    16 C    1.288    17 C    1.258    11 C    1.177
    16   6 C    3.947 --    20 C    1.300    15 C    1.288    37 N    1.142
    17   6 C    3.978 --    18 C    1.298    15 C    1.258    21 C    1.174
    18   6 C    3.984 --    17 C    1.298    19 C    1.281    24 C    1.219
    19   6 C    3.960 --    20 C    1.538    18 C    1.281    67 H    0.968
    20   6 C    3.978 --    19 C    1.538    16 C    1.300    68 H    0.965
    21   6 C    3.987 --    28 C    1.327    22 C    1.270    17 C    1.174
    22   6 C    3.985 --    27 C    1.299    21 C    1.270    23 C    1.222
    23   6 C    3.978 --    24 C    1.626    22 C    1.222    65 H    0.967
    24   6 C    3.977 --    23 C    1.626    18 C    1.219    66 H    0.967
    25   6 C    3.974 --    28 C    1.442    26 C    1.292    29 C    1.061
    26   6 C    3.978 --    27 C    1.539    25 C    1.292    62 H    0.965
    27   6 C    3.983 --    26 C    1.539    22 C    1.299    63 H    0.967
                            28 C    0.100
    28   6 C    3.985 --    25 C    1.442    21 C    1.327    64 H    0.957
                            27 C    0.100
    29   6 C    3.946 --    48 N    1.262    46 N    1.260    25 C    1.061
                            49 O    0.141    47 O    0.141
    30   6 C    3.966 --    33 C    0.993    32 C    0.984    31 C    0.960
                            46 N    0.914
    31   6 C    3.966 --    34 C    0.994    35 C    0.984    30 C    0.960
                            48 N    0.914
    32   6 C    3.988 --    30 C    0.984    60 H    0.981    61 H    0.979
                            59 H    0.975
    33   6 C    3.988 --    30 C    0.993    58 H    0.982    56 H    0.981
                            57 H    0.977
    34   6 C    3.988 --    31 C    0.994    55 H    0.982    53 H    0.979
                            54 H    0.977
    35   6 C    3.988 --    31 C    0.984    50 H    0.983    51 H    0.981
                            52 H    0.979
    36  35 Br   1.094 --     3 C    0.971
    37   7 N    3.551 --    12 C    1.147    16 C    1.142    45 C    1.007
    38  14 Si   3.618 --    44 C    0.902    43 C    0.902    42 C    0.896
                            39 C    0.844
    39   6 C    3.968 --    40 C    1.024    74 H    0.982    73 H    0.981
                            38 Si   0.844
    40   6 C    3.943 --    39 C    1.024    71 H    0.972    72 H    0.971
                            41 O    0.964
    41   8 O    2.068 --    45 C    0.981    40 C    0.964
    42   6 C    3.980 --    79 H    0.991    78 H    0.987    80 H    0.987
                            38 Si   0.896
    43   6 C    3.981 --    82 H    0.987    81 H    0.987    83 H    0.986
                            38 Si   0.902
    44   6 C    3.981 --    77 H    0.987    75 H    0.987    76 H    0.986
                            38 Si   0.902
    45   6 C    3.956 --    37 N    1.007    41 O    0.981    69 H    0.955
                            70 H    0.954
    46   7 N    3.711 --    47 O    1.305    29 C    1.260    30 C    0.914
    47   8 O    1.734 --    46 N    1.305    29 C    0.141
    48   7 N    3.710 --    49 O    1.302    29 C    1.262    31 C    0.914
    49   8 O    1.729 --    48 N    1.302    29 C    0.141
    50   1 H    0.998 --    35 C    0.983
    51   1 H    0.996 --    35 C    0.981
    52   1 H    0.994 --    35 C    0.979
    53   1 H    0.997 --    34 C    0.979
    54   1 H    0.994 --    34 C    0.977
    55   1 H    0.997 --    34 C    0.982
    56   1 H    0.997 --    33 C    0.981
    57   1 H    0.994 --    33 C    0.977
    58   1 H    0.997 --    33 C    0.982
    59   1 H    0.998 --    32 C    0.975
    60   1 H    0.996 --    32 C    0.981
    61   1 H    0.995 --    32 C    0.979
    62   1 H    0.996 --    26 C    0.965
    63   1 H    0.997 --    27 C    0.967
    64   1 H    0.995 --    28 C    0.957
    65   1 H    0.998 --    23 C    0.967
    66   1 H    0.998 --    24 C    0.967
    67   1 H    0.998 --    19 C    0.968
    68   1 H    0.998 --    20 C    0.965
    69   1 H    0.998 --    45 C    0.955
    70   1 H    0.998 --    45 C    0.954
    71   1 H    1.000 --    40 C    0.972
    72   1 H    1.000 --    40 C    0.971
    73   1 H    0.998 --    39 C    0.981
    74   1 H    0.998 --    39 C    0.982
    75   1 H    0.999 --    44 C    0.987
    76   1 H    0.998 --    44 C    0.986
    77   1 H    0.998 --    44 C    0.987
    78   1 H    0.999 --    42 C    0.987
    79   1 H    0.999 --    42 C    0.991
    80   1 H    0.999 --    42 C    0.987
    81   1 H    0.999 --    43 C    0.987
    82   1 H    0.998 --    43 C    0.987
    83   1 H    0.999 --    43 C    0.986
    84   1 H    0.998 --    13 C    0.964
    85   1 H    0.998 --    14 C    0.968
    86   1 H    0.998 --     9 C    0.967
    87   1 H    0.998 --    10 C    0.965
    88   1 H    0.997 --     1 C    0.965
    89   1 H    0.996 --     2 C    0.968
    90   1 H    0.997 --     4 C    0.961
 ---------------------------------------------------------------------------

Topologies differ in bond orders
Writing corrected topology to xtbtopo.mol

molecular dipole:
                 x           y           z       tot (Debye)
 q only:        0.885       2.172       0.291
   full:        1.017       2.974       0.016       7.989
molecular quadrupole (traceless):
                xx          xy          yy          xz          yz          zz
 q only:        4.505     -23.325     -12.118      29.573      -7.550       7.613
  q+dip:       13.510     -31.627     -13.080      33.330      -3.846      -0.430
   full:       10.099     -29.943     -17.609      28.394      -6.815       7.510

           -------------------------------------------------
          |                Geometry Summary                 |
           -------------------------------------------------

      molecular mass/u    :      731.7730935
   center of mass at/Å    :       -0.9278337       0.0782776      -0.6932774
  moments of inertia/u·Å² :        0.5639960E+04   0.1640604E+05   0.1878408E+05
rotational constants/cm⁻¹ :        0.2988963E-02   0.1027526E-02   0.8974425E-03

 * 92 selected distances

     #   Z          #   Z                                           value/Å
     1   6 C        2   6 C                                       1.3695254
     2   6 C        3   6 C                                       1.3948733
     3   6 C        4   6 C                                       1.3703895
     4   6 C        5   6 C                                       1.4041893
     1   6 C        6   6 C                                       1.4053004
     5   6 C        6   6 C                                       1.4157562
     7   6 C        8   6 C                                       1.4150458
     8   6 C        9   6 C                                       1.4218859
     6   6 C       10   6 C                                       1.4208648
     9   6 C       10   6 C                                       1.3553688
     7   6 C       11   6 C                                       1.4176964
    11   6 C       12   6 C                                       1.4137348
    12   6 C       13   6 C                                       1.3957324
     8   6 C       14   6 C                                       1.4104026
    13   6 C       14   6 C                                       1.3677006
    11   6 C       15   6 C                                       1.4415925
    15   6 C       16   6 C                                       1.4116646
    15   6 C       17   6 C                                       1.4163616
    17   6 C       18   6 C                                       1.4134259
    18   6 C       19   6 C                                       1.4108071
    16   6 C       20   6 C                                       1.3963514
    19   6 C       20   6 C                                       1.3687809
    17   6 C       21   6 C                                       1.4352496
    21   6 C       22   6 C                                       1.4146154
    22   6 C       23   6 C                                       1.4200807
    18   6 C       24   6 C                                       1.4230271
    23   6 C       24   6 C                                       1.3556030
    25   6 C       26   6 C                                       1.4080145
    22   6 C       27   6 C                                       1.4063461
    26   6 C       27   6 C                                       1.3679629
    21   6 C       28   6 C                                       1.3999975
    25   6 C       28   6 C                                       1.3808032
    30   6 C       32   6 C                                       1.5316365
    30   6 C       33   6 C                                       1.5273287
    31   6 C       34   6 C                                       1.5260782
    31   6 C       35   6 C                                       1.5331418
     3   6 C       36  35 Br                                      1.9035297
    12   6 C       37   7 N                                       1.3726979
    16   6 C       37   7 N                                       1.3739443
    38  14 Si      39   6 C                                       1.9155671 (max)
    39   6 C       40   6 C                                       1.5156077
    40   6 C       41   8 O                                       1.4133070
    38  14 Si      42   6 C                                       1.9059620
    38  14 Si      43   6 C                                       1.9094381
    38  14 Si      44   6 C                                       1.9095486
    37   7 N       45   6 C                                       1.4235359
    41   8 O       45   6 C                                       1.4035138
    29   6 C       46   7 N                                       1.3379551
    30   6 C       46   7 N                                       1.4795038
    29   6 C       48   7 N                                       1.3367468
    31   6 C       48   7 N                                       1.4796157
    35   6 C       50   1 H                                       1.0877085
    35   6 C       51   1 H                                       1.0858293
    35   6 C       52   1 H                                       1.0881969
    34   6 C       53   1 H                                       1.0851322
    34   6 C       54   1 H                                       1.0878210
    34   6 C       55   1 H                                       1.0861715
    33   6 C       56   1 H                                       1.0854214
    33   6 C       57   1 H                                       1.0876881
    33   6 C       58   1 H                                       1.0861719
    32   6 C       59   1 H                                       1.0870074
    32   6 C       60   1 H                                       1.0858173
    32   6 C       61   1 H                                       1.0879995
    26   6 C       62   1 H                                       1.0782535
    27   6 C       63   1 H                                       1.0802993
    28   6 C       64   1 H                                       1.0766931 (min)
    23   6 C       65   1 H                                       1.0798147
    24   6 C       66   1 H                                       1.0806189
    19   6 C       67   1 H                                       1.0800343
    20   6 C       68   1 H                                       1.0788672
    45   6 C       69   1 H                                       1.1040762
    45   6 C       70   1 H                                       1.1044123
    40   6 C       71   1 H                                       1.1009524
    40   6 C       72   1 H                                       1.1010241
    39   6 C       73   1 H                                       1.0897194
    39   6 C       74   1 H                                       1.0896362
    44   6 C       75   1 H                                       1.0858687
Note: The following floating-point exceptions are signalling: IEEE_UNDERFLOW_FLAG
normal termination of xtb
    44   6 C       76   1 H                                       1.0859998
    44   6 C       77   1 H                                       1.0859229
    42   6 C       78   1 H                                       1.0853534
    42   6 C       79   1 H                                       1.0852390
    42   6 C       80   1 H                                       1.0853995
    43   6 C       81   1 H                                       1.0863044
    43   6 C       82   1 H                                       1.0857702
    43   6 C       83   1 H                                       1.0861284
    13   6 C       84   1 H                                       1.0787032
    14   6 C       85   1 H                                       1.0801659
     9   6 C       86   1 H                                       1.0811100
    10   6 C       87   1 H                                       1.0818184
     1   6 C       88   1 H                                       1.0796763
     2   6 C       89   1 H                                       1.0781119
     4   6 C       90   1 H                                       1.0773414

 * 6 distinct bonds (by element types)

   Z      Z             #   av. dist./Å        max./Å        min./Å
   1 H    6 C          41     1.0857141     1.1044123     1.0766931
   6 C    6 C          37     1.4184579     1.5331418     1.3553688
   6 C    7 N           7     1.4005713     1.4796157     1.3367468
   6 C    8 O           2     1.4084104     1.4133070     1.4035138
   6 C   14 Si          4     1.9101290     1.9155671     1.9059620
   6 C   35 Br          1     1.9035297     1.9035297     1.9035297


optimized geometry written to: xtbopt.mol


           -------------------------------------------------
          | TOTAL ENERGY             -135.474466111054 Eh   |
          | GRADIENT NORM               0.000550999178 Eh/α |
          | HOMO-LUMO GAP               1.578183267119 eV   |
           -------------------------------------------------

------------------------------------------------------------------------
 * finished run on 2024/11/14 at 11:19:58.431     
------------------------------------------------------------------------
 total:
 * wall-time:     0 d,  0 h,  0 min, 37.409 sec
 *  cpu-time:     0 d,  0 h,  1 min, 58.697 sec
 * ratio c/w:     3.173 speedup
 SCF:
 * wall-time:     0 d,  0 h,  0 min,  0.606 sec
 *  cpu-time:     0 d,  0 h,  0 min,  1.736 sec
 * ratio c/w:     2.864 speedup
 ANC optimizer:
 * wall-time:     0 d,  0 h,  0 min, 36.780 sec
 *  cpu-time:     0 d,  0 h,  1 min, 56.935 sec
 * ratio c/w:     3.179 speedup

