180
 energy: -270.230558125748 gnorm: 0.294248156114 xtb: 6.6.1 (8d0f1dd)
C           -5.00980000000000       -0.35110000000000       -1.11210000000000
C           -4.75950000000000       -1.69750000000000       -1.09840000000000
C           -3.52410000000000       -2.13880000000000       -0.62440000000000
C           -2.52560000000000       -1.26660000000000       -0.27770000000000
C           -2.72630000000000        0.11770000000000       -0.40120000000000
C           -4.02670000000000        0.57510000000000       -0.72400000000000
C           -1.68440000000000        1.06900000000000       -0.12600000000000
C           -2.06840000000000        2.39840000000000        0.16980000000000
C           -3.40590000000000        2.81190000000000       -0.07890000000000
C           -4.32940000000000        1.95580000000000       -0.58010000000000
C           -0.30030000000000        0.76590000000000       -0.07840000000000
C            0.56240000000000        1.67170000000000        0.58040000000000
C            0.14580000000000        2.93870000000000        0.99170000000000
C           -1.14180000000000        3.30970000000000        0.71760000000000
C            0.52970000000000       -0.33930000000000       -0.48840000000000
C            1.79100000000000       -0.12360000000000        0.10780000000000
C            0.37830000000000       -1.46170000000000       -1.33890000000000
C            1.33950000000000       -2.49300000000000       -1.23810000000000
C            2.52940000000000       -2.28930000000000       -0.50790000000000
C            2.79690000000000       -1.09200000000000        0.09900000000000
C           -0.66260000000000       -1.60240000000000       -2.31690000000000
C           -0.92850000000000       -2.87570000000000       -2.87290000000000
C           -0.04660000000000       -3.95240000000000       -2.59050000000000
C            1.08180000000000       -3.74210000000000       -1.86930000000000
C           -2.44680000000000       -0.66310000000000       -3.65500000000000
C           -2.81390000000000       -1.95620000000000       -4.07410000000000
C           -2.04030000000000       -3.02760000000000       -3.72060000000000
C           -1.38130000000000       -0.49900000000000       -2.79210000000000
C           -3.17650000000000        0.50060000000000       -4.13470000000000
C           -3.63270000000000        2.68700000000000       -4.81170000000000
C           -4.88890000000000        1.80910000000000       -5.02350000000000
C           -3.74790000000000        3.71510000000000       -3.68220000000000
C           -3.09790000000000        3.39070000000000       -6.05730000000000
C           -6.16050000000000        2.29060000000000       -4.33060000000000
C           -5.21390000000000        1.49940000000000       -6.48940000000000
Br          -3.22040000000000       -4.00950000000000       -0.44630000000000
N            1.81530000000000        1.12150000000000        0.68830000000000
Si           5.35320000000000        2.08720000000000        5.96010000000000
C            3.87460000000000        1.51820000000000        4.88350000000000
C            4.01080000000000        1.90520000000000        3.42450000000000
O            2.89710000000000        1.40530000000000        2.71240000000000
C            5.03560000000000        1.51400000000000        7.74990000000000
C            5.50230000000000        3.99000000000000        5.90350000000000
C            6.96550000000000        1.30300000000000        5.30300000000000
C            2.93330000000000        1.71130000000000        1.34310000000000
N           -2.62640000000000        1.69790000000000       -4.36690000000000
O           -1.42000000000000        2.03480000000000       -4.21160000000000
N           -4.48230000000000        0.52080000000000       -4.41990000000000
O           -5.31760000000000       -0.41440000000000       -4.27310000000000
H           -4.36010000000000        1.05940000000000       -6.99990000000000
H           -5.52780000000000        2.39520000000000       -7.01670000000000
H           -6.02570000000000        0.77500000000000       -6.51130000000000
H           -5.99900000000000        2.46390000000000       -3.27160000000000
H           -6.91770000000000        1.51630000000000       -4.43250000000000
H           -6.52270000000000        3.20370000000000       -4.79410000000000
H           -2.92560000000000        2.69710000000000       -6.87420000000000
H           -2.14420000000000        3.84860000000000       -5.80460000000000
H           -3.78790000000000        4.16450000000000       -6.38120000000000
H           -4.02350000000000        3.24090000000000       -2.74380000000000
H           -4.47080000000000        4.48630000000000       -3.93070000000000
H           -2.77230000000000        4.17650000000000       -3.54330000000000
H           -3.68310000000000       -2.08610000000000       -4.69880000000000
H           -2.27410000000000       -4.01360000000000       -4.09520000000000
H           -1.07710000000000        0.49270000000000       -2.50350000000000
H           -0.26960000000000       -4.92410000000000       -3.00530000000000
H            1.79980000000000       -4.53730000000000       -1.72810000000000
H            3.24990000000000       -3.09270000000000       -0.46380000000000
H            3.73740000000000       -0.92000000000000        0.59880000000000
H            3.86390000000000        1.32770000000000        0.88950000000000
H            2.91090000000000        2.80540000000000        1.19440000000000
H            4.05620000000000        2.99970000000000        3.31520000000000
H            4.93530000000000        1.48740000000000        2.99670000000000
H            3.76390000000000        0.43530000000000        4.93330000000000
H            2.94230000000000        1.93910000000000        5.25910000000000
H            7.23580000000000        1.70130000000000        4.32960000000000
H            6.86880000000000        0.22600000000000        5.20170000000000
H            7.79800000000000        1.49320000000000        5.97380000000000
H            4.11740000000000        1.93580000000000        8.14620000000000
H            5.84480000000000        1.81840000000000        8.40580000000000
H            4.95260000000000        0.43360000000000        7.81280000000000
H            5.75470000000000        4.34160000000000        4.90720000000000
H            6.27590000000000        4.34370000000000        6.57820000000000
H            4.57230000000000        4.46940000000000        6.19520000000000
H            0.82340000000000        3.61200000000000        1.49270000000000
H           -1.48230000000000        4.30660000000000        0.95670000000000
H           -3.66210000000000        3.84350000000000        0.11850000000000
H           -5.33510000000000        2.28710000000000       -0.80220000000000
H           -5.98170000000000        0.00840000000000       -1.41520000000000
H           -5.50880000000000       -2.40560000000000       -1.41360000000000
H           -1.59720000000000       -1.63770000000000        0.12370000000000
C           -5.00980000000000       -0.35110000000000        6.88790000000000
C           -4.75950000000000       -1.69750000000000        6.90160000000000
C           -3.52410000000000       -2.13880000000000        7.37560000000000
C           -2.52560000000000       -1.26660000000000        7.72230000000000
C           -2.72630000000000        0.11770000000000        7.59880000000000
C           -4.02670000000000        0.57510000000000        7.27600000000000
C           -1.68440000000000        1.06900000000000        7.87400000000000
C           -2.06840000000000        2.39840000000000        8.16980000000000
C           -3.40590000000000        2.81190000000000        7.92110000000000
C           -4.32940000000000        1.95580000000000        7.41990000000000
C           -0.30030000000000        0.76590000000000        7.92160000000000
C            0.56240000000000        1.67170000000000        8.58040000000000
C            0.14580000000000        2.93870000000000        8.99170000000000
C           -1.14180000000000        3.30970000000000        8.71760000000000
C            0.52970000000000       -0.33930000000000        7.51160000000000
C            1.79100000000000       -0.12360000000000        8.10780000000000
C            0.37830000000000       -1.46170000000000        6.66110000000000
C            1.33950000000000       -2.49300000000000        6.76190000000000
C            2.52940000000000       -2.28930000000000        7.49210000000000
C            2.79690000000000       -1.09200000000000        8.09900000000000
C           -0.66260000000000       -1.60240000000000        5.68310000000000
C           -0.92850000000000       -2.87570000000000        5.12710000000000
C           -0.04660000000000       -3.95240000000000        5.40950000000000
C            1.08180000000000       -3.74210000000000        6.13070000000000
C           -2.44680000000000       -0.66310000000000        4.34500000000000
C           -2.81390000000000       -1.95620000000000        3.92590000000000
C           -2.04030000000000       -3.02760000000000        4.27940000000000
C           -1.38130000000000       -0.49900000000000        5.20790000000000
C           -3.17650000000000        0.50060000000000        3.86530000000000
C           -3.63270000000000        2.68700000000000        3.18830000000000
C           -4.88890000000000        1.80910000000000        2.97650000000000
C           -3.74790000000000        3.71510000000000        4.31780000000000
C           -3.09790000000000        3.39070000000000        1.94270000000000
C           -6.16050000000000        2.29060000000000        3.66940000000000
C           -5.21390000000000        1.49940000000000        1.51060000000000
Br          -3.22040000000000       -4.00950000000000        7.55370000000000
N            1.81530000000000        1.12150000000000        8.68830000000000
Si           5.35320000000000        2.08720000000000       13.96010000000000
C            3.87460000000000        1.51820000000000       12.88350000000000
C            4.01080000000000        1.90520000000000       11.42450000000000
O            2.89710000000000        1.40530000000000       10.71240000000000
C            5.03560000000000        1.51400000000000       15.74990000000000
C            5.50230000000000        3.99000000000000       13.90350000000000
C            6.96550000000000        1.30300000000000       13.30300000000000
C            2.93330000000000        1.71130000000000        9.34310000000000
N           -2.62640000000000        1.69790000000000        3.63310000000000
O           -1.42000000000000        2.03480000000000        3.78840000000000
N           -4.48230000000000        0.52080000000000        3.58010000000000
O           -5.31760000000000       -0.41440000000000        3.72690000000000
H           -4.36010000000000        1.05940000000000        1.00010000000000
H           -5.52780000000000        2.39520000000000        0.98330000000000
H           -6.02570000000000        0.77500000000000        1.48870000000000
H           -5.99900000000000        2.46390000000000        4.72840000000000
H           -6.91770000000000        1.51630000000000        3.56750000000000
H           -6.52270000000000        3.20370000000000        3.20590000000000
H           -2.92560000000000        2.69710000000000        1.12580000000000
H           -2.14420000000000        3.84860000000000        2.19540000000000
H           -3.78790000000000        4.16450000000000        1.61880000000000
H           -4.02350000000000        3.24090000000000        5.25620000000000
H           -4.47080000000000        4.48630000000000        4.06930000000000
H           -2.77230000000000        4.17650000000000        4.45670000000000
H           -3.68310000000000       -2.08610000000000        3.30120000000000
H           -2.27410000000000       -4.01360000000000        3.90480000000000
H           -1.07710000000000        0.49270000000000        5.49650000000000
H           -0.26960000000000       -4.92410000000000        4.99470000000000
H            1.79980000000000       -4.53730000000000        6.27190000000000
H            3.24990000000000       -3.09270000000000        7.53620000000000
H            3.73740000000000       -0.92000000000000        8.59880000000000
H            3.86390000000000        1.32770000000000        8.88950000000000
H            2.91090000000000        2.80540000000000        9.19440000000000
H            4.05620000000000        2.99970000000000       11.31520000000000
H            4.93530000000000        1.48740000000000       10.99670000000000
H            3.76390000000000        0.43530000000000       12.93330000000000
H            2.94230000000000        1.93910000000000       13.25910000000000
H            7.23580000000000        1.70130000000000       12.32960000000000
H            6.86880000000000        0.22600000000000       13.20170000000000
H            7.79800000000000        1.49320000000000       13.97380000000000
H            4.11740000000000        1.93580000000000       16.14620000000000
H            5.84480000000000        1.81840000000000       16.40580000000000
H            4.95260000000000        0.43360000000000       15.81280000000000
H            5.75470000000000        4.34160000000000       12.90720000000000
H            6.27590000000000        4.34370000000000       14.57820000000000
H            4.57230000000000        4.46940000000000       14.19520000000000
H            0.82340000000000        3.61200000000000        9.49270000000000
H           -1.48230000000000        4.30660000000000        8.95670000000000
H           -3.66210000000000        3.84350000000000        8.11850000000000
H           -5.33510000000000        2.28710000000000        7.19780000000000
H           -5.98170000000000        0.00840000000000        6.58480000000000
H           -5.50880000000000       -2.40560000000000        6.58640000000000
H           -1.59720000000000       -1.63770000000000        8.12370000000000
180
 energy: -270.367005374470 gnorm: 0.166758914121 xtb: 6.6.1 (8d0f1dd)
C           -5.00787420431078       -0.35228095670301       -1.11924916828626
C           -4.75947646801748       -1.69994249793494       -1.09772720382692
C           -3.52588309969159       -2.14174869601885       -0.62288348003733
C           -2.52690875108480       -1.26684667259434       -0.27378903129741
C           -2.72298722694718        0.11321570409005       -0.41111089488813
C           -4.01467171351431        0.57035562333467       -0.76368000625845
C           -1.67207555257870        1.06682667413184       -0.14259780896207
C           -2.03409590942268        2.39946976273846        0.10994110999851
C           -3.38287245115628        2.82209171618503       -0.18046908677679
C           -4.30069587672853        1.97010977733644       -0.68115464328397
C           -0.29298593163722        0.76148345272765       -0.07890458992246
C            0.56907433584169        1.66577847084677        0.58268186593417
C            0.16128979131068        2.93649847828930        0.98169215322518
C           -1.10096432073734        3.31830507649141        0.65314557229337
C            0.53204980262310       -0.34260657595633       -0.48713483335919
C            1.79289937957240       -0.12515407506856        0.10888366462930
C            0.37867554955493       -1.46240894937481       -1.33895252313041
C            1.33996996766482       -2.49364207961700       -1.23841117138048
C            2.53010228913871       -2.28994363282048       -0.50785791608523
C            2.79843631143976       -1.09308612695663        0.09888031491849
C           -0.66271750311982       -1.60239215398976       -2.31643396601565
C           -0.92852630040388       -2.87592657922001       -2.87323727990610
C           -0.04695255206184       -3.95268865652412       -2.59082791134622
C            1.08193053831504       -3.74237406763358       -1.86929903938619
C           -2.44656829621570       -0.66380451237097       -3.65519799278300
C           -2.81485514692144       -1.95717748835523       -4.07409022794347
C           -2.04064241338279       -3.02803405057843       -3.72100056161271
C           -1.38028670975476       -0.49899951009027       -2.79204312836697
C           -3.17546360175967        0.49911095474846       -4.13478540488678
C           -3.63291284190911        2.68748923977710       -4.81249375872342
C           -4.88937160515133        1.80958643149179       -5.02386193803618
C           -3.74736060091160        3.71456725045095       -3.68185473974374
C           -3.09711806014634        3.39045968641535       -6.05744636776296
C           -6.16060788769569        2.28995075155526       -4.33019045477422
C           -5.21355890575906        1.49847828497683       -6.48931324949889
Br          -3.21913112111055       -4.01106564638427       -0.44513012212531
N            1.81754193753391        1.11784146983297        0.69074201980198
Si           5.36875266064739        2.09078719472629        5.93377274780571
C            3.87349498719359        1.51747478575358        4.88408901586567
C            4.01097993657400        1.90509259833365        3.42523581059284
O            2.89727711382493        1.40466299873599        2.71272611609669
C            5.09047594819429        1.51574848315538        7.70684777936387
C            5.50183149157305        3.99140057809618        5.90411147039054
C            6.97206028214853        1.30039455950888        5.29788335331582
C            2.93514530100673        1.71111364779733        1.34433183049584
N           -2.62656979466689        1.69888584954331       -4.36714755651590
O           -1.42895691400071        2.03190643755478       -4.21145561847803
N           -4.48286462892812        0.52116057488871       -4.42101248267734
O           -5.31069932408687       -0.40741222542438       -4.27224786919814
H           -4.36032949383263        1.05934030145629       -7.00065355247563
H           -5.52740698922962        2.39442944487176       -7.01584548129511
H           -6.02600907734781        0.77513415389853       -6.51219005221474
H           -5.99933743788792        2.46409468428634       -3.27138716046692
H           -6.91864432842565        1.51682682758353       -4.43282849432122
H           -6.52244995964354        3.20260716850833       -4.79398236948962
H           -2.92536540361730        2.69752751951024       -6.87473418028721
H           -2.14401757092958        3.84955648164027       -5.80541732390864
H           -3.78731102228453        4.16379414572521       -6.38094107678938
H           -4.02373105889738        3.24060551626733       -2.74328114361974
H           -4.47004326006583        4.48526749253170       -3.93122408996897
H           -2.77241438232193        4.17717580716529       -3.54366985057424
H           -3.68297080672488       -2.08742533868107       -4.69963497752185
H           -2.27424811692796       -4.01345233826011       -4.09546373899496
H           -1.07601268890316        0.49244319141076       -2.50265017523178
H           -0.26958667517059       -4.92397620432999       -3.00558732915074
H            1.79966085323460       -4.53718119425591       -1.72841475064194
H            3.25005734460407       -3.09294644684262       -0.46396315769289
H            3.73801137431583       -0.92063989017740        0.59871970442794
H            3.86458530534239        1.32774449565598        0.88942817892722
H            2.91097834384027        2.80497133566718        1.19418140154529
H            4.05623169259631        2.99944328135190        3.31568226295124
H            4.93526781513501        1.48747306527325        2.99742560866695
H            3.76326400225868        0.43457088481528        4.93375792944828
H            2.94095148034076        1.93877986749490        5.25920886693113
H            7.23935639248220        1.70061943921589        4.32640753165178
H            6.87002455769306        0.22429521480800        5.20067677430642
H            7.79938960645164        1.49326145623322        5.97308265060545
H            4.18412914196754        1.98291260649830        8.03646827377762
H            5.86498438471998        1.82134368986081        8.40025986933080
H            4.96985179087406        0.43668931789714        7.79279643784852
H            5.75436688219231        4.34204645538030        4.90835542745584
H            6.27622617650141        4.34395727518891        6.57794499226528
H            4.57149403773542        4.47018629744809        6.19521863229729
H            0.82728708133789        3.61094146544276        1.49237300046547
H           -1.43640664041848        4.31683510584492        0.88735942984593
H           -3.65410948538018        3.84399198922341        0.02169507699821
H           -5.32417885285085        2.28741299221779       -0.83998648852489
H           -5.98069727109536        0.00879661167840       -1.41691856635395
H           -5.50926835421588       -2.40638573800395       -1.41249634489237
H           -1.59756536066954       -1.63699268405836        0.12487104848040
C           -5.01003780154662       -0.35097903229298        6.88707358854720
C           -4.75969767123577       -1.69760018168183        6.90129780162941
C           -3.52467859335146       -2.14010151698863        7.37630763008636
C           -2.52574861609453       -1.26633753186648        7.72217876062296
C           -2.72706232283891        0.11719341491551        7.59892096081318
C           -4.02697583399329        0.57515025458667        7.27551351360841
C           -1.68570825172518        1.06870571049106        7.87347191594606
C           -2.06900074021605        2.39918435180412        8.16996673930121
C           -3.40568418033398        2.81286903741151        7.92052299729917
C           -4.32937670759841        1.95608759920531        7.41888720934954
C           -0.30360009233570        0.76571460615754        7.91852820330827
C            0.55536110619268        1.67190682716582        8.57811495934927
C            0.14395170749090        2.93982317000477        8.99097104024391
C           -1.14254007034760        3.31123057110960        8.71741751023363
C            0.52849448330916       -0.33962032197375        7.51021454241752
C            1.78781958132439       -0.12343779526332        8.11054539844827
C            0.37891278822203       -1.46067061821527        6.66019673994508
C            1.34028844830883       -2.49301353033652        6.76120510941750
C            2.52985355856899       -2.28918642707374        7.49157271751291
C            2.79496243344759       -1.09251260404987        8.10027718131951
C           -0.66226276717764       -1.60222184909893        5.68283298025043
C           -0.92858311179783       -2.87582151884585        5.12668870921404
C           -0.04679893283713       -3.95259805268451        5.40917715222366
C            1.08212861187078       -3.74207164481313        6.13096656282190
C           -2.44504047907179       -0.66549464452053        4.34380497287057
C           -2.81416132318488       -1.95783103280391        3.92488873404017
C           -2.04026567620945       -3.02865477519596        4.27855654448002
C           -1.37946309346260       -0.49930922313966        5.20753397886648
C           -3.17609404715368        0.49484695768894        3.86847925910487
C           -3.65326820957085        2.67817791880290        3.23231571648142
C           -4.89912984848549        1.80571611807482        3.00589188323386
C           -3.75123787301400        3.71852998071902        4.33723731905782
C           -3.14491523743830        3.40796046442793        2.03393265672538
C           -6.16822120634350        2.29141112537095        3.67980132816822
C           -5.23325713453357        1.49212561496750        1.55779284661707
Br          -3.21959671965502       -4.01028281187277        7.55306275407848
N            1.79973667707796        1.11762086765928        8.70000279917149
Si           5.35613058197827        2.08817219391387       13.96427894644440
C            3.87621732856453        1.51855010904845       12.88690444288823
C            4.00838569004682        1.90525023344839       11.43050310183691
O            2.87088911400492        1.40573587453145       10.75324771638534
C            5.03505452229481        1.51358322810428       15.75028803754177
C            5.50187244289699        3.99023046005157       13.90274140655479
C            6.96519713454357        1.30272116040837       13.30208523973348
C            2.89255834972038        1.70518650122384        9.38772078747635
N           -2.63087836811069        1.69632655777346        3.64087021451001
O           -1.43018877220678        2.03413711368371        3.78457119753658
N           -4.48455868585816        0.51611737192539        3.58854098798663
O           -5.31097932504132       -0.41362838476120        3.72842986968098
H           -4.38248783666305        1.04987966469115        1.05919074084268
H           -5.54223471258649        2.38774180458094        1.02923647844675
H           -6.03936993206511        0.76883468052420        1.50268249725456
H           -6.00406956824043        2.46606311914752        4.73550286510116
H           -6.92182660997405        1.51636388367412        3.57008681128952
H           -6.52311237565459        3.20313701875436        3.20801760814765
H           -2.95485774752969        2.71857843475459        1.17805713115426
H           -2.18158427352923        3.84049662636508        2.26503136321409
H           -3.80960254052514        4.18939390874712        1.69205806335885
H           -4.02617490197922        3.24364553464053        5.27049028777608
H           -4.47222470795660        4.48603730657700        4.07379707911187
H           -2.77244747460925        4.17734583061217        4.46079467784169
H           -3.68300128058684       -2.08774706368607        3.30014016431495
H           -2.27436813206614       -4.01386901348862        3.90438584476471
H           -1.07627346073638        0.49229597717213        5.49746955922235
H           -0.26967606464786       -4.92392778976393        4.99462678219445
H            1.79955786702753       -4.53718355630959        6.27216779094238
H            3.24982748843927       -3.09244956916932        7.53656482860319
H            3.73296796622342       -0.92577212333238        8.60446703109525
H            3.81085648482000        1.29064950029613        8.97023618166093
H            2.89630225530385        2.80303809929496        9.21241317271021
H            4.05521585405806        2.99925723112789       11.31631556669330
H            4.93079584762793        1.48510137298217       10.99719306940672
H            3.76433899459214        0.43561584077190       12.93420711592700
H            2.94321517844305        1.93928641856590       13.26047167763529
H            7.23666396838981        1.70131959883746       12.32899293447681
H            6.86911303599903        0.22565511776460       13.20178730209953
H            7.79691585969196        1.49331613267434       13.97336454753808
H            4.11710580033000        1.93584808759518       16.14647111083995
H            5.84456105844520        1.81834639096778       16.40539852987035
H            4.95250463931861        0.43323309802961       15.81303926231858
H            5.75491912464936        4.34241050988513       12.90691755160795
H            6.27540892947611        4.34315152439942       14.57773711981985
H            4.57228144953448        4.46954189369650       14.19523425946200
H            0.82251025149103        3.61133210023351        9.49304912218220
H           -1.48263935567730        4.30721164790032        8.95726769629498
H           -3.66223451115613        3.84368325934730        8.11894086042311
H           -5.33532996613326        2.28704324931502        7.19858142460989
H           -5.98235082151513        0.00856604378793        6.58550360634236
H           -5.50911943521410       -2.40564425099315        6.58696138875282
H           -1.59782514903541       -1.63750654550927        8.12420063800875
180
 energy: -270.438785352589 gnorm: 0.092645352771 xtb: 6.6.1 (8d0f1dd)
C           -5.00409356524905       -0.35388836844951       -1.13384677742693
C           -4.75947483456575       -1.70333424497502       -1.09648825292489
C           -3.52742466943885       -2.14464088562245       -0.61977563829144
C           -2.52745356567773       -1.26678682347560       -0.27152079158393
C           -2.71724636168550        0.10998468485403       -0.43140429926030
C           -4.00187669205759        0.56569746446139       -0.80718820790212
C           -1.66041826825525        1.06582769246028       -0.17029710099052
C           -2.00431770139951        2.40667916603250        0.03377931540285
C           -3.35720592367990        2.83068954335044       -0.28431475169425
C           -4.27966049471789        1.97544042666506       -0.76078590548861
C           -0.28454317823530        0.75493468253584       -0.08122968653754
C            0.57615408576711        1.65921005646345        0.58205457753221
C            0.17308733517501        2.93615303208558        0.96723268240070
C           -1.07445324464252        3.32692302065600        0.59013169812050
C            0.53684832242798       -0.34798726549162       -0.48545517795096
C            1.79742519025687       -0.12915569423649        0.11030062287435
C            0.38016546672740       -1.46475506293621       -1.33902007778360
C            1.34130970406425       -2.49550212681918       -1.23911614908541
C            2.53206686075149       -2.29226538035588       -0.50827271500645
C            2.80228403039595       -1.09658439716781        0.09886487422181
C           -0.66221439683881       -1.60300402899079       -2.31592666328170