116
 energy: -22.928061455056 gnorm: 0.329736929581 xtb: 6.6.1 (8d0f1dd)
C           -3.31122850772930        0.79849766164622       -0.92477639677520
C           -2.44380812530352       -0.12270372891954       -0.27661132624697
C           -1.41337090092821        0.39579727573559        0.56335275196199
C           -0.89266158675590        1.65801491088749        0.27377586709581
C           -1.72665675402493        2.51431363229076       -0.49448366572522
C           -2.95444148494349        2.13954154133227       -1.01494489940871
C           -0.74098268209890       -0.43411532818871        1.49825021926784
C            0.56872586496315        0.03782116815119        1.86248088067890
C            1.03782416582094        1.29402317993033        1.50887470833621
N            0.31238977034758        2.07067427098208        0.65193736800696
C           -1.29695700510141       -1.39996043042223        2.41574187746061
C           -0.38243517664656       -2.18060797534842        3.13232615520648
N            0.91308504082021       -1.90366887689689        3.30325166013478
C            1.37712470144904       -0.74872102533751        2.81811050966982
C            2.52149331701875       -0.17739833758153        3.39379298866852
C            2.95849061756259        1.02681208890480        2.95105897606587
C            2.24288949469137        1.78498308775960        2.03503020483770
C           -2.74860936222260       -1.74497937691422        2.38401158947411
C           -3.09416315450955       -2.91614440870436        3.00571134491758
C           -2.16786021984049       -3.77788778654213        3.63251872101904
C           -0.85708937311598       -3.40495313382985        3.68547234358092
O           -3.71994433332149       -0.94984598373544        1.67726658385724
O           -2.55702603277562       -1.47241711578389       -0.57241635275616
C           -3.84297843593025        3.13357444054366       -1.60938954875544
C           -2.68769581069131       -5.03867041417370        4.30484659386931
H           -1.39666850744143        3.51251503834900       -0.76806311868865
H           -4.27662633836220        0.55105838579656       -1.33106614114542
H            2.66329581305412        2.73912661909249        1.72562431984580
H            3.05775395548473       -0.69369546277216        4.16536137542516
H           -0.24710966264510       -4.12034095424229        4.22946223699121
H           -4.11477991332403       -3.04712728052358        3.03244694615357
O           -4.21824883374556        4.03433712717988       -0.87713382485991
O           -4.44510595673734        2.90643496899600       -2.81853501752979
C           -5.44216520282800        3.83300025693726       -3.02488532025093
C            4.23586651889298        1.50004220933226        3.59165660008449
O            5.05927614697201        0.66079890002952        3.91714215179376
O            4.47001334453535        2.86385149488593        3.72605651435371
C            5.79457498613219        3.08584475587818        4.15829123132174
O           -3.82227255313510       -5.27347675879771        4.16636005494405
O           -1.85023202017753       -5.79767454267276        5.06656077253571
C           -2.55119635829503       -6.86252441382958        5.62930343183426
C           -5.07197156564436       -1.42399175670916        1.58830531863830
C           -1.33089900128490       -2.23622472573986       -0.99264499351172
H           -2.54510546830388       -7.76426885143998        4.99136022291012
H           -3.57194749219491       -6.44405511486021        5.74196173723541
H           -2.09133598235598       -7.02043774843818        6.64022264233588
H            5.72707967266424        3.46798026205549        5.10135971236643
H            6.34060091246885        3.78468702308830        3.50069950143490
H            6.17933064298187        2.03010500085905        4.19342358084693
H           -0.91862729772622       -2.57650129080332       -0.01361370304871
H           -0.49769766914251       -1.60651221708571       -1.34094446550576
H           -1.52632419730509       -2.94569707152159       -1.75361447637286
H           -5.11788846557077       -2.41810833635233        1.17520213188926
H           -5.67929807973498       -0.69619639428435        1.04301666067831
H           -5.57598832326623       -1.42383358739762        2.57928294206544
H           -6.13050215934830        3.76035386975488       -2.23272855695873
H           -5.86615610071888        3.45938329385866       -4.02668959924245
H           -5.13479557532099        4.87790991548477       -2.98314551356402
C           -1.38192942069774        3.73616555005018        2.91232598411686
C           -1.84821468128685        2.59982427735607        3.49755545445181
C           -1.05946531454833        2.05730632010638        4.60922730982276
C            0.19893954712228        2.69376791964407        4.86302140881997
C            0.50425395911860        3.94630308659851        4.28768785650746
C           -0.26031777722226        4.46998310053134        3.25072669343212
C           -1.20488993561782        0.74454293276906        5.14851520323437
C           -0.06287609782692        0.02744069315890        5.60930570802864
C            1.19208754369866        0.71421540266195        5.78882868583885
N            1.19428660993148        2.06344359410476        5.62744624321596
C           -2.41361422770794        0.07928500213936        5.25249410304426
C           -2.45851584031083       -1.32662100968547        5.60237876023992
N           -1.29466212405906       -1.98318595734370        5.89916817085159
C           -0.14475655767527       -1.32117560077092        5.98824682881008
C            0.97209270935794       -1.98958449505532        6.53157704134458
C            2.21982707914082       -1.36973967291181        6.68703967237737
C            2.30561929262884       -0.09745313075593        6.26436900324455
C           -3.73018485967715        0.71367583494582        5.25810242262992
C           -4.89964478833448       -0.06184623426677        5.21204641615509
C           -4.82617965800088       -1.39228978090841        5.46901303780036
C           -3.67144193418464       -1.98914944386360        5.67265433266067
O           -3.75568638935321        2.07705011038914        5.52067969627343
O           -2.94192434743730        1.91263938797883        3.01658762327703
C            0.21273512614467        5.50086066357994        2.34765104514621
C           -6.06660304520411       -2.17604633098929        5.80641622556876
H            1.41756699010566        4.38133362238595        4.66974005703471
H           -1.82880610647429        4.11982501512100        2.06992133318584
H            3.26888037378556        0.32655662585251        6.31721410015598
H            0.87146188387207       -3.08471526305024        6.57830423410869
H           -3.67716811065157       -3.05999292755990        5.83019634570050
H           -5.77379677507622        0.43595144608221        4.71017130754348
O            1.34459852619901        5.82615848916894        2.44941456579099
O           -0.74718748219123        6.07961784856304        1.59848183464284
C           -0.21473095568964        7.24015934882472        1.05753806029483
C            3.53228080814219       -2.00967610361154        7.02506769044485
O            3.64093082622715       -3.14437803815732        7.50071391725347
O            4.56565258381079       -1.22937033368332        6.69086985080897
C            5.72579357310716       -1.80692399125161        7.22246151275881
O           -7.04801223588612       -1.95726935745904        5.14194115322235
O           -6.01514389321278       -2.93743591896022        6.94765316328794
C           -7.21292732384718       -3.62681918543340        7.15115816329978
C           -4.95459780685163        2.65960679932188        5.86868674392943
C           -3.68284113682406        2.59129188358641        2.05479246020704
H           -7.43119628931628       -4.22607794725959        6.20622607140901
H           -8.06548455146707       -2.91765848248592        7.29781126410398
H           -7.07314693247270       -4.33087306029711        7.91223421050944
H            6.57332189837178       -1.29353136199234        6.78341268688262
H            5.74663761932316       -2.84282155125561        6.88089468184451
H            5.69426191474290       -1.72781984964892        8.29460302186842
H           -4.10481209541493        3.44288266176275        2.60483747673152
H           -4.49244774344916        1.87419893016926        1.82433103764650
H           -3.18901540870812        2.85154642679373        1.06781919454921
H           -5.55414326821421        2.76698137191684        4.93950725322359
H           -4.78658370641210        3.62090640967288        6.25983200635257
H           -5.43485580473958        1.97242995129449        6.65265772412460
H            0.89164886030839        7.38838561720231        1.13776105146914
H           -0.62894889903848        8.04195665205089        1.64837664327952
H           -0.59282546386754        7.45699159724320        0.03719083132488
116
 energy: -22.482995916810 gnorm: 0.616803787188 xtb: 6.6.1 (8d0f1dd)
C           -2.33230583442982        0.97390703832231       -0.74623829024535
C           -1.78180209197729       -0.02097856451674        0.06972872662497
C           -0.66065789271497        0.36509715921140        0.93236613634859
C           -0.04615749554946        1.65471071710422        0.46762343707566
C           -0.67649479821432        2.65551382871825       -0.36553275611977
C           -1.74121515550068        2.23829764111254       -1.08577496804463
C            0.01314436103878       -0.40044961832159        1.87549103363211
C            1.35094721690263        0.00750811893344        2.12539069794625
C            1.84380200580144        1.37965036571566        1.86184187218327
N            1.15261098693522        2.23489962932856        0.96021940056766
C           -0.46564425015792       -1.61904167646382        2.59530510593836
C            0.56774159001263       -2.38432643501646        3.14103193777151
N            1.89509690508593       -2.10685812524785        2.92457932271938
C            2.31799024921467       -0.88944635007208        2.72896978596863
C            3.65994296836540       -0.53637856358060        2.69309816142362
C            4.19037556310172        0.73414857574495        2.34895670528227
C            3.24096674588338        1.63934782136106        2.09681331865802
C           -1.76135074332607       -2.20036215476240        2.64345398611054
C           -2.00889206966963       -3.50830722127408        3.15451661714236
C           -0.92662629825312       -4.30601654156208        3.51650725982515
C            0.29885501391987       -3.73615084278580        3.66738430639692
O           -2.86412003726139       -1.50579052241329        2.30835630451516
O           -1.91782638243666       -1.48104256582723       -0.45236704372845
C           -2.55417970743682        3.10793175910744       -2.07025687677300
C           -1.22771811037478       -5.68096895979122        3.82917699650117
H           -0.69795340896677        3.66860669603088       -0.52004436826116
H           -3.07575329212143        0.72297376364217       -1.45946574887606
H            3.63530957227061        2.59439783947683        2.18163238113846
H            4.51709991867390       -1.36651561158451        2.94301077642250
H            0.92115310211360       -4.37887488031302        4.36408153109590
H           -2.99652711028876       -3.83509772248710        3.22957203100005
O           -2.77439538294533        2.41081908893812       -3.04394621098752
O           -2.79156024336738        4.49770236465886       -1.65969873956369
C           -3.26743414752954        5.34636750605119       -2.69250964965010
C            5.67023532731936        0.65204801472754        2.11501908433071
O            6.31306362774992       -0.29740975816645        1.85340246133799
O            6.24969143458777        1.89376730308089        2.13768408227925
C            7.62165400164011        1.60462724204158        2.14767138138402
O           -1.97625928923888       -6.39867643611006        3.19819643457938
O           -0.66330946071278       -6.13970183522373        4.99222037105312
C           -1.48212371656671       -6.98710456773852        5.72450649410308
C           -3.86481799648932       -2.25634832567954        1.61984205549244
C           -0.87203552982511       -2.34654021246392       -0.81446008661956
H           -0.99903302258749       -7.46129055615430        6.72252479016975
H           -1.76733427870480       -7.88025568454399        5.02419298297016
H           -2.31650303986008       -6.65966105802328        6.25373357547858
H            8.09725884214734        2.05403690348340        2.97586333690593
H            8.41875204628066        2.00321246107816        1.33488213046668
H            7.77984538981463        0.51037711659660        2.15840463172274
H           -0.27502186690340       -2.24319314900442       -1.75572437508500
H           -1.23670446501998       -3.31294327315027       -0.53606806115880
H           -0.08678890721746       -1.79321766159755       -0.09259972536578
H           -4.36454088553173       -1.46631952556411        1.04690228193062
H           -4.73491935803202       -2.81251295528200        2.09884720945376
H           -3.23600507752363       -2.64104369311446        0.98390843437635
H           -4.05963698964645        4.57890461642668       -3.16337168575939
H           -2.26980867907070        5.51056306631777       -3.07737470283947
H           -3.64189161148900        6.21939024502203       -2.32147355862383
C           -2.99291608304112        3.95719530188266        3.47286509330355
C           -3.31090725181853        2.77360662170225        4.11022371795638
C           -2.26216746086001        2.52093208195443        5.01118318439422
C           -1.00696775704003        3.22536572540201        5.10203281933135
C           -0.84791415092772        4.53049977498156        4.45185740274986
C           -1.92343732577672        4.85726979237376        3.53583620903071
C           -2.19304020988790        1.15174034862926        5.50289941505115
C           -0.92832907883601        0.47210030236350        5.77419830717509
C            0.13540098029354        1.34209443663171        5.75013356875021
N            0.16976787581192        2.66176327856947        5.52059522300795
C           -3.34604102305378        0.52558977999537        5.92879278107139
C           -3.37150863997132       -0.93222945694032        5.79602081745945
N           -2.16768138013834       -1.59095557117672        6.22901431518089
C           -1.01912549632600       -0.90970007672698        6.15458570228397
C            0.21560191310054       -1.54507061227317        6.06207614883466
C            1.38612755423823       -0.78031532569057        6.13765011783320
C            1.36079634696471        0.63390052105773        5.83193088971075
C           -4.56535833460841        1.17368350506994        6.29756724572423
C           -5.67471829989141        0.33202842589210        6.54118896459050
C           -5.78046160306439       -1.13141319983470        6.13504488153617
C           -4.53688667350460       -1.71840579584080        5.76537258149512
O           -4.47636680808753        2.51223402164651        6.61478511394201
O           -4.31563651782366        2.14114794407631        3.53335237844369
C           -1.98631812696969        6.06882716419634        2.63946063793823
C           -7.03108451363314       -1.74491340258742        6.16621671271151
H           -0.03709198622698        5.23520228061060        4.44417970882506
H           -3.80570976001872        4.21323661876902        2.76674753897352
H            2.27925028559405        1.17353038675667        5.70391835429606
H            0.48284004991703       -2.65449477279094        6.22722159067931
H           -4.26976457269979       -2.73670947591388        5.53021461346545
H           -6.44504194043802        1.03105600140486        6.53443694022078
O           -1.38309989329316        7.07259613905226        2.84507874508921
O           -2.71034063749288        5.75000878767531        1.47242143848703
C           -2.96142665559630        6.94025415914169        0.73104275061463
C            2.63872971317451       -1.52694288433283        6.39310814975361
O            3.26484759877306       -0.98465039756704        7.30685941625334
O            2.97454580118982       -2.68489393659613        5.68582216373958
C            3.85313428927378       -3.46266325868446        6.28755817102332
O           -7.29177541607976       -2.89037713549731        5.82444524875115
O           -8.00861957945526       -0.88335391926090        6.52897824130816
C           -9.27146836266132       -1.41490068898147        6.52480326662788
C           -4.16572771636207        2.47892964511415        7.94028818523126
C           -4.16861431909301        0.76005290402845        3.33179793494269
H           -9.54412481522770       -0.49129770549202        5.71093926855052
H           -9.56683449120663       -1.36920382823581        7.67609180765716
H           -9.34063319426740       -2.45363858129219        6.41097927799521
H            3.23781548648861       -4.03806013735906        7.13147630947467
H            4.82849816177432       -2.72531370938143        6.53176602515289
H            4.35302642606440       -4.11991889053437        5.58456369246463
H           -3.17620295590624        0.55721404195238        3.65691567009048
H           -4.33908909204200        0.62151128811169        2.30542426197849
H           -4.83571749815013        0.19892189048986        3.87560003938177
H           -5.05166708736861        2.58299738207529        8.73810005516489
H           -3.37860006357624        3.20930248511350        8.42853941742640
H           -3.95811334205434        1.51953885773102        8.38652685932051
H           -3.71491991625996        7.44150337510803        1.13284535317674
H           -2.96419122403601        6.77691020273870       -0.29714605646087
H           -2.00392869226896        7.32227262659015        0.99301112782678
116
 energy: -22.521055724433 gnorm: 0.586430687445 xtb: 6.6.1 (8d0f1dd)
C           -1.69610944445751        0.22091644328261       -0.83900944596003
C           -0.74777439441877       -0.64818662975500       -0.21541504088610
C            0.21550540853865       -0.12810875504798        0.65130267368974
C            0.43214116092214        1.32195024178175        0.57073925433679
C           -0.67744358664967        2.18064331880743        0.21900248523130
C           -1.56325668139721        1.62573015795890       -0.65417109876143
C            1.12163956694827       -0.90576193536873        1.46932257379107
C            2.41489799958313       -0.36659886460509        1.65966234730436
C            2.64673555479692        0.96789090545880        1.17628011195826
N            1.66175814389601        1.83572885599716        0.72167819533855
C            0.78508350114148       -2.06784177725573        2.27708359703036
C            1.82621110776822       -2.76322713130414        2.95387733058958
N            3.19324538788022       -2.38135935656676        2.80259200017433
C            3.44614329553516       -1.24545550586836        2.17349497593304
C            4.80608603016813       -0.73818436836085        2.07184952861415
C            4.89447954528133        0.71663075630919        1.90886944499057
C            3.89631195718595        1.50306611883171        1.35138501717528
C           -0.62596003295443       -2.52611286499829        2.28800084096091
C           -0.91232100939326       -3.78697359660030        2.79674813008061
C            0.22235564119867       -4.65533618558237        3.08199445633770
C            1.58401242381868       -4.16178692311928        3.20745760379152
O           -1.92969458701630       -2.12808155549162        1.82908882234831
O           -1.03440385826611       -1.98485867610857       -0.64307070649903
C           -2.67340796698040        2.57774515466777       -1.00786109433353
C           -0.02260363659015       -6.09612632539082        3.50467819786256
H           -0.61102028784518        3.29954723844213        0.46239698722962
H           -2.31587365144085       -0.35551146648447       -1.46132919543839
H            3.94889247351143        2.58558478679266        1.08725233768429
H            5.49304168693042       -1.39831829346449        2.28592142341909
H            2.38793286565387       -4.96581239491489        3.30448216771580
H           -1.80076295545446       -4.39441116934042        2.65847833404384
O           -3.36730336796375        3.33292450787791       -0.37106879728741
O           -3.29553063917870        2.05299431143152       -2.12903246342284
C           -4.58633644161656        2.17801528181856       -2.30701191878835
C            6.33035732351530        1.16224130602805        1.85716346592965
O            6.68163114698416        1.78694818194113        0.90434073854230
O            7.24119578684236        0.42325860245078        2.52313910354711
C            8.63386952424212        0.76560865093685        2.69724717381810
O           -1.19492627385117       -6.19196221449386        3.99815739801984
O            0.95846874337289       -7.03971847762544        3.57203281927306
C            0.51777216366309       -7.99059503721561        4.53132210241416
C           -2.83183404897951       -2.14475362869358        2.85290657466323
C           -0.16964377330335       -3.03305611493995       -0.88456212817036
H           -0.55680693825148       -8.20968383621981        4.47045335298288
H            0.65967861375735       -7.57192182206934        5.67781062689078
H            1.23188808449251       -8.80535148301872        4.42111144008180
H            8.95058856785007        0.47348690385259        1.73764330391651
H            9.07024332836980       -0.07577012867776        3.21416350932083
H            8.67972282142869        1.80527204774402        2.87374731593309
H           -0.84485846114183       -4.06559483647180       -0.62176071265206
H            0.59493880812510       -3.10457986845711       -0.11381498164583
H            0.10912720100055       -2.90721580041498       -1.92574478716048
H           -3.76448853572318       -2.57837522273917        2.30409222919121
H           -2.89102165044047       -1.17640239123330        3.30232148905071
H           -2.34768962102660       -2.59232814139171        3.85839006469922
H           -4.87759161870185        1.42686785517107       -2.93817647573615
H           -4.94625241005792        3.13333439689548       -2.68294151930914
H           -5.24422238907231        2.08535822928315       -1.35780462655419
C           -3.47128961730896        4.59778403419365        3.20222886054618
C           -3.66991936448975        3.33669632379971        3.67789024632448
C           -2.68554238312539        2.56112109733583        4.41905843766214
C           -1.36437511123278        2.93458085680885        3.84703456244910
C           -1.12383119781323        4.14360816847852        3.08834614944574
C           -2.17818833734215        5.09824114031093        3.07137865242288
C           -3.00883535236192        1.34798801123345        5.11447590728227
C           -1.84735360461250        0.49899523567548        5.42372962337282
C           -0.61610454004515        1.06464517277296        5.00062235377761
N           -0.35516032218647        2.20236450749549        4.20483743412023
C           -4.24018637391104        0.91793595968185        5.80592928719901
C           -4.31891779884290       -0.56658035841312        5.99499340946051
N           -3.21949848082748       -1.22783147676046        6.39633288219405
C           -2.02366287688257       -0.75397739737738        6.09288817633741
C           -0.80414573866920       -1.41418558506180        6.31055122131041
C            0.30558817540200       -0.92723532866796        5.69426358084397
C            0.49562841358700        0.20697140693172        4.94974690256510
C           -5.34443184739179        1.84604886738721        6.02127857883774
C           -6.42905763999047        1.16966249468678        6.39986393024009
C           -6.61848012024587       -0.24685464652648        6.54116260842743
C           -5.47807353258884       -1.19241578007176        6.36562292019755
O           -5.42668668906584        3.31257965023813        5.99875408657303
O           -5.03129371507594        2.79885938234237        3.49366176840737
C           -2.02591001679212        6.51248618348804        3.20676705377154
C           -7.92471542568985       -0.84667329071530        6.78779470122234
H           -0.16436885206436        4.32549508840116        2.93400973414972
H           -4.32202666104887        5.19315804772885        2.78852440092950
H            1.13247644781882        0.16199695349955        4.01214856492095
H           -0.76064955836073       -2.32194494182861        6.94126467180238
H           -5.77851414226387       -2.21292009727492        6.51628859250693
H           -7.36218409799822        1.68299500802533        6.58410234947423
O           -0.96743199587991        6.94136438695639        2.88681675610520
O           -2.91548461774028        7.28865278830938        3.69840106758665
C           -2.53041845648559        8.75096163457940        3.69524059855737
C            1.53973858267575       -1.62702552196145        6.26796534403142
O            2.67618540074669       -1.14584588685032        6.24046177572449
O            1.39791501675508       -2.63374618223246        7.11128394558136
C            2.59908840077012       -3.35355724070127        7.35898341389997
O           -7.93959513881388       -1.82077948035288        7.65933100283588
O           -9.01922862914798       -0.45658687125865        6.25329090079337
C          -10.18869137479902       -1.05981855328103        6.95148996582511
C           -4.32470927086688        3.72329699606550        6.55023090469977
C           -6.11967381581561        3.55985167271710        3.38536068424653
H          -11.20819993890442       -0.66633999927057        6.55383506879768
H          -10.28121206201561       -0.59399991274320        7.99683244498129
H          -10.22339193260324       -2.07578733636033        6.55466329707836
H            2.48952424766283       -3.75377877592061        8.36413687188791
H            3.56938321629305       -2.72735151600971        7.10271934334728
H            2.67746094448854       -4.12220375715775        6.56903981946373
H           -6.10738640147276        3.89295072923902        2.34048778094814
H           -6.05332819167823        4.19934538944144        4.25228970024491
H           -7.12746713359070        3.08981573336695        3.65734688974942
H           -3.67006304542696        3.90775453589275        5.66421168202702
H           -4.22485250818330        3.00162565077692        7.36161189998125
H           -4.69449595484640        4.77093907913168        6.88065362235601
H           -1.48207688659748        9.08349418543717        3.94610852493942
H           -3.23520985914025        9.07617386507233        4.43639405569017
H           -2.92879952041632        8.85132680374793        2.64714675700674
116
 energy: -22.442340446938 gnorm: 0.606844333238 xtb: 6.6.1 (8d0f1dd)
C           -2.12728383655402       -0.17567437727196        0.40824749284809
C           -0.95970073391804       -1.00430192859239        0.30343974968457
C            0.15505616978967       -0.64941188525020        1.30960711552620
C            0.11587795553583        0.75617845782711        1.71235568828588
C           -0.89072427008715        1.62159015207466        1.24677372318394
C           -2.06208455799548        1.10007037439419        0.80095175885256
C            1.21893807865361       -1.53577149547016        1.77038280074580
C            2.40436873831384       -0.86835071203651        2.17362754611125
C            2.40133620462443        0.64127819184771        2.55950802719883
N            1.16663821326923        1.32521191847147        2.41791933388902
C            1.17492697110533       -2.92257833001603        1.96496533239994
C            2.23468103302053       -3.59139538972007        2.39146532757685
N            3.31237932076853       -2.85556929131276        2.77852324593227
C            3.58452104463768       -1.53878232215701        2.50494499088455
C            4.83324432080406       -0.94278258572021        2.38824200049191
C            4.89948836629211        0.47728911823529        2.36726180996589
C            3.69348149121831        1.24130282732890        2.65077931794529
C            0.12302490602274       -3.89944638452771        1.65986105243134
C            0.30880177996965       -5.39800693382305        1.75254913421336
C            1.43356916151832       -5.91639286848152        2.34874020702189
C            2.36005270768201       -4.92026520759990        2.55531957964623
O           -1.02661025842258       -3.20535651875819        1.35079342617281
O           -1.10088122385659       -2.08331460987665       -0.65717118325531
C           -2.84575059431864        2.23231608342254        0.42180439905920
C            1.46755673184516       -6.92280881939494        3.42380282384261
H           -0.63106695401558        2.64456369658570        1.06678217701365
H           -3.09053981162790       -0.39562578788327       -0.22018847395491
H            3.63014061067626        2.34414432560281        2.42423656845724
H            5.60414669840282       -1.64366492626441        2.33896715057802
H            3.11963486713258       -5.21214936241109        3.21246863023575
H           -0.49164948084387       -6.22385049663137        1.80635193727521
O           -2.41348789770214        3.33693559171995        0.38031030575112