      -----------------------------------------------------------      
     |                   =====================                   |     
     |                           x T B                           |     
     |                   =====================                   |     
     |                         S. Grimme                         |     
     |          Mulliken Center for Theoretical Chemistry        |     
     |                    University of Bonn                     |     
      -----------------------------------------------------------      

   * xtb version 6.6.1 (8d0f1dd) compiled by 'runner@Mac-1690902418499.local' on 2023-08-01

   xtb is free software: you can redistribute it and/or modify it under
   the terms of the GNU Lesser General Public License as published by
   the Free Software Foundation, either version 3 of the License, or
   (at your option) any later version.
   
   xtb is distributed in the hope that it will be useful,
   but WITHOUT ANY WARRANTY; without even the implied warranty of
   MERCHANTABILITY or FITNESS FOR A PARTICULAR PURPOSE.  See the
   GNU Lesser General Public License for more details.
   
   Cite this work as:
   * C. Bannwarth, E. Caldeweyher, S. Ehlert, A. Hansen, P. Pracht,
     J. Seibert, S. Spicher, S. Grimme, WIREs Comput. Mol. Sci., 2020, 11,
     e01493. DOI: 10.1002/wcms.1493
   
   for GFN2-xTB:
   * C. Bannwarth, S. Ehlert and S. Grimme., J. Chem. Theory Comput., 2019,
     15, 1652-1671. DOI: 10.1021/acs.jctc.8b01176
   for GFN1-xTB:
   * S. Grimme, C. Bannwarth, P. Shushkov, J. Chem. Theory Comput., 2017,
     13, 1989-2009. DOI: 10.1021/acs.jctc.7b00118
   for GFN0-xTB:
   * P. Pracht, E. Caldeweyher, S. Ehlert, S. Grimme, ChemRxiv, 2019, preprint.
     DOI: 10.26434/chemrxiv.8326202.v1
   for GFN-FF:
   * S. Spicher and S. Grimme, Angew. Chem. Int. Ed., 2020, 59, 15665-15673.
     DOI: 10.1002/anie.202004239
   
   for ALPB and GBSA implicit solvation:
   * S. Ehlert, M. Stahn, S. Spicher, S. Grimme, J. Chem. Theory Comput.,
     2021, 17, 4250-4261. DOI: 10.1021/acs.jctc.1c00471
   
   for DFT-D4:
   * E. Caldeweyher, C. Bannwarth and S. Grimme, J. Chem. Phys., 2017,
     147, 034112. DOI: 10.1063/1.4993215
   * E. Caldeweyher, S. Ehlert, A. Hansen, H. Neugebauer, S. Spicher,
     C. Bannwarth and S. Grimme, J. Chem. Phys., 2019, 150, 154122.
     DOI: 10.1063/1.5090222
   * E. Caldeweyher, J.-M. Mewes, S. Ehlert and S. Grimme, Phys. Chem. Chem. Phys.
     2020, 22, 8499-8512. DOI: 10.1039/D0CP00502A
   
   for sTDA-xTB:
   * S. Grimme and C. Bannwarth, J. Chem. Phys., 2016, 145, 054103.
     DOI: 10.1063/1.4959605
   
   in the mass-spec context:
   * V. Asgeirsson, C. Bauer and S. Grimme, Chem. Sci., 2017, 8, 4879.
     DOI: 10.1039/c7sc00601b
   * J. Koopman and S. Grimme, ACS Omega 2019, 4, 12, 15120-15133.
     DOI: 10.1021/acsomega.9b02011
   
   for metadynamics refer to:
   * S. Grimme, J. Chem. Theory Comput., 2019, 155, 2847-2862
     DOI: 10.1021/acs.jctc.9b00143
   
   for SPH calculations refer to:
   * S. Spicher and S. Grimme, J. Chem. Theory Comput., 2021, 17, 1701-1714
     DOI: 10.1021/acs.jctc.0c01306
   
   with help from (in alphabetical order)
   P. Atkinson, C. Bannwarth, F. Bohle, G. Brandenburg, E. Caldeweyher
   M. Checinski, S. Dohm, S. Ehlert, S. Ehrlich, I. Gerasimov, C. Hölzer
   A. Katbashev, J. Koopman, C. Lavigne, S. Lehtola, F. März, M. Müller,
   F. Musil, H. Neugebauer, J. Pisarek, C. Plett, P. Pracht, F. Pultar,
   J. Seibert, P. Shushkov, S. Spicher, M. Stahn, M. Steiner, T. Strunk,
   J. Stückrath, T. Rose, and J. Unsleber
   
 * started run on 2025/03/14 at 12:39:23.394     

           -------------------------------------------------
          |                Calculation Setup                |
           -------------------------------------------------

          program call               : xtb opt_dimer.mol --md --gfnff --input md_settings.inp
          coordinate file            : opt_dimer.mol
          omp threads                :                     8

   ID    Z sym.   atoms
    1    6 C      1-9, 11, 12, 14-21, 24, 25, 34, 35, 38, 41-43, 59-67, 69,
                  70, 72-79, 82, 83, 92, 93, 96, 99-101
    2    7 N      10, 13, 68, 71
    3    8 O      22, 23, 32, 33, 36, 37, 39, 40, 80, 81, 90, 91, 94, 95, 97,
                  98
    4    1 H      26-31, 44-58, 84-89, 102-116

molecular fragmentation (1/2 indicates fragments):
111111111111111111111111111111111111111111111111111111111122222222222222
22222222222222222222222222222222222222222222
# atoms in fragment 1/2:    58    58
 fragment masses (1/2) :      501.47      501.47
CMA distance (Bohr)    :  11.200
constraining FC (au)   :  0.0500

          ==================== Thresholds ====================
          CN  :   150.00000
          rep :   500.00000
          disp:  2500.00000
          HB1 :   250.00000
          HB2 :   450.00000

          Pauling EN used:
          Z : 1  EN :  2.20
          Z : 6  EN :  2.55
          Z : 7  EN :  3.04
          Z : 8  EN :  3.44
          electric field strengths (au): 0.000

           ------------------------------------------------- 
          |           Force Field Initialization            |
           ------------------------------------------------- 

          distances ...
          ----------------------------------------
          generating topology and atomic info file ...
          pair mat ...
          computing topology distances matrix with Floyd-Warshall algo ...
          making topology EEQ charges ...
          #fragments for EEQ constrain: 2
          ----------------------------------------
          generating topology and atomic info file ...
          pair mat ...
          computing topology distances matrix with Floyd-Warshall algo ...
          making topology EEQ charges ...
          rings ...
          # BATM   1140
          # H in HB   42
          doing iterative Hueckel for 2 subsystem(s) ...

  atom   neighbors  erfCN metchar sp-hybrid imet pi  qest     coordinates
    1  C       3    2.81   0.00         2    0    1  -0.013   -4.245270    4.969224   -4.158909
    2  C       3    2.83   0.00         2    0    1   0.104   -3.957842    2.753709   -2.824952
    3  C       3    2.82   0.00         2    0    1   0.014   -2.365559    2.686624   -0.678412
    4  C       3    2.86   0.00         2    0    1   0.068   -0.652522    4.755118   -0.308970
    5  C       3    2.82   0.00         2    0    1  -0.010   -1.001744    7.004459   -1.702454
    6  C       3    2.81   0.00         2    0    1   0.024   -2.849707    7.140330   -3.519804
    7  C       3    2.82   0.00         2    0    1   0.003   -2.200208    0.649121    1.088860
    8  C       3    2.84   0.00         2    0    1   0.018    0.040440    0.468274    2.493683
    9  C       3    2.86   0.00         2    0    1   0.069    1.800531    2.510879    2.483478
   10  N       2    1.96   0.00         2    0    1  -0.182    1.329989    4.642112    1.239849
   11  C       3    2.82   0.00         2    0    1   0.014   -4.063478   -1.256479    1.518962
   12  C       3    2.86   0.00         2    0    1   0.068   -3.207243   -3.548906    2.666782
   13  N       2    1.96   0.00         2    0    1  -0.182   -0.961304   -3.769248    3.797027
   14  C       3    2.86   0.00         2    0    1   0.069    0.558792   -1.768217    3.905497
   15  C       3    2.82   0.00         2    0    1  -0.009    2.832133   -1.908434    5.284997
   16  C       3    2.81   0.00         2    0    1   0.024    4.540634    0.084093    5.246069
   17  C       3    2.82   0.00         2    0    1  -0.009    4.047604    2.279577    3.896426
   18  C       3    2.83   0.00         2    0    1   0.104   -6.679993   -0.992673    0.979067
   19  C       3    2.82   0.00         2    0    1  -0.013   -8.200467   -3.111434    1.032735
   20  C       3    2.81   0.00         2    0    1   0.024   -7.238785   -5.466978    1.798263
   21  C       3    2.82   0.00         2    0    1  -0.010   -4.811054   -5.682406    2.688513
   22  O       2    1.92   0.00         3    0    1  -0.326   -7.529425    1.377799    0.592429
   23  O       2    1.92   0.00         3    0    1  -0.326   -5.227738    0.650822   -3.699517
   24  C       3    2.82   0.00         2    0    1   0.224   -3.246172    9.560691   -4.884564
   25  C       3    2.83   0.00         2    0    1   0.224   -9.002655   -7.648666    1.731934
   26  H       1    0.97   0.00         0    0    0   0.083    0.212783    8.593341   -1.316005
   27  H       1    0.97   0.00         0    0    0   0.084   -5.525937    5.010609   -5.743823
   28  H       1    0.97   0.00         0    0    0   0.084    5.357563    3.836144    3.906064
   29  H       1    0.97   0.00         0    0    0   0.084    3.262045   -3.598039    6.342110
   30  H       1    0.97   0.00         0    0    0   0.083   -4.094848   -7.427758    3.451774
   31  H       1    0.97   0.00         0    0    0   0.084  -10.168427   -3.038869    0.513439
   32  O       1    0.98   0.00         2    0    1  -0.364   -1.815460   11.328908   -4.836187
   33  O       2    1.92   0.00         3    0    1  -0.315   -5.432396    9.576376   -6.176003
   34  C       4    3.50   0.00         3    0    0   0.037   -5.971535   11.832898   -7.523567
   35  C       3    2.83   0.00         2    0    1   0.223    6.947767   -0.241696    6.665820
   36  O       1    0.98   0.00         2    0    1  -0.365    7.358594   -1.958890    8.110138
   37  O       2    1.92   0.00         3    0    1  -0.315    8.628867    1.554678    6.117421
   38  C       4    3.50   0.00         3    0    0   0.039   11.013702    1.357012    7.336106
   39  O       1    0.98   0.00         2    0    1  -0.364  -11.139180   -7.545676    0.939572
   40  O       2    1.92   0.00         3    0    1  -0.315   -7.964629   -9.764215    2.653931
   41  C       4    3.51   0.00         3    0    0   0.037   -9.534235  -11.939668    2.644483
   42  C       4    3.50   0.00         3    0    0   0.033  -10.091515    1.732312   -0.028724
   43  C       4    3.50   0.00         3    0    0   0.033   -3.669848   -1.323753   -4.592034
   44  H       1    0.97   0.00         0    0    0   0.079   -8.421564  -13.453527    3.473884
   45  H       1    0.97   0.00         0    0    0   0.079  -10.086413  -12.417579    0.714505
   46  H       1    0.97   0.00         0    0    0   0.079  -11.240280  -11.598572    3.754508
   47  H       1    0.97   0.00         0    0    0   0.078   12.103507    2.986523    6.721945
   48  H       1    0.97   0.00         0    0    0   0.078   11.954407   -0.393819    6.779959
   49  H       1    0.97   0.00         0    0    0   0.078   10.772951    1.362304    9.383624
   50  H       1    0.97   0.00         0    0    0   0.076   -4.942768   -2.844983   -5.137031
   51  H       1    0.97   0.00         0    0    0   0.076   -2.364614   -2.016905   -3.146016
   52  H       1    0.97   0.00         0    0    0   0.076   -2.580610   -0.709025   -6.242332
   53  H       1    0.97   0.00         0    0    0   0.076  -10.335668    3.765846   -0.212216
   54  H       1    0.97   0.00         0    0    0   0.076  -11.336845    1.022909    1.462270
   55  H       1    0.97   0.00         0    0    0   0.076  -10.554876    0.814850   -1.821129
   56  H       1    0.97   0.00         0    0    0   0.079   -7.823088   11.568336   -8.372621
   57  H       1    0.97   0.00         0    0    0   0.079   -4.545358   12.156608   -8.979223
   58  H       1    0.97   0.00         0    0    0   0.079   -5.982684   13.448047   -6.239687
   59  C       3    2.82   0.00         2    0    1  -0.013   -4.858108    2.819471    6.161641
   60  C       3    2.82   0.00         2    0    1   0.104   -4.235065    0.949398    7.888095
   61  C       3    2.82   0.00         2    0    1   0.014   -2.088903    1.282368    9.446552
   62  C       3    2.86   0.00         2    0    1   0.068   -0.257948    3.146961    8.696142
   63  C       3    2.82   0.00         2    0    1  -0.010   -0.946186    5.003806    6.915642
   64  C       3    2.81   0.00         2    0    1   0.024   -3.281887    4.909697    5.772357
   65  C       3    2.82   0.00         2    0    1   0.003   -1.545607   -0.007370   11.759955
   66  C       3    2.84   0.00         2    0    1   0.018    0.999098   -0.101667   12.507719
   67  C       3    2.85   0.00         2    0    1   0.069    2.799818    1.515560   11.323617
   68  N       2    1.96   0.00         2    0    1  -0.182    2.086258    3.225196    9.621919
   69  C       3    2.82   0.00         2    0    1   0.014   -3.330642   -1.042940   13.502282
   70  C       3    2.86   0.00         2    0    1   0.068   -2.375953   -2.775441   15.351190
   71  N       2    1.96   0.00         2    0    1  -0.182    0.083904   -3.188346   15.720632
   72  C       3    2.86   0.00         2    0    1   0.069    1.746296   -1.744028   14.507805
   73  C       3    2.82   0.00         2    0    1  -0.009    4.326339   -1.855711   15.158249
   74  C       3    2.81   0.00         2    0    1   0.024    6.064887   -0.256247   14.013264
   75  C       3    2.82   0.00         2    0    1  -0.009    5.327705    1.450932   12.158498
   76  C       3    2.82   0.00         2    0    1   0.104   -5.917110   -0.313695   13.637587
   77  C       3    2.81   0.00         2    0    1  -0.013   -7.514874   -1.562237   15.272389
   78  C       3    2.81   0.00         2    0    1   0.024   -6.610451   -3.491269   16.863727
   79  C       3    2.82   0.00         2    0    1  -0.010   -4.084454   -4.070092   16.943662
   80  O       2    1.92   0.00         3    0    1  -0.326   -6.614608    1.672597   12.188167
   81  O       2    1.92   0.00         3    0    1  -0.326   -5.775003   -1.106435    7.865418
   82  C       3    2.82   0.00         2    0    1   0.224   -4.004897    6.995199    4.038723
   83  C       3    2.83   0.00         2    0    1   0.224   -8.494886   -4.766078   18.507600
   84  H       1    0.97   0.00         0    0    0   0.083    0.375678    6.485351    6.463052
   85  H       1    0.97   0.00         0    0    0   0.084   -6.575113    2.631066    5.086009
   86  H       1    0.97   0.00         0    0    0   0.084    6.648812    2.771094   11.349128
   87  H       1    0.97   0.00         0    0    0   0.084    4.935398   -3.151874   16.608047
   88  H       1    0.97   0.00         0    0    0   0.083   -3.336311   -5.429561   18.258912
   89  H       1    0.97   0.00         0    0    0   0.084   -9.495496   -1.105490   15.401457
   90  O       1    0.98   0.00         2    0    1  -0.364   -2.753898    8.870752    3.718225
   91  O       2    1.92   0.00         3    0    1  -0.315   -6.231939    6.577570    2.903186
   92  C       4    3.50   0.00         3    0    0   0.037   -7.138629    8.466351    1.227377
   93  C       3    2.83   0.00         2    0    1   0.223    8.728456   -0.421787   14.897089
   94  O       1    0.98   0.00         2    0    1  -0.365    9.451465   -1.839648   16.524143
   95  O       2    1.92   0.00         3    0    1  -0.315   10.266315    1.206779   13.707128
   96  C       4    3.51   0.00         3    0    0   0.039   12.837099    1.144229   14.481727
   97  O       1    0.98   0.00         2    0    1  -0.364  -10.720038   -4.260388   18.531032
   98  O       2    1.92   0.00         3    0    1  -0.315   -7.462339   -6.552625   19.967224
   99  C       4    3.51   0.00         3    0    0   0.037   -9.149487   -7.852190   21.597869
  100  C       4    3.50   0.00         3    0    0   0.033   -9.148164    2.482911   12.239567
  101  C       4    3.49   0.00         3    0    0   0.033   -4.868123   -3.499206    8.625277
  102  H       1    0.97   0.00         0    0    0   0.079   -8.013762   -9.218840   22.627581
  103  H       1    0.97   0.00         0    0    0   0.079  -10.616670   -8.804234   20.502206
  104  H       1    0.97   0.00         0    0    0   0.079  -10.051453   -6.529193   22.899701
  105  H       1    0.97   0.00         0    0    0   0.078   13.767978    2.710623   13.532518
  106  H       1    0.97   0.00         0    0    0   0.078   13.701270   -0.649499   13.939943
  107  H       1    0.97   0.00         0    0    0   0.078   12.969001    1.350398   16.530001
  108  H       1    0.97   0.00         0    0    0   0.076   -5.857206   -4.869257    7.444765
  109  H       1    0.97   0.00         0    0    0   0.076   -5.294446   -3.893025   10.607222
  110  H       1    0.97   0.00         0    0    0   0.076   -2.836290   -3.684777    8.312905
  111  H       1    0.97   0.00         0    0    0   0.076   -9.234525    4.074816   10.938869
  112  H       1    0.97   0.00         0    0    0   0.076   -9.706578    3.102552   14.131183
  113  H       1    0.97   0.00         0    0    0   0.076  -10.425619    0.993996   11.589690
  114  H       1    0.97   0.00         0    0    0   0.079   -7.416986    7.608604   -0.624932
  115  H       1    0.97   0.00         0    0    0   0.079   -5.768200   10.003265    1.094151
  116  H       1    0.97   0.00         0    0    0   0.079   -8.930279    9.178778    1.958323

          #atoms :   116
          #bonds :   124
          #angl  :   206
          #tors  :   302
          #nmol  :   2
          #optfrag :   2
           ------------------------------------------------- 
          |                   G F N - F F                   |
          |          A general generic force-field          |
          |                  Version 1.0.3                  | 
           ------------------------------------------------- 
          Number of HB bonds (bound hydrogen)     16690
          Number of HB bonds (unbound hydrogen)   471
          Number of XB bonds                      0

 E+G (total)                   0 d,  0 h,  0 min,  0.004 sec
 distance/D3 list               ...        0 min,  0.000 sec (  0.257%)
 non bonded repulsion           ...        0 min,  0.000 sec (  2.885%)
 dCN                            ...        0 min,  0.000 sec (  2.578%)
 EEQ energy and q               ...        0 min,  0.000 sec (  6.412%)
 D3                             ...        0 min,  0.000 sec (  9.906%)
 EEQ gradient                   ...        0 min,  0.002 sec ( 48.451%)
 bonds                          ...        0 min,  0.000 sec (  3.560%)
 bend and torsion               ...        0 min,  0.000 sec (  2.478%)
 bonded ATM                     ...        0 min,  0.000 sec (  0.982%)
 HB/XB (incl list setup)        ...        0 min,  0.001 sec ( 22.334%)

         :::::::::::::::::::::::::::::::::::::::::::::::::::::
         ::                     SUMMARY                     ::
         :::::::::::::::::::::::::::::::::::::::::::::::::::::
         :: total energy             -23.049977905037 Eh    ::
         :: gradient norm              0.141097059011 Eh/a0 ::
         ::.................................................::
         :: bond energy              -23.684288386945 Eh    ::
         :: angle energy               0.091916836287 Eh    ::
         :: torsion energy             0.044252925121 Eh    ::
         :: repulsion energy           1.625133664902 Eh    ::
         :: electrostat energy        -0.945498415211 Eh    ::
         :: dispersion energy         -0.151665891760 Eh    ::
         :: HB energy                 -0.006713540546 Eh    ::
         :: XB energy                  0.000000000000 Eh    ::
         :: bonded atm energy         -0.023115096885 Eh    ::
         :: external energy            0.000000000000 Eh    ::
         :: add. restraining           0.000000000000 Eh    ::
         :: total charge              -0.000000000000 e     ::
         :::::::::::::::::::::::::::::::::::::::::::::::::::::

           -------------------------------------------------
          |                Property Printout                |
           -------------------------------------------------

           -------------------------------------------------
          | TOTAL ENERGY              -23.049977905037 Eh   |
          | GRADIENT NORM               0.141097059011 Eh/α |
           -------------------------------------------------
           ------------------------------------------------- 
          |               Molecular Dynamics                |
           ------------------------------------------------- 
 trajectories on xtb.trj or xtb.trj.<n>

 MD time /ps        :   20.00
 dt /fs             :    2.00
 SCC accuracy       :    2.00
 temperature /K     :  300.00
 max steps          : 10000
 block length (av.) :  2500
 dumpstep(trj) /fs  :  500.00   250
 dumpstep(coords)/fs: 1000.00   500
 H atoms mass (amu) :     4
 # deg. of freedom  :   348
 SHAKE off
 Berendsen THERMOSTAT on
         time (ps)    <Epot>      Ekin   <T>   T     Etot
      0    0.00      0.00000   0.3449    0.    0.   -22.70511
est. speed in wall clock h for 100 ps :  0.02
    200    0.40    -22.79100   0.1857  348.  337.   -22.73515
    400    0.80    -22.85144   0.1888  340.  343.   -22.74198
    600    1.20    -22.87426   0.1753  334.  318.   -22.72744
    800    1.60    -22.88583   0.1873  329.  340.   -22.74493
   1000    2.00    -22.89352   0.1629  325.  296.   -22.75650
   1200    2.40    -22.89859   0.1549  321.  281.   -22.76300
   1400    2.80    -22.90267   0.1553  319.  282.   -22.76614
   1600    3.20    -22.90543   0.1709  316.  310.   -22.76615
   1800    3.60    -22.90796   0.1797  315.  326.   -22.76092
   2000    4.00    -22.90968   0.1830  313.  332.   -22.76446
   2200    4.40    -22.91201   0.1688  313.  306.   -22.76723
   2400    4.80    -22.91333   0.1632  312.  296.   -22.76632
block <Epot> / <T> :     -22.92315  311.     drift:  0.99D+02   Tbath : 300.
   2600    5.20    -22.91444   0.1558  311.  283.   -22.75985
   2800    5.60    -22.91549   0.1721  310.  312.   -22.75764
   3000    6.00    -22.91664   0.1603  310.  291.   -22.77152
   3200    6.40    -22.91753   0.1670  309.  303.   -22.78659
   3400    6.80    -22.91832   0.1607  309.  292.   -22.77178
   3600    7.20    -22.91877   0.1642  308.  298.   -22.77083
   3800    7.60    -22.91947   0.1749  308.  317.   -22.76427
   4000    8.00    -22.92011   0.1669  307.  303.   -22.75774
   4200    8.40    -22.92071   0.1597  307.  290.   -22.76027
   4400    8.80    -22.92120   0.1656  307.  301.   -22.76081
   4600    9.20    -22.92180   0.1598  307.  290.   -22.76537
   4800    9.60    -22.92234   0.1754  306.  318.   -22.76705
   5000   10.00    -22.92286   0.1680  306.  305.   -22.76659
block <Epot> / <T> :     -22.93174  301.     drift:  0.99D+02   Tbath : 300.
   5200   10.40    -22.92327   0.1532  306.  278.   -22.78197
   5400   10.80    -22.92376   0.1680  306.  305.   -22.77930
   5600   11.20    -22.92412   0.1608  305.  292.   -22.77534
   5800   11.60    -22.92440   0.1675  305.  304.   -22.76947
   6000   12.00    -22.92474   0.1693  305.  307.   -22.76586
   6200   12.40    -22.92496   0.1511  305.  274.   -22.77631
   6400   12.80    -22.92511   0.1628  305.  295.   -22.76613
   6600   13.20    -22.92531   0.1460  304.  265.   -22.76636
   6800   13.60    -22.92546   0.1666  304.  302.   -22.75805
   7000   14.00    -22.92565   0.1563  304.  284.   -22.76642
   7200   14.40    -22.92591   0.1635  304.  297.   -22.76701
   7400   14.80    -22.92612   0.1604  304.  291.   -22.77581
block <Epot> / <T> :     -22.93294  300.     drift:  0.99D+02   Tbath : 300.
   7600   15.20    -22.92626   0.1703  304.  309.   -22.76799
   7800   15.60    -22.92642   0.1641  304.  298.   -22.77608
   8000   16.00    -22.92658   0.1548  304.  281.   -22.76094
   8200   16.40    -22.92671   0.1569  304.  285.   -22.78151
   8400   16.80    -22.92676   0.1472  303.  267.   -22.76530
   8600   17.20    -22.92681   0.1674  303.  304.   -22.76310
   8800   17.60    -22.92688   0.1625  303.  295.   -22.76525
   9000   18.00    -22.92699   0.1730  303.  314.   -22.76131
   9200   18.40    -22.92710   0.1491  303.  271.   -22.75807
   9400   18.80    -22.92727   0.1594  303.  289.   -22.76539
   9600   19.20    -22.92738   0.1659  303.  301.   -22.76449
   9800   19.60    -22.92751   0.1662  303.  302.   -22.76374
 average properties 
 Epot               :  -22.927616543577148     
 Epot (accurate SCC):  -22.929783439045494     
 Ekin               :  0.16696111588267640     
 Etot               :  -22.760655427694473     
 T                  :   303.00115059202972     
 normal exit of md()
########################################################################
[WARNING] Runtime exception occurred
-1- gfnff_setup: Could not read topology file.
########################################################################
Note: The following floating-point exceptions are signalling: IEEE_UNDERFLOW_FLAG
normal termination of xtb

------------------------------------------------------------------------
 * finished run on 2025/03/14 at 12:39:39.506     
------------------------------------------------------------------------
 total:
 * wall-time:     0 d,  0 h,  0 min, 16.111 sec
 *  cpu-time:     0 d,  0 h,  0 min, 31.817 sec
 * ratio c/w:     1.975 speedup
 SCF:
 * wall-time:     0 d,  0 h,  0 min,  0.006 sec
 *  cpu-time:     0 d,  0 h,  0 min,  0.005 sec
 * ratio c/w:     0.906 speedup
 MD:
 * wall-time:     0 d,  0 h,  0 min, 16.062 sec
 *  cpu-time:     0 d,  0 h,  0 min, 31.799 sec
 * ratio c/w:     1.980 speedup

