      -----------------------------------------------------------      
     |                   =====================                   |     
     |                           x T B                           |     
     |                   =====================                   |     
     |                         S. Grimme                         |     
     |          Mulliken Center for Theoretical Chemistry        |     
     |                    University of Bonn                     |     
      -----------------------------------------------------------      

   * xtb version 6.6.1 (8d0f1dd) compiled by 'runner@Mac-1690902418499.local' on 2023-08-01

   xtb is free software: you can redistribute it and/or modify it under
   the terms of the GNU Lesser General Public License as published by
   the Free Software Foundation, either version 3 of the License, or
   (at your option) any later version.
   
   xtb is distributed in the hope that it will be useful,
   but WITHOUT ANY WARRANTY; without even the implied warranty of
   MERCHANTABILITY or FITNESS FOR A PARTICULAR PURPOSE.  See the
   GNU Lesser General Public License for more details.
   
   Cite this work as:
   * C. Bannwarth, E. Caldeweyher, S. Ehlert, A. Hansen, P. Pracht,
     J. Seibert, S. Spicher, S. Grimme, WIREs Comput. Mol. Sci., 2020, 11,
     e01493. DOI: 10.1002/wcms.1493
   
   for GFN2-xTB:
   * C. Bannwarth, S. Ehlert and S. Grimme., J. Chem. Theory Comput., 2019,
     15, 1652-1671. DOI: 10.1021/acs.jctc.8b01176
   for GFN1-xTB:
   * S. Grimme, C. Bannwarth, P. Shushkov, J. Chem. Theory Comput., 2017,
     13, 1989-2009. DOI: 10.1021/acs.jctc.7b00118
   for GFN0-xTB:
   * P. Pracht, E. Caldeweyher, S. Ehlert, S. Grimme, ChemRxiv, 2019, preprint.
     DOI: 10.26434/chemrxiv.8326202.v1
   for GFN-FF:
   * S. Spicher and S. Grimme, Angew. Chem. Int. Ed., 2020, 59, 15665-15673.
     DOI: 10.1002/anie.202004239
   
   for ALPB and GBSA implicit solvation:
   * S. Ehlert, M. Stahn, S. Spicher, S. Grimme, J. Chem. Theory Comput.,
     2021, 17, 4250-4261. DOI: 10.1021/acs.jctc.1c00471
   
   for DFT-D4:
   * E. Caldeweyher, C. Bannwarth and S. Grimme, J. Chem. Phys., 2017,
     147, 034112. DOI: 10.1063/1.4993215
   * E. Caldeweyher, S. Ehlert, A. Hansen, H. Neugebauer, S. Spicher,
     C. Bannwarth and S. Grimme, J. Chem. Phys., 2019, 150, 154122.
     DOI: 10.1063/1.5090222
   * E. Caldeweyher, J.-M. Mewes, S. Ehlert and S. Grimme, Phys. Chem. Chem. Phys.
     2020, 22, 8499-8512. DOI: 10.1039/D0CP00502A
   
   for sTDA-xTB:
   * S. Grimme and C. Bannwarth, J. Chem. Phys., 2016, 145, 054103.
     DOI: 10.1063/1.4959605
   
   in the mass-spec context:
   * V. Asgeirsson, C. Bauer and S. Grimme, Chem. Sci., 2017, 8, 4879.
     DOI: 10.1039/c7sc00601b
   * J. Koopman and S. Grimme, ACS Omega 2019, 4, 12, 15120-15133.
     DOI: 10.1021/acsomega.9b02011
   
   for metadynamics refer to:
   * S. Grimme, J. Chem. Theory Comput., 2019, 155, 2847-2862
     DOI: 10.1021/acs.jctc.9b00143
   
   for SPH calculations refer to:
   * S. Spicher and S. Grimme, J. Chem. Theory Comput., 2021, 17, 1701-1714
     DOI: 10.1021/acs.jctc.0c01306
   
   with help from (in alphabetical order)
   P. Atkinson, C. Bannwarth, F. Bohle, G. Brandenburg, E. Caldeweyher
   M. Checinski, S. Dohm, S. Ehlert, S. Ehrlich, I. Gerasimov, C. Hölzer
   A. Katbashev, J. Koopman, C. Lavigne, S. Lehtola, F. März, M. Müller,
   F. Musil, H. Neugebauer, J. Pisarek, C. Plett, P. Pracht, F. Pultar,
   J. Seibert, P. Shushkov, S. Spicher, M. Stahn, M. Steiner, T. Strunk,
   J. Stückrath, T. Rose, and J. Unsleber
   
 * started run on 2025/03/14 at 12:44:39.722     

           -------------------------------------------------
          |                Calculation Setup                |
           -------------------------------------------------

          program call               : xtb scoord.19 --md --gfnff --input md_settings.inp
          coordinate file            : scoord.19
          omp threads                :                     8

   ID    Z sym.   atoms
    1    6 C      1-9, 11, 12, 14-21, 24, 25, 34, 35, 38, 41-43, 59-67, 69,
                  70, 72-79, 82, 83, 92, 93, 96, 99-101
    2    7 N      10, 13, 68, 71
    3    8 O      22, 23, 32, 33, 36, 37, 39, 40, 80, 81, 90, 91, 94, 95, 97,
                  98
    4    1 H      26-31, 44-58, 84-89, 102-116

molecular fragmentation (1/2 indicates fragments):
111111111111111111111111111111111111111111111111111111111122222222222222
22222222222222222222222222222222222222222222
# atoms in fragment 1/2:    58    58
 fragment masses (1/2) :      501.47      501.47
CMA distance (Bohr)    :  11.095
constraining FC (au)   :  0.0500

          ==================== Thresholds ====================
          CN  :   150.00000
          rep :   500.00000
          disp:  2500.00000
          HB1 :   250.00000
          HB2 :   450.00000

          Pauling EN used:
          Z : 1  EN :  2.20
          Z : 6  EN :  2.55
          Z : 7  EN :  3.04
          Z : 8  EN :  3.44
          electric field strengths (au): 0.000

           ------------------------------------------------- 
          |           Force Field Initialization            |
           ------------------------------------------------- 

          distances ...
          ----------------------------------------
          generating topology and atomic info file ...
          pair mat ...
          computing topology distances matrix with Floyd-Warshall algo ...
          making topology EEQ charges ...
          #fragments for EEQ constrain: 2
          ----------------------------------------
          generating topology and atomic info file ...
          pair mat ...
          computing topology distances matrix with Floyd-Warshall algo ...
          making topology EEQ charges ...
          rings ...
          # BATM   1140
          # H in HB   42
          doing iterative Hueckel for 2 subsystem(s) ...

  atom   neighbors  erfCN metchar sp-hybrid imet pi  qest     coordinates
    1  C       3    2.79   0.00         2    0    1  -0.013   -9.499868    7.471309    5.070773
    2  C       3    2.81   0.00         2    0    1   0.104   -7.044985    6.761009    4.216866
    3  C       3    2.82   0.00         2    0    1   0.014   -4.844554    7.178441    5.742723
    4  C       3    2.84   0.00         2    0    1   0.068   -5.089326    8.911316    7.695390
    5  C       3    2.81   0.00         2    0    1  -0.010   -7.345966   10.234017    8.245239
    6  C       3    2.80   0.00         2    0    1   0.024   -9.602257    9.365320    7.071706
    7  C       3    2.82   0.00         2    0    1   0.003   -2.440100    6.026178    5.242598
    8  C       3    2.88   0.00         2    0    1   0.018   -0.341768    6.836374    6.435783
    9  C       3    2.85   0.00         2    0    1   0.069   -0.654792    8.566340    8.511025
   10  N       2    1.97   0.00         2    0    1  -0.182   -3.033309    9.413469    9.128066
   11  C       3    2.87   0.00         2    0    1   0.014   -1.801750    3.981743    3.614165
   12  C       3    2.85   0.00         2    0    1   0.068    0.784784    3.416073    2.910674
   13  N       2    1.94   0.00         2    0    1  -0.182    2.720632    4.451858    4.150370
   14  C       3    2.85   0.00         2    0    1   0.069    2.370537    6.050653    5.948846
   15  C       3    2.80   0.00         2    0    1  -0.009    4.207819    7.166035    7.533904
   16  C       3    2.83   0.00         2    0    1   0.024    3.659595    9.245721    9.171675
   17  C       3    2.82   0.00         2    0    1  -0.009    1.225443    9.607587   10.077750
   18  C       3    2.81   0.00         2    0    1   0.104   -3.615772    1.934614    2.972357
   19  C       3    2.83   0.00         2    0    1  -0.013   -3.000902    0.261892    1.114466
   20  C       3    2.82   0.00         2    0    1   0.024   -0.670285    0.078788   -0.192962
   21  C       3    2.84   0.00         2    0    1  -0.010    1.188580    1.488301    0.973977
   22  O       2    1.91   0.00         3    0    1  -0.326   -5.711676    1.836529    4.625302
   23  O       2    1.90   0.00         3    0    1  -0.326   -6.720317    5.738586    1.679940
   24  C       3    2.85   0.00         2    0    1   0.224  -11.950150   10.503337    8.254435
   25  C       3    2.82   0.00         2    0    1   0.224    0.010540   -2.230712   -1.589626
   26  H       1    0.98   0.00         0    0    0   0.083   -7.446667   11.559603    9.652383
   27  H       1    0.97   0.00         0    0    0   0.084  -11.340294    6.968886    4.296255
   28  H       1    0.97   0.00         0    0    0   0.084    1.130916   10.100627   12.063179
   29  H       1    0.96   0.01         0    0    0   0.084    6.271240    6.670924    7.211012
   30  H       1    0.98   0.00         0    0    0   0.083    3.100092    1.210389    0.392184
   31  H       1    0.97   0.00         0    0    0   0.084   -3.855711   -1.616480    1.036356
   32  O       1    0.98   0.00         2    0    1  -0.364  -13.736685   10.741133    6.864508
   33  O       2    1.91   0.00         3    0    1  -0.315  -11.919279   11.561078   10.571303
   34  C       4    3.50   0.00         3    0    0   0.037  -14.509002   11.977447   11.379639
   35  C       3    2.84   0.00         2    0    1   0.223    5.722496   10.768435   10.256507
   36  O       1    0.98   0.00         2    0    1  -0.365    5.534591   12.927008   11.014780
   37  O       2    1.92   0.00         3    0    1  -0.315    7.833390    9.223977   10.168360
   38  C       4    3.51   0.00         3    0    0   0.039    9.996616   10.491620   11.020943
   39  O       1    1.00   0.00         2    0    1  -0.364   -1.898443   -3.168247   -2.402463
   40  O       2    1.90   0.00         3    0    1  -0.315    2.364261   -2.927056   -1.841837
   41  C       4    3.49   0.00         3    0    0   0.037    2.661033   -5.507052   -2.941797
   42  C       4    3.47   0.00         3    0    0   0.033   -8.084316    1.254722    3.427275
   43  C       4    3.49   0.00         3    0    0   0.033   -7.170702    7.630674   -0.291080
   44  H       1    0.97   0.01         0    0    0   0.079    4.696215   -6.022341   -3.163143
   45  H       1    0.97   0.01         0    0    0   0.079    1.722097   -5.539608   -4.796277
   46  H       1    0.98   0.00         0    0    0   0.079    1.504230   -6.525630   -1.668302
   47  H       1    0.97   0.00         0    0    0   0.078   10.266790   10.269941   13.033934
   48  H       1    0.98   0.00         0    0    0   0.078    9.828089   12.454309   10.683403
   49  H       1    0.96   0.01         0    0    0   0.078   11.859583    9.711801   10.297010
   50  H       1    0.97   0.00         0    0    0   0.076   -6.799687    6.851843   -2.141090
   51  H       1    0.98   0.00         0    0    0   0.076   -5.605114    8.825829   -0.568767
   52  H       1    0.97   0.01         0    0    0   0.076   -9.044423    8.585268   -0.325329
   53  H       1    0.98   0.00         0    0    0   0.076   -8.874397   -0.146176    4.638981
   54  H       1    0.95   0.02         0    0    0   0.076   -8.067509    0.698426    1.275585
   55  H       1    0.97   0.01         0    0    0   0.076   -9.130642    3.066179    3.731833
   56  H       1    0.98   0.00         0    0    0   0.079  -14.837799   13.957557   11.113619
   57  H       1    0.96   0.01         0    0    0   0.079  -14.815409   11.691903   13.483637
   58  H       1    0.95   0.02         0    0    0   0.079  -15.552144   10.715497    9.872808
   59  C       3    2.81   0.00         2    0    1  -0.013   -6.875095   -1.162902   10.211787
   60  C       3    2.80   0.00         2    0    1   0.104   -5.806923   -2.866629    8.386093
   61  C       3    2.82   0.00         2    0    1   0.014   -3.027543   -2.757741    7.922339
   62  C       3    2.86   0.00         2    0    1   0.068   -1.689539   -0.368099    8.480724
   63  C       3    2.85   0.00         2    0    1  -0.010   -3.266002    1.447265    9.709560
   64  C       3    2.81   0.00         2    0    1   0.024   -5.518822    0.924745   10.847958
   65  C       3    2.83   0.00         2    0    1   0.003   -1.594985   -4.859630    7.163544
   66  C       3    2.87   0.00         2    0    1   0.018    0.877292   -4.372300    6.380923
   67  C       3    2.88   0.00         2    0    1   0.069    1.804863   -1.860511    6.508978
   68  N       2    1.94   0.00         2    0    1  -0.182    0.403341    0.208360    7.201222
   69  C       3    2.84   0.00         2    0    1   0.014   -2.289536   -7.405191    7.072173
   70  C       3    2.86   0.00         2    0    1   0.068   -1.097558   -9.016165    5.120874
   71  N       2    1.96   0.00         2    0    1  -0.182    1.152120   -8.421286    4.306026
   72  C       3    2.88   0.00         2    0    1   0.069    2.099405   -6.177393    4.878080
   73  C       3    2.84   0.00         2    0    1  -0.009    4.704785   -5.825875    4.329409
   74  C       3    2.81   0.00         2    0    1   0.024    5.820265   -3.467752    4.967482
   75  C       3    2.83   0.00         2    0    1  -0.009    4.255527   -1.514012    5.640336
   76  C       3    2.83   0.00         2    0    1   0.104   -4.096604   -8.367231    8.995765
   77  C       3    2.80   0.00         2    0    1  -0.013   -5.100913  -10.747879    8.460732
   78  C       3    2.79   0.00         2    0    1   0.024   -4.336215  -12.277973    6.343472
   79  C       3    2.81   0.00         2    0    1  -0.010   -2.239468  -11.486344    5.003565
   80  O       2    1.92   0.00         3    0    1  -0.326   -4.659276   -7.169697   11.238236
   81  O       2    1.90   0.00         3    0    1  -0.326   -7.522658   -4.511159    6.954375
   82  C       3    2.91   0.00         2    0    1   0.224   -6.291291    2.966165   12.547223
   83  C       3    2.78   0.00         2    0    1   0.224   -5.798547  -14.741730    5.494991
   84  H       1    0.98   0.00         0    0    0   0.083   -2.462707    3.202082   10.096072
   85  H       1    0.97   0.00         0    0    0   0.084   -8.916108   -1.100391   10.387203
   86  H       1    0.98   0.00         0    0    0   0.084    4.845983    0.371314    6.038403
   87  H       1    0.98   0.00         0    0    0   0.084    5.751175   -7.173661    3.342251
   88  H       1    0.97   0.00         0    0    0   0.083   -1.327397  -13.039501    4.010213
   89  H       1    0.97   0.01         0    0    0   0.084   -6.124564  -11.784928    9.985973
   90  O       1    0.98   0.00         2    0    1  -0.364   -4.642482    4.548431   13.253314
   91  O       2    1.91   0.00         3    0    1  -0.315   -8.888039    3.180284   13.106351
   92  C       4    3.55   0.00         3    0    0   0.037   -8.979146    5.321375   14.750712
   93  C       3    2.92   0.00         2    0    1   0.223    8.327515   -3.102806    3.738303
   94  O       1    0.98   0.00         2    0    1  -0.365    9.243859   -4.353731    2.036408
   95  O       2    1.92   0.00         3    0    1  -0.315    9.595542   -1.080769    4.631295
   96  C       4    3.56   0.00         3    0    0   0.039   11.828542   -0.916849    3.369943
   97  O       1    0.98   0.00         2    0    1  -0.364   -7.128205  -14.640919    3.706193
   98  O       2    1.90   0.00         3    0    1  -0.315   -5.835653  -16.913133    6.980966
   99  C       4    3.47   0.00         3    0    0   0.037   -7.285456  -19.160402    6.066717
  100  C       4    3.50   0.00         3    0    0   0.033   -2.784927   -7.264104   13.038033
  101  C       4    3.47   0.00         3    0    0   0.033   -6.933779   -4.769878    4.324692
  102  H       1    0.98   0.00         0    0    0   0.079   -6.069603  -20.554954    5.296346
  103  H       1    0.95   0.01         0    0    0   0.079   -8.687942  -18.159964    4.698973
  104  H       1    0.97   0.00         0    0    0   0.079   -8.419984  -20.281054    7.349355
  105  H       1    0.97   0.01         0    0    0   0.078   13.018726   -2.519566    4.070421
  106  H       1    0.95   0.01         0    0    0   0.078   12.764496    1.056342    3.624039
  107  H       1    0.97   0.01         0    0    0   0.078   11.618076   -0.893310    1.256772
  108  H       1    0.95   0.02         0    0    0   0.076   -8.622744   -4.387539    2.918509
  109  H       1    0.97   0.00         0    0    0   0.076   -6.335316   -6.714770    4.022506
  110  H       1    0.97   0.01         0    0    0   0.076   -5.402076   -3.421673    3.869744
  111  H       1    0.97   0.00         0    0    0   0.076   -2.524006   -9.189198   13.732150
  112  H       1    0.96   0.01         0    0    0   0.076   -3.160704   -5.611014   14.369648
  113  H       1    0.97   0.01         0    0    0   0.076   -1.042582   -6.505045   12.120396
  114  H       1    0.97   0.01         0    0    0   0.079  -10.528234    4.758077   16.094672
  115  H       1    0.97   0.01         0    0    0   0.079   -9.660429    7.134266   13.865959
  116  H       1    0.97   0.00         0    0    0   0.079   -7.192580    5.271021   15.745184

          #atoms :   116
          #bonds :   124
          #angl  :   206
          #tors  :   302
          #nmol  :   2
          #optfrag :   2
           ------------------------------------------------- 
          |                   G F N - F F                   |
          |          A general generic force-field          |
          |                  Version 1.0.3                  | 
           ------------------------------------------------- 
          Number of HB bonds (bound hydrogen)     17089
          Number of HB bonds (unbound hydrogen)   465
          Number of XB bonds                      0

 E+G (total)                   0 d,  0 h,  0 min,  0.003 sec
 distance/D3 list               ...        0 min,  0.000 sec (  0.880%)
 non bonded repulsion           ...        0 min,  0.000 sec (  9.694%)
 dCN                            ...        0 min,  0.000 sec (  5.018%)
 EEQ energy and q               ...        0 min,  0.000 sec ( 11.486%)
 D3                             ...        0 min,  0.000 sec ( 14.182%)
 EEQ gradient                   ...        0 min,  0.000 sec (  4.537%)
 bonds                          ...        0 min,  0.000 sec (  4.611%)
 bend and torsion               ...        0 min,  0.000 sec (  3.763%)
 bonded ATM                     ...        0 min,  0.000 sec (  1.882%)
 HB/XB (incl list setup)        ...        0 min,  0.001 sec ( 43.630%)

         :::::::::::::::::::::::::::::::::::::::::::::::::::::
         ::                     SUMMARY                     ::
         :::::::::::::::::::::::::::::::::::::::::::::::::::::
         :: total energy             -22.769939136905 Eh    ::
         :: gradient norm              0.416723391730 Eh/a0 ::
         ::.................................................::
         :: bond energy              -23.461297471381 Eh    ::
         :: angle energy               0.141621391117 Eh    ::
         :: torsion energy             0.119348950225 Eh    ::
         :: repulsion energy           1.551199826150 Eh    ::
         :: electrostat energy        -0.941662968544 Eh    ::
         :: dispersion energy         -0.145167009614 Eh    ::
         :: HB energy                 -0.005799297970 Eh    ::
         :: XB energy                  0.000000000000 Eh    ::
         :: bonded atm energy         -0.028182556889 Eh    ::
         :: external energy            0.000000000000 Eh    ::
         :: add. restraining           0.000000000000 Eh    ::
         :: total charge               0.000000000000 e     ::
         :::::::::::::::::::::::::::::::::::::::::::::::::::::

           -------------------------------------------------
          |                Property Printout                |
           -------------------------------------------------

           -------------------------------------------------
          | TOTAL ENERGY              -22.769939136905 Eh   |
          | GRADIENT NORM               0.416723391730 Eh/α |
           -------------------------------------------------
           ------------------------------------------------- 
          |               Molecular Dynamics                |
           ------------------------------------------------- 
 trajectories on xtb.trj or xtb.trj.<n>

 MD time /ps        :   20.00
 dt /fs             :    2.00
 SCC accuracy       :    2.00
 temperature /K     :  574.00
 max steps          : 10000
 block length (av.) :  2500
 dumpstep(trj) /fs  :  500.00   250
 dumpstep(coords)/fs: 1000.00   500
 H atoms mass (amu) :     4
 # deg. of freedom  :   348
 SHAKE off
 Berendsen THERMOSTAT on
         time (ps)    <Epot>      Ekin   <T>   T     Etot
      0    0.00      0.00000   0.6598    0.    0.   -22.11010
est. speed in wall clock h for 100 ps :  0.02
    200    0.40    -22.51626   0.4414  835.  801.   -22.21745
    400    0.80    -22.59440   0.3922  791.  712.   -22.31602
    600    1.20    -22.62828   0.3538  753.  642.   -22.35650
    800    1.60    -22.65300   0.2981  729.  541.   -22.38128
   1000    2.00    -22.66978   0.3354  708.  609.   -22.43148
   1200    2.40    -22.68199   0.3231  690.  586.   -22.42004
   1400    2.80    -22.69131   0.3442  676.  625.   -22.43078
   1600    3.20    -22.69837   0.3114  665.  565.   -22.43052
   1800    3.60    -22.70462   0.3067  656.  557.   -22.42413
   2000    4.00    -22.71013   0.3469  649.  630.   -22.43291
   2200    4.40    -22.71489   0.3166  643.  575.   -22.45794
   2400    4.80    -22.71968   0.3018  638.  548.   -22.44450
block <Epot> / <T> :     -22.73078  636.     drift:  0.99D+02   Tbath : 574.
   2600    5.20    -22.72336   0.3277  634.  595.   -22.42816
   2800    5.60    -22.72624   0.3371  629.  612.   -22.44822
   3000    6.00    -22.72940   0.3165  626.  574.   -22.45870
   3200    6.40    -22.73251   0.3069  623.  557.   -22.45432
   3400    6.80    -22.73458   0.3453  620.  627.   -22.45670
   3600    7.20    -22.73620   0.3150  617.  572.   -22.45756
   3800    7.60    -22.73767   0.2970  615.  539.   -22.46284
   4000    8.00    -22.73926   0.3314  613.  601.   -22.44338
   4200    8.40    -22.74055   0.3643  611.  661.   -22.44858
   4400    8.80    -22.74171   0.2860  609.  519.   -22.44364
   4600    9.20    -22.74255   0.3156  607.  573.   -22.46990
   4800    9.60    -22.74381   0.3320  606.  602.   -22.42226
   5000   10.00    -22.74490   0.2988  605.  542.   -22.46601
block <Epot> / <T> :     -22.76811  574.     drift:  0.99D+02   Tbath : 574.
   5200   10.40    -22.74575   0.3080  604.  559.   -22.44041
   5400   10.80    -22.74649   0.3319  603.  602.   -22.45037
   5600   11.20    -22.74721   0.3142  602.  570.   -22.44069
   5800   11.60    -22.74770   0.3181  600.  577.   -22.45891
   6000   12.00    -22.74825   0.3325  600.  603.   -22.45157
   6200   12.40    -22.74866   0.3214  599.  583.   -22.45695
   6400   12.80    -22.74950   0.3192  598.  579.   -22.45375
   6600   13.20    -22.75019   0.3326  598.  604.   -22.45131
   6800   13.60    -22.75072   0.3126  597.  567.   -22.45690
   7000   14.00    -22.75129   0.3276  596.  595.   -22.45085
   7200   14.40    -22.75179   0.3206  596.  582.   -22.44149
   7400   14.80    -22.75237   0.3332  595.  605.   -22.43498
block <Epot> / <T> :     -22.76798  574.     drift:  0.99D+02   Tbath : 574.
   7600   15.20    -22.75287   0.3122  595.  567.   -22.45579
   7800   15.60    -22.75342   0.3283  594.  596.   -22.44332
   8000   16.00    -22.75385   0.3052  594.  554.   -22.47354
   8200   16.40    -22.75443   0.3326  593.  604.   -22.45402
   8400   16.80    -22.75497   0.3227  593.  586.   -22.45819
   8600   17.20    -22.75540   0.3385  592.  614.   -22.47401
   8800   17.60    -22.75557   0.3023  592.  549.   -22.44691
   9000   18.00    -22.75566   0.3276  591.  595.   -22.44749
   9200   18.40    -22.75582   0.2861  591.  519.   -22.45199
   9400   18.80    -22.75582   0.3029  590.  550.   -22.44225
   9600   19.20    -22.75590   0.3261  590.  592.   -22.43058
   9800   19.60    -22.75610   0.3278  590.  595.   -22.44652
 average properties 
 Epot               :  -22.756441689038628     
 Epot (accurate SCC):  -22.759594595307725     
 Ekin               :  0.32485992161499788     
 Etot               :  -22.431581767423630     
 T                  :   589.55601434618086     
 thermostating problem
 normal exit of md()
########################################################################
[WARNING] Runtime exception occurred
-1- gfnff_setup: Could not read topology file.
########################################################################
Note: The following floating-point exceptions are signalling: IEEE_UNDERFLOW_FLAG
normal termination of xtb

------------------------------------------------------------------------
 * finished run on 2025/03/14 at 12:44:55.373     
------------------------------------------------------------------------
 total:
 * wall-time:     0 d,  0 h,  0 min, 15.650 sec
 *  cpu-time:     0 d,  0 h,  0 min, 30.528 sec
 * ratio c/w:     1.951 speedup
 SCF:
 * wall-time:     0 d,  0 h,  0 min,  0.004 sec
 *  cpu-time:     0 d,  0 h,  0 min,  0.006 sec
 * ratio c/w:     1.688 speedup
 MD:
 * wall-time:     0 d,  0 h,  0 min, 15.632 sec
 *  cpu-time:     0 d,  0 h,  0 min, 30.510 sec
 * ratio c/w:     1.952 speedup

