Optimization of monomers started
      -----------------------------------------------------------      
     |                   =====================                   |     
     |                           x T B                           |     
     |                   =====================                   |     
     |                         S. Grimme                         |     
     |          Mulliken Center for Theoretical Chemistry        |     
     |                    University of Bonn                     |     
      -----------------------------------------------------------      

   * xtb version 6.7.1 (edcfbbe) compiled by 'runner@Mac-1732539442253.local' on 2024-11-25

   xtb is free software: you can redistribute it and/or modify it under
   the terms of the GNU Lesser General Public License as published by
   the Free Software Foundation, either version 3 of the License, or
   (at your option) any later version.
   
   xtb is distributed in the hope that it will be useful,
   but WITHOUT ANY WARRANTY; without even the implied warranty of
   MERCHANTABILITY or FITNESS FOR A PARTICULAR PURPOSE.  See the
   GNU Lesser General Public License for more details.
   
   Cite this work as:
   * C. Bannwarth, E. Caldeweyher, S. Ehlert, A. Hansen, P. Pracht,
     J. Seibert, S. Spicher, S. Grimme, WIREs Comput. Mol. Sci., 2020, 11,
     e01493. DOI: 10.1002/wcms.1493
   
   for GFN2-xTB:
   * C. Bannwarth, S. Ehlert and S. Grimme., J. Chem. Theory Comput., 2019,
     15, 1652-1671. DOI: 10.1021/acs.jctc.8b01176
   for GFN1-xTB:
   * S. Grimme, C. Bannwarth, P. Shushkov, J. Chem. Theory Comput., 2017,
     13, 1989-2009. DOI: 10.1021/acs.jctc.7b00118
   for GFN0-xTB:
   * P. Pracht, E. Caldeweyher, S. Ehlert, S. Grimme, ChemRxiv, 2019, preprint.
     DOI: 10.26434/chemrxiv.8326202.v1
   for GFN-FF:
   * S. Spicher and S. Grimme, Angew. Chem. Int. Ed., 2020, 59, 15665-15673.
     DOI: 10.1002/anie.202004239
   
   for ALPB and GBSA implicit solvation:
   * S. Ehlert, M. Stahn, S. Spicher, S. Grimme, J. Chem. Theory Comput.,
     2021, 17, 4250-4261. DOI: 10.1021/acs.jctc.1c00471
   
   for ddCOSMO and CPCM-X implicit solvation:
   * M. Stahn, S. Ehlert, S. Grimme, J. Phys. Chem. A,
     2023, XX, XXXX-XXXX. DOI: 10.1021/acs.jpca.3c04382
   
   for DFT-D4:
   * E. Caldeweyher, C. Bannwarth and S. Grimme, J. Chem. Phys., 2017,
     147, 034112. DOI: 10.1063/1.4993215
   * E. Caldeweyher, S. Ehlert, A. Hansen, H. Neugebauer, S. Spicher,
     C. Bannwarth and S. Grimme, J. Chem. Phys., 2019, 150, 154122.
     DOI: 10.1063/1.5090222
   * E. Caldeweyher, J.-M. Mewes, S. Ehlert and S. Grimme, Phys. Chem. Chem. Phys.
     2020, 22, 8499-8512. DOI: 10.1039/D0CP00502A
   
   for sTDA-xTB:
   * S. Grimme and C. Bannwarth, J. Chem. Phys., 2016, 145, 054103.
     DOI: 10.1063/1.4959605
   
   in the mass-spec context:
   * V. Asgeirsson, C. Bauer and S. Grimme, Chem. Sci., 2017, 8, 4879.
     DOI: 10.1039/c7sc00601b
   * J. Koopman and S. Grimme, ACS Omega 2019, 4, 12, 15120-15133.
     DOI: 10.1021/acsomega.9b02011
   
   for metadynamics refer to:
   * S. Grimme, J. Chem. Theory Comput., 2019, 155, 2847-2862
     DOI: 10.1021/acs.jctc.9b00143
   
   for SPH calculations refer to:
   * S. Spicher and S. Grimme, J. Chem. Theory Comput., 2021, 17, 1701-1714
     DOI: 10.1021/acs.jctc.0c01306
   
   for ONIOM refer to:
   * C. Plett, A. Katbashev, S. Ehlert, S. Grimme, M. Bursch,
     Phys. Chem. Chem. Phys., 2023, 25, 17860-17868. DOI: 10.1039/D3CP02178E
   
   for DIPRO refer to:
   * J. Kohn, N. Gildemeister, S. Grimme, D. Fazzi, A. Hansen,
     J. Chem. Phys., 2023, just accepted.
   
   for PTB refer to:
   * S. Grimme, M. Mueller, A. Hansen, J. Chem. Phys., 2023, 158, 124111.
     DOI: 10.1063/5.0137838
   
   with help from (in alphabetical order)
   P. Atkinson, C. Bannwarth, F. Bohle, G. Brandenburg, E. Caldeweyher
   M. Checinski, S. Dohm, S. Ehlert, S. Ehrlich, I. Gerasimov, C. Hölzer
   A. Katbashev, J. Kohn, J. Koopman, C. Lavigne, S. Lehtola, F. März, M. Müller,
   F. Musil, H. Neugebauer, J. Pisarek, C. Plett, P. Pracht, F. Pultar,
   J. Seibert, P. Shushkov, S. Spicher, M. Stahn, M. Steiner, T. Strunk,
   J. Stückrath, T. Rose, and J. Unsleber
   
 * started run on 2025/03/17 at 17:45:44.390     
   ID    Z sym.   atoms
    1    6 C      1-9, 11, 12, 14-21, 24-35, 37, 38, 40-47, 50-52, 56, 58,
                  62, 65, 68, 71
    2    7 N      10, 13, 36, 39
    3    8 O      22, 23, 48, 49, 54, 55, 57, 59-61, 63, 64, 66, 67, 69, 70
    4    5 B      53
    5    1 H      72-101

           -------------------------------------------------
          |                Calculation Setup                |
           -------------------------------------------------

          program call               : xtb Base1CO2Me.mol --opt --chrg 0 --uhf 1 --tight --spinpol --tblite
          coordinate file            : Base1CO2Me.mol
          omp threads                :                     8


molecular fragmentation (1/2 indicates fragments):
111111111111111111111111112222222222222222222222222211111112222222221112
22222111222111111222222112211
# atoms in fragment 1/2:    49    52
 fragment masses (1/2) :      480.19      473.41
CMA distance (Bohr)    :  14.961
constraining FC (au)   :  0.0500
########################################################################
[WARNING] Please study the warnings concerning your input carefully
-1- prog_main_parseArguments: Unknown option '--tight' provided
########################################################################
repulsion energy          1.2846587426175E+00 Eh
dispersion energy         1.0937607898115E-03 Eh
interaction energy        0.0000000000000E+00 Eh
number of electrons       3.4900000000000E+02 e
integral cutoff           1.9311100799991E+01 bohr

------------------------------------------------------------
  cycle        total energy    energy error   density error
------------------------------------------------------------
      1     -195.3412273239  -1.9662698E+02   1.8101000E-01
      2     -196.2557251047  -9.1449778E-01   1.0702279E-01
      3     -194.6038409086   1.6518842E+00   8.6330469E-02
      4     -162.2029155467   3.2400925E+01   1.5035789E-01
      5     -194.0635728651  -3.1860657E+01   7.4560442E-02
      6     -196.7207502001  -2.6571773E+00   4.5925489E-02
      7     -198.0737979908  -1.3530478E+00   3.3742520E-02
      8     -198.4841556126  -4.1035762E-01   2.1387562E-02
      9     -198.4485303100   3.5625303E-02   1.8922364E-02
     10     -198.5395918630  -9.1061553E-02   1.6857649E-02
     11     -198.5686230303  -2.9031167E-02   1.2144750E-02
     12     -198.6112749249  -4.2651895E-02   6.7905966E-03
     13     -198.6182945581  -7.0196332E-03   1.1256689E-02
     14     -198.6142473544   4.0472037E-03   1.2163097E-02
     15     -198.6105016919   3.7456626E-03   1.2252889E-02
     16     -198.6302116858  -1.9709994E-02   3.7596567E-03
     17     -198.6305558030  -3.4411716E-04   1.4184200E-03
     18     -198.6305891168  -3.3313822E-05   2.2451989E-03
     19     -198.6312243506  -6.3523377E-04   9.5719335E-04
     20     -198.6307299439   4.9440673E-04   1.6304430E-03
     21     -198.6313267398  -5.9679590E-04   3.6736949E-04
     22     -198.6312642676   6.2472178E-05   6.4368530E-04
     23     -198.6312531960   1.1071534E-05   6.0891573E-04
     24     -198.6313159545  -6.2758478E-05   3.1673002E-04
     25     -198.6313445711  -2.8616548E-05   5.7558031E-05
     26     -198.6313448011  -2.2998390E-07   5.1553292E-05
     27     -198.6313446540   1.4708144E-07   5.6383773E-05
     28     -198.6313439763   6.7765671E-07   7.1141945E-05
     29     -198.6313450815  -1.1052298E-06   3.3011601E-05
     30     -198.6313452884  -2.0687227E-07   1.6755959E-05
------------------------------------------------------------

electronic energy        -1.9991709779182E+02 Eh
total energy             -1.9863134528842E+02 Eh

 total:                                  29.628 sec
 - repulsion                              0.000 sec (  0%)
 - dispersion                             0.015 sec (  0%)
 - coulomb                                0.017 sec (  0%)
 - hamiltonian                            0.090 sec (  0%)
 - scc                                   29.506 sec ( 99%)

      ----------------------------------------------------------- 
     |                   =====================                   |
     |                        A N C O P T                        |
     |                   =====================                   |
     |               Approximate Normal Coordinate               |
     |                Rational Function Optimizer                |
      ----------------------------------------------------------- 
      ----------------------------------------------------------- 
     |                   =====================                   |
     |                        A N C O P T                        |
     |                   =====================                   |
     |               Approximate Normal Coordinate               |
     |                Rational Function Optimizer                |
      ----------------------------------------------------------- 

          ...................................................
          :                      SETUP                      :
          :.................................................:
          :   optimization level            normal          :
          :   max. optcycles                   303          :
          :   ANC micro-cycles                  20          :
          :   degrees of freedom               297          :
          :.................................................:
          :   RF solver                   davidson          :
          :   write xtbopt.log                true          :
          :   linear?                        false          :
          :   energy convergence         0.5000000E-05 Eh   :
          :   grad. convergence          0.1000000E-02 Eh/α :
          :   maxmium RF displ.          1.0000000          :
          :   Hlow (freq-cutoff)         0.1000000E-01      :
          :   Hmax (freq-cutoff)         5.0000000          :
          :   S6 in model hess.         20.0000000          :
          ...................................................

generating ANC from exact Hessian ...
Using Lindh-Hessian (1995)
 Shifting diagonal of input Hessian by    1.1480404221780132E-002
 Lowest  eigenvalues of input Hessian
    0.010000    0.011419    0.000000    0.000000    0.011466    0.000000
    0.000000    0.000000    0.000000    0.011496    0.011512    0.011540
    0.011567    0.011626    0.011646    0.011700    0.011735    0.011787
 Highest eigenvalues
    1.425202    1.457812    1.467823    1.468141    1.473108    1.474134


........................................................................
.............................. CYCLE    1 ..............................
........................................................................
------------------------------------------------------------
  cycle        total energy    energy error   density error
------------------------------------------------------------
      1     -198.6312494252  -1.9991700E+02   5.1096441E-04
      2     -198.6168807230   1.4368702E-02   6.2535480E-03
      3     -198.6313450656  -1.4464343E-02   2.7082548E-05
      4     -198.6313446918   3.7382779E-07   4.0902982E-05
      5     -198.6313453347  -6.4298149E-07   1.0395990E-05
------------------------------------------------------------

 total:                                   4.695 sec
 * total energy  :  -198.6313453 Eh     change       -0.4632039E-07 Eh
   gradient norm :     0.7365772 Eh/α   predicted     0.0000000E+00 (-100.00%)
   displ. norm   :     0.7880175 α      lambda       -0.5243785E+00
   maximum displ.:     0.1904743 α      in ANC's #143, #158, #126, ...

........................................................................
.............................. CYCLE    2 ..............................
........................................................................
------------------------------------------------------------
  cycle        total energy    energy error   density error
------------------------------------------------------------
      1     -199.0960907298  -2.0048660E+02   9.8176786E-03
      2     -199.0900668731   6.0238566E-03   8.7132209E-03
      3     -199.0253896684   6.4677205E-02   1.3837349E-02
      4     -199.0689222565  -4.3532588E-02   1.0267557E-02
      5     -199.0982305775  -2.9308321E-02   4.6354430E-03
      6     -199.1041948986  -5.9643211E-03   2.3676295E-03
      7     -199.1018249253   2.3699733E-03   4.0267745E-03
      8     -199.1018985124  -7.3587055E-05   3.9095679E-03
      9     -199.1029234970  -1.0249846E-03   3.4085177E-03
     10     -199.1062473313  -3.3238343E-03   6.9801182E-04
     11     -199.1062136976   3.3633697E-05   7.2951086E-04
     12     -199.1063557492  -1.4205157E-04   2.0026486E-04
     13     -199.1063541764   1.5727296E-06   2.2782219E-04
     14     -199.1063679656  -1.3789201E-05   5.4024603E-05
     15     -199.1063663918   1.5738379E-06   9.1286223E-05
     16     -199.1063664958  -1.0397085E-07   8.2055506E-05
     17     -199.1063677443  -1.2485576E-06   4.8200988E-05
     18     -199.1063684381  -6.9372243E-07   8.0820075E-06
------------------------------------------------------------

 total:                                  15.159 sec
 * total energy  :  -199.1063684 Eh     change       -0.4750231E+00 Eh
   gradient norm :     0.5689415 Eh/α   predicted    -0.4250095E+00 ( -10.53%)
   displ. norm   :     0.8582667 α      lambda       -0.4656156E+00
   maximum displ.:     0.1882154 α      in ANC's #143, #126, #289, ...

........................................................................
.............................. CYCLE    3 ..............................
........................................................................
------------------------------------------------------------
  cycle        total energy    energy error   density error
------------------------------------------------------------
      1     -199.4562869589  -2.0105896E+02   1.0961023E-02
      2     -199.4582134194  -1.9264605E-03   9.0531309E-03
      3     -199.3326700310   1.2554339E-01   1.6477107E-02
      4     -199.4295118426  -9.6841812E-02   1.0499254E-02
      5     -199.4657021319  -3.6190289E-02   5.0502663E-03
      6     -199.4630802074   2.6219245E-03   4.9536750E-03
      7     -199.4728692580  -9.7890506E-03   2.1723665E-03
      8     -199.4734849086  -6.1565060E-04   2.6513569E-03
      9     -199.4735999938  -1.1508520E-04   2.5705780E-03
     10     -199.4735536186   4.6375199E-05   2.9442420E-03
     11     -199.4736834222  -1.2980359E-04   1.0960426E-03
     12     -199.4738914993  -2.0807705E-04   8.8837138E-04
     13     -199.4741021146  -2.1061535E-04   3.5832970E-04
     14     -199.4741404320  -3.8317386E-05   2.3240639E-04
     15     -199.4741242892   1.6142782E-05   4.0402082E-04
     16     -199.4741303580  -6.0687633E-06   3.0256553E-04
     17     -199.4741433813  -1.3023288E-05   1.4471289E-04
     18     -199.4741420126   1.3687024E-06   1.5121025E-04
     19     -199.4741447428  -2.7302673E-06   8.5148281E-05
     20     -199.4741465361  -1.7932806E-06   1.0787772E-05
     21     -199.4741465583  -2.2216483E-08   4.8232263E-06
------------------------------------------------------------

 total:                                   8.543 sec
 * total energy  :  -199.4741466 Eh     change       -0.3677781E+00 Eh
   gradient norm :     0.3511514 Eh/α   predicted    -0.4043522E+00 (   9.94%)
   displ. norm   :     0.8739620 α      lambda       -0.2936446E+00
   maximum displ.:     0.2272208 α      in ANC's #143, #126, #122, ...

........................................................................
.............................. CYCLE    4 ..............................
........................................................................
------------------------------------------------------------
  cycle        total energy    energy error   density error
------------------------------------------------------------
      1     -199.7350797550  -2.0145579E+02   8.7281672E-03
      2     -199.7297056463   5.3741087E-03   6.8391923E-03
      3     -199.5065972729   2.2310837E-01   2.0705782E-02
      4     -199.7161067440  -2.0950947E-01   7.8289218E-03
      5     -199.7288609337  -1.2754190E-02   6.4044610E-03
      6     -199.7356509024  -6.7899686E-03   2.7218427E-03
      7     -199.7379523418  -2.3014394E-03   1.4701493E-03
      8     -199.7385488464  -5.9650459E-04   1.2239036E-03
      9     -199.7387391300  -1.9028365E-04   1.1897154E-03
     10     -199.7387772614  -3.8131416E-05   1.2977983E-03
     11     -199.7387689579   8.3035669E-06   1.2662828E-03
     12     -199.7387501417   1.8816146E-05   1.2455889E-03
     13     -199.7387546249  -4.4831989E-06   1.1997126E-03
     14     -199.7388749604  -1.2033549E-04   4.9329286E-04
     15     -199.7388797595  -4.7990563E-06   3.7984156E-04
     16     -199.7388842943  -4.5347799E-06   3.1796355E-04
     17     -199.7388879226  -3.6283741E-06   1.5981106E-04
     18     -199.7388890721  -1.1494976E-06   7.6879360E-05
     19     -199.7388885952   4.7693410E-07   6.2861219E-05
     20     -199.7388896362  -1.0409927E-06   1.4413497E-05
     21     -199.7388896285   7.7199047E-09   8.4586586E-06
------------------------------------------------------------

 total:                                   5.610 sec
 * total energy  :  -199.7388896 Eh     change       -0.2647431E+00 Eh
   gradient norm :     0.2817320 Eh/α   predicted    -0.2589669E+00 (  -2.18%)
   displ. norm   :     0.8928495 α      lambda       -0.2410961E+00
   maximum displ.:     0.2152789 α      in ANC's #126, #122, #143, ...

........................................................................
.............................. CYCLE    5 ..............................
........................................................................
------------------------------------------------------------
  cycle        total energy    energy error   density error
------------------------------------------------------------
      1     -199.9414479998  -2.0177082E+02   8.6976954E-03
      2     -199.9399076504   1.5403495E-03   5.9505541E-03
      3     -199.9282892227   1.1618428E-02   7.3663366E-03
      4     -199.6253680572   3.0292117E-01   2.4028014E-02
      5     -199.9326515946  -3.0728354E-01   6.5903080E-03
      6     -199.9448652701  -1.2213675E-02   2.0763116E-03
      7     -199.9458216073  -9.5633724E-04   1.1281598E-03
      8     -199.9455606214   2.6098593E-04   1.1994601E-03
      9     -199.9458180013  -2.5737990E-04   9.0783888E-04
     10     -199.9458801293  -6.2128008E-05   7.5784511E-04
     11     -199.9460778697  -1.9774040E-04   4.0278626E-04
     12     -199.9461619686  -8.4098941E-05   2.9725541E-04
     13     -199.9461619438   2.4838528E-08   2.8809037E-04
     14     -199.9461635835  -1.6396899E-06   2.9793883E-04
     15     -199.9461650439  -1.4604051E-06   2.3753929E-04
     16     -199.9461656560  -6.1208672E-07   2.2067005E-04
     17     -199.9461656636  -7.6471167E-09   2.2006472E-04
     18     -199.9461667587  -1.0951420E-06   1.5786477E-04
     19     -199.9461672275  -4.6873973E-07   1.2691733E-04
     20     -199.9461679023  -6.7486758E-07   5.3215802E-05
     21     -199.9461679362  -3.3806202E-08   3.1944577E-05
     22     -199.9461680428  -1.0663251E-07   5.5440470E-06
------------------------------------------------------------

 total:                                   6.943 sec
 * total energy  :  -199.9461680 Eh     change       -0.2072784E+00 Eh
   gradient norm :     0.1971070 Eh/α   predicted    -0.2166470E+00 (   4.52%)
   displ. norm   :     0.8640801 α      lambda       -0.1651241E+00
   maximum displ.:     0.2480526 α      in ANC's #74, #78, #77, ...

........................................................................
.............................. CYCLE    6 ..............................
........................................................................
------------------------------------------------------------
  cycle        total energy    energy error   density error
------------------------------------------------------------
      1     -200.0825074061  -2.0205262E+02   7.9074965E-03
      2     -200.0780235805   4.4838256E-03   6.0356008E-03
      3     -200.0457976807   3.2225900E-02   9.7132780E-03
      4     -199.7442544462   3.0154323E-01   2.4937513E-02
      5     -200.0613644113  -3.1710997E-01   8.5465808E-03
      6     -200.0839311528  -2.2566742E-02   2.5485509E-03
      7     -200.0855372056  -1.6060528E-03   1.5466337E-03
      8     -200.0859716005  -4.3439483E-04   1.1343976E-03
      9     -200.0860454754  -7.3874889E-05   1.0230546E-03
     10     -200.0861412329  -9.5757495E-05   7.9296154E-04
     11     -200.0860944238   4.6809043E-05   7.4811939E-04
     12     -200.0863375395  -2.4311563E-04   3.4953688E-04
     13     -200.0863380313  -4.9181261E-07   2.8328802E-04
     14     -200.0863315554   6.4758300E-06   2.3958670E-04
     15     -200.0863432020  -1.1646539E-05   2.3796147E-04
     16     -200.0863432343  -3.2299084E-08   2.3773338E-04
     17     -200.0863427924   4.4189900E-07   2.3703634E-04
     18     -200.0863440705  -1.2781675E-06   1.9567264E-04
     19     -200.0863447253  -6.5472454E-07   1.6841241E-04
     20     -200.0863449510  -2.2568850E-07   1.5359367E-04
     21     -200.0863458116  -8.6064395E-07   9.6474776E-05
     22     -200.0863460958  -2.8422761E-07   5.8986442E-05
     23     -200.0863462966  -2.0075029E-07   2.2368433E-05
     24     -200.0863463232  -2.6664509E-08   1.0498056E-05
------------------------------------------------------------

 total:                                   7.704 sec
 * total energy  :  -200.0863463 Eh     change       -0.1401783E+00 Eh
   gradient norm :     0.1430801 Eh/α   predicted    -0.1442058E+00 (   2.87%)
   displ. norm   :     0.8680985 α      lambda       -0.1177415E+00
   maximum displ.:     0.3068586 α      in ANC's #74, #78, #77, ...

........................................................................
.............................. CYCLE    7 ..............................
........................................................................
------------------------------------------------------------
  cycle        total energy    energy error   density error
------------------------------------------------------------
      1     -200.1794501642  -2.0227392E+02   7.0545696E-03
      2     -200.1458969909   3.3553173E-02   9.6238131E-03
      3     -199.9022970659   2.4359993E-01   2.2604126E-02
      4     -200.1685413775  -2.6624431E-01   6.9010979E-03
      5     -200.1554976173   1.3043760E-02   8.0897922E-03
      6     -200.1774212126  -2.1923595E-02   4.2709170E-03
      7     -200.1825025017  -5.0812891E-03   1.6862914E-03
      8     -200.1830008423  -4.9834063E-04   1.4245836E-03
      9     -200.1832309398  -2.3009748E-04   8.6370843E-04
     10     -200.1833336453  -1.0270553E-04   6.1698905E-04
     11     -200.1833717295  -3.8084180E-05   4.8744052E-04
     12     -200.1834754501  -1.0372061E-04   4.7268410E-04
     13     -200.1834784619  -3.0117551E-06   4.2255633E-04
     14     -200.1834674534   1.1008414E-05   5.0417511E-04
     15     -200.1834725036  -5.0501579E-06   4.5982747E-04
     16     -200.1834645056   7.9980146E-06   4.6823635E-04
     17     -200.1834636191   8.8648204E-07   4.5749699E-04
     18     -200.1834683172  -4.6980557E-06   4.1472330E-04
     19     -200.1834815765  -1.3259357E-05   2.5302646E-04
     20     -200.1834854837  -3.9071450E-06   1.4926052E-04
     21     -200.1834883117  -2.8279999E-06   4.7626300E-05
     22     -200.1834888180  -5.0631036E-07   1.1546891E-05
------------------------------------------------------------

 total:                                   4.729 sec
 * total energy  :  -200.1834888 Eh     change       -0.9714249E-01 Eh
   gradient norm :     0.1164967 Eh/α   predicted    -0.1032354E+00 (   6.27%)
   displ. norm   :     0.8907837 α      lambda       -0.9479610E-01
   maximum displ.:     0.3253993 α      in ANC's #74, #78, #77, ...

........................................................................
.............................. CYCLE    8 ..............................
........................................................................
------------------------------------------------------------
  cycle        total energy    energy error   density error
------------------------------------------------------------
      1     -200.2495737221  -2.0245962E+02   6.6128527E-03
      2     -200.2370212008   1.2552521E-02   6.9467751E-03
      3     -200.1351177638   1.0190344E-01   1.4732169E-02
      4     -200.1130952098   2.2022554E-02   1.5579584E-02
      5     -200.2443857772  -1.3129057E-01   4.9746319E-03
      6     -200.2403758771   4.0099002E-03   5.1364453E-03
      7     -200.2492066332  -8.8307561E-03   2.4152349E-03
      8     -200.2493246353  -1.1800214E-04   2.2752290E-03
      9     -200.2503886791  -1.0640438E-03   1.4487937E-03
     10     -200.2513909509  -1.0022718E-03   7.4940800E-04
     11     -200.2514548220  -6.3871180E-05   7.5965193E-04
     12     -200.2514585118  -3.6897615E-06   7.3537637E-04
     13     -200.2514435989   1.4912932E-05   7.3800309E-04
     14     -200.2514776086  -3.4009776E-05   4.8981769E-04
     15     -200.2515006671  -2.3058498E-05   2.9945648E-04
     16     -200.2514974483   3.2188163E-06   2.4523160E-04
     17     -200.2515082475  -1.0799211E-05   1.3503898E-04
     18     -200.2515097125  -1.4649921E-06   7.9991623E-05
     19     -200.2515083446   1.3678903E-06   6.7085564E-05
     20     -200.2515100799  -1.7352244E-06   2.9153723E-05
     21     -200.2515102694  -1.8956715E-07   2.1462422E-05
     22     -200.2515102729  -3.5114738E-09   1.3593420E-05
------------------------------------------------------------

 total:                                   5.328 sec
 * total energy  :  -200.2515103 Eh     change       -0.6802145E-01 Eh
   gradient norm :     0.1330462 Eh/α   predicted    -0.8500831E-01 (  24.97%)
   displ. norm   :     0.8117632 α      lambda       -0.7470352E-01
   maximum displ.:     0.3184214 α      in ANC's #74, #77, #78, ...

........................................................................
.............................. CYCLE    9 ..............................
........................................................................
------------------------------------------------------------
  cycle        total energy    energy error   density error
------------------------------------------------------------
      1     -200.3061870486  -2.0258210E+02   6.0601333E-03
      2     -200.2860754122   2.0111636E-02   7.5336779E-03
      3     -200.1920495022   9.4025910E-02   1.3805041E-02
      4     -200.2373528310  -4.5303329E-02   1.2233862E-02
      5     -200.3009153094  -6.3562478E-02   4.2922324E-03
      6     -200.2862924824   1.4622827E-02   6.3942679E-03
      7     -200.2973146531  -1.1022171E-02   4.1383269E-03
      8     -200.3067345177  -9.4198646E-03   1.6304322E-03
      9     -200.3070360284  -3.0151068E-04   1.8304276E-03
     10     -200.3069322083   1.0382006E-04   1.8639169E-03
     11     -200.3068858388   4.6369562E-05   1.8549549E-03
     12     -200.3070161403  -1.3030157E-04   1.5340176E-03
     13     -200.3070915318  -7.5391422E-05   6.5668772E-04
     14     -200.3072045177  -1.1298598E-04   5.2129648E-04
     15     -200.3072043175   2.0022156E-07   4.5523611E-04
     16     -200.3072208284  -1.6510871E-05   3.0841719E-04
     17     -200.3072236210  -2.7926282E-06   2.2397597E-04
     18     -200.3072225303   1.0906735E-06   1.6446335E-04
     19     -200.3072265530  -4.0226444E-06   4.5707065E-05
     20     -200.3072266425  -8.9557716E-08   3.0911011E-05
     21     -200.3072265800   6.2539868E-08   2.3840701E-05
     22     -200.3072266909  -1.1093891E-07   7.0315816E-06
------------------------------------------------------------

 total:                                   6.087 sec
 * total energy  :  -200.3072267 Eh     change       -0.5571642E-01 Eh
   gradient norm :     0.0734702 Eh/α   predicted    -0.6196509E-01 (  11.22%)
   displ. norm   :     0.8252639 α      lambda       -0.4758989E-01
   maximum displ.:     0.3198837 α      in ANC's #74, #77, #73, ...

........................................................................
.............................. CYCLE   10 ..............................
........................................................................
------------------------------------------------------------
  cycle        total energy    energy error   density error
------------------------------------------------------------
      1     -200.3466452657  -2.0269222E+02   6.0107650E-03
      2     -200.3411982175   5.4470482E-03   5.1316698E-03
      3     -200.0989695028   2.4222871E-01   2.0530373E-02
      4     -200.3248186817  -2.2584918E-01   7.6895493E-03
      5     -200.3359508445  -1.1132163E-02   6.4137367E-03
      6     -200.3467468498  -1.0796005E-02   1.3464564E-03
      7     -200.3462861699   4.6067985E-04   1.3675921E-03
      8     -200.3469309465  -6.4477662E-04   7.8521847E-04
      9     -200.3470348894  -1.0394280E-04   5.7499490E-04
     10     -200.3470963467  -6.1457328E-05   5.0525664E-04
     11     -200.3471089152  -1.2568558E-05   5.3904678E-04
     12     -200.3470998803   9.0349645E-06   5.7892319E-04
     13     -200.3470893354   1.0544922E-05   5.7497334E-04
     14     -200.3471043722  -1.5036892E-05   4.0364806E-04
     15     -200.3471104981  -6.1259018E-06   3.0784061E-04
     16     -200.3471202634  -9.7652582E-06   1.6403710E-04
     17     -200.3471226356  -2.3722109E-06   4.7772235E-05
     18     -200.3471226878  -5.2167991E-08   2.3356817E-05
     19     -200.3471227003  -1.2499015E-08   1.3789774E-05
------------------------------------------------------------

 total:                                   5.659 sec
 * total energy  :  -200.3471227 Eh     change       -0.3989601E-01 Eh
   gradient norm :     0.0546311 Eh/α   predicted    -0.4000074E-01 (   0.26%)
   displ. norm   :     0.8370192 α      lambda       -0.3680600E-01
   maximum displ.:     0.2908705 α      in ANC's #74, #77, #52, ...

........................................................................
.............................. CYCLE   11 ..............................
........................................................................
------------------------------------------------------------
  cycle        total energy    energy error   density error
------------------------------------------------------------
      1     -200.3734697052  -2.0277676E+02   6.4826118E-03
      2     -200.3336355088   3.9834196E-02   1.0643906E-02
      3     -200.3105921992   2.3043310E-02   1.0923653E-02
      4     -200.3205375564  -9.9453572E-03   1.0912938E-02
      5     -200.3407381330  -2.0200577E-02   8.7695022E-03
      6     -200.3547621529  -1.4024020E-02   6.4082442E-03
      7     -200.3674062339  -1.2644081E-02   3.5294655E-03
      8     -200.3734369119  -6.0306780E-03   1.5244656E-03
      9     -200.3737592266  -3.2231479E-04   2.2414020E-03
     10     -200.3737169032   4.2323478E-05   2.2230040E-03
     11     -200.3739716511  -2.5474793E-04   1.7200154E-03
     12     -200.3741571651  -1.8551398E-04   4.9843166E-04
     13     -200.3741287390   2.8426119E-05   4.9916652E-04
     14     -200.3741766658  -4.7926827E-05   3.9939402E-04
     15     -200.3741783843  -1.7185480E-06   3.4402436E-04
     16     -200.3741882763  -9.8919677E-06   2.2697852E-04
     17     -200.3741940831  -5.8068333E-06   9.7938804E-05
     18     -200.3741948791  -7.9593553E-07   4.6183530E-05
     19     -200.3741951313  -2.5227928E-07   2.5924381E-05
     20     -200.3741952346  -1.0330055E-07   6.5568148E-06
------------------------------------------------------------

 total:                                   6.417 sec
 * total energy  :  -200.3741952 Eh     change       -0.2707253E-01 Eh
   gradient norm :     0.0522762 Eh/α   predicted    -0.3129617E-01 (  15.60%)
   displ. norm   :     0.8016568 α      lambda       -0.2873683E-01
   maximum displ.:     0.2618499 α      in ANC's #74, #52, #55, ...

........................................................................
.............................. CYCLE   12 ..............................
........................................................................
------------------------------------------------------------
  cycle        total energy    energy error   density error
------------------------------------------------------------
      1     -200.3919769863  -2.0285324E+02   6.8273749E-03
      2     -200.3394885142   5.2488472E-02   1.0773704E-02
      3     -200.2444816833   9.5006831E-02   1.6023013E-02
      4     -200.3829402064  -1.3845852E-01   5.7927643E-03
      5     -200.3752141820   7.7260244E-03   6.7155207E-03
      6     -200.3722826449   2.9315371E-03   6.7167535E-03
      7     -200.3756745720  -3.3919272E-03   5.8301226E-03
      8     -200.3856932451  -1.0018673E-02   3.5278629E-03
      9     -200.3931922003  -7.4989552E-03   2.6302619E-03
     10     -200.3932601283  -6.7927998E-05   2.3755736E-03
     11     -200.3932765370  -1.6408646E-05   2.1889991E-03
     12     -200.3932986296  -2.2092620E-05   1.6469649E-03
     13     -200.3933533566  -5.4727047E-05   1.0977307E-03
     14     -200.3933590509  -5.6942742E-06   6.7915854E-04
     15     -200.3933879199  -2.8869032E-05   6.7784010E-04
     16     -200.3933832768   4.6431678E-06   5.9308070E-04
     17     -200.3934020355  -1.8758740E-05   1.4604995E-04
     18     -200.3934034456  -1.4101036E-06   1.3205190E-04
     19     -200.3934040915  -6.4588997E-07   6.3801742E-05
     20     -200.3934045818  -4.9028498E-07   1.1445700E-05
------------------------------------------------------------

 total:                                   5.571 sec
 * total energy  :  -200.3934046 Eh     change       -0.1920935E-01 Eh
   gradient norm :     0.0515498 Eh/α   predicted    -0.2360234E-01 (  22.87%)
   displ. norm   :     0.7682066 α      lambda       -0.2179388E-01
   maximum displ.:     0.2168662 α      in ANC's #52, #55, #73, ...

........................................................................
.............................. CYCLE   13 ..............................
........................................................................
------------------------------------------------------------
  cycle        total energy    energy error   density error
------------------------------------------------------------
      1     -200.4017883355  -2.0289933E+02   6.4928699E-03
      2     -200.3766360747   2.5152261E-02   8.8655074E-03
      3     -200.2990341356   7.7601939E-02   1.4027823E-02
      4     -200.3731051395  -7.4071004E-02   8.2878189E-03
      5     -200.3802992175  -7.1940780E-03   7.1399589E-03
      6     -200.3930339736  -1.2734756E-02   4.3874908E-03
      7     -200.4005681665  -7.5341929E-03   1.9841524E-03
      8     -200.4023723532  -1.8041867E-03   1.6094814E-03
      9     -200.4024279568  -5.5603567E-05   1.6885760E-03
     10     -200.4024329261  -4.9693129E-06   1.3861968E-03
     11     -200.4022781385   1.5478760E-04   6.8052919E-04
     12     -200.4024407325  -1.6259401E-04   3.5140432E-04
     13     -200.4024841626  -4.3430144E-05   2.3127281E-04
     14     -200.4024853381  -1.1754422E-06   2.2349688E-04
     15     -200.4024878803  -2.5422261E-06   1.2459126E-04
     16     -200.4024884169  -5.3662592E-07   6.3777824E-05
     17     -200.4024887327  -3.1580217E-07   2.2822415E-05
     18     -200.4024887442  -1.1443177E-08   1.2812897E-05
------------------------------------------------------------

 total:                                   4.889 sec
 * total energy  :  -200.4024887 Eh     change       -0.9084162E-02 Eh
   gradient norm :     0.0865229 Eh/α   predicted    -0.1732768E-01 (  90.75%)
   displ. norm   :     0.6258741 α      lambda       -0.2283857E-01
   maximum displ.:     0.1461588 α      in ANC's #27, #52, #74, ...

........................................................................
.............................. CYCLE   14 ..............................
........................................................................
------------------------------------------------------------
  cycle        total energy    energy error   density error
------------------------------------------------------------
      1     -200.4137611097  -2.0291022E+02   5.5392404E-03
      2     -200.3476505134   6.6110596E-02   1.2261939E-02
      3     -200.3844899358  -3.6839422E-02   9.1505519E-03
      4     -200.3975612649  -1.3071329E-02   6.5975321E-03
      5     -200.4029338489  -5.3725840E-03   5.3765463E-03
      6     -200.4121929818  -9.2591329E-03   2.3917830E-03
      7     -200.4149024839  -2.7095020E-03   9.7312987E-04
      8     -200.4146834559   2.1902796E-04   1.5160650E-03
      9     -200.4146962346  -1.2778653E-05   1.5149267E-03
     10     -200.4149516210  -2.5538646E-04   5.4397119E-04
     11     -200.4145339174   4.1770362E-04   1.2434525E-03
     12     -200.4148740855  -3.4016815E-04   5.6079354E-04
     13     -200.4149612681  -8.7182524E-05   1.2166938E-04
     14     -200.4149626883  -1.4202958E-06   8.6934486E-05
     15     -200.4149627610  -7.2672321E-08   7.8106502E-05
     16     -200.4149628092  -4.8169824E-08   6.2843644E-05
     17     -200.4149635213  -7.1215581E-07   3.0223992E-05
     18     -200.4149637359  -2.1456017E-07   4.9751477E-06
------------------------------------------------------------

 total:                                   5.170 sec
 * total energy  :  -200.4149637 Eh     change       -0.1247499E-01 Eh
   gradient norm :     0.0545301 Eh/α   predicted    -0.1589243E-01 (  27.39%)
   displ. norm   :     0.6450979 α      lambda       -0.1870261E-01
   maximum displ.:     0.1831062 α      in ANC's #27, #49, #35, ...

........................................................................
.............................. CYCLE   15 ..............................
........................................................................
------------------------------------------------------------
  cycle        total energy    energy error   density error
------------------------------------------------------------
      1     -200.4206867266  -2.0293926E+02   6.2720235E-03
      2     -200.3766344499   4.4052277E-02   1.0422165E-02
      3     -200.3569590793   1.9675371E-02   1.2183818E-02
      4     -200.4173877129  -6.0428634E-02   3.7765939E-03
      5     -200.4152470034   2.1407095E-03   4.2368347E-03
      6     -200.4155706441  -3.2364070E-04   4.0156051E-03
      7     -200.4178990962  -2.3284521E-03   3.0788857E-03
      8     -200.4216965705  -3.7974743E-03   1.0369247E-03
      9     -200.4210494648   6.4710575E-04   1.8314256E-03
     10     -200.4209199404   1.2952434E-04   2.0064421E-03
     11     -200.4204283572   4.9158327E-04   2.5067520E-03
     12     -200.4216793559  -1.2509987E-03   7.2605384E-04
     13     -200.4217994055  -1.2004962E-04   1.7272332E-04
     14     -200.4218056109  -6.2054675E-06   7.8518939E-05
     15     -200.4218062448  -6.3388629E-07   2.7881302E-05
     16     -200.4218063160  -7.1169467E-08   1.4819876E-05
------------------------------------------------------------

 total:                                   3.524 sec
 * total energy  :  -200.4218063 Eh     change       -0.6842580E-02 Eh
   gradient norm :     0.0673870 Eh/α   predicted    -0.1324285E-01 (  93.54%)
   displ. norm   :     0.6139516 α      lambda       -0.1754939E-01
   maximum displ.:     0.1560021 α      in ANC's #32, #24, #9, ...

........................................................................
.............................. CYCLE   16 ..............................
........................................................................
------------------------------------------------------------
  cycle        total energy    energy error   density error
------------------------------------------------------------
      1     -200.4318617756  -2.0295449E+02   4.8731056E-03
      2     -200.4315495443   3.1223131E-04   3.0613998E-03
      3     -200.3809250577   5.0624487E-02   1.0578044E-02
      4     -200.4120006060  -3.1075548E-02   7.4425108E-03
      5     -200.4275444487  -1.5543843E-02   3.4271227E-03
      6     -200.4309141204  -3.3696717E-03   1.6387593E-03
      7     -200.4319637130  -1.0495926E-03   1.1124116E-03
      8     -200.4316692369   2.9447611E-04   1.4982379E-03
      9     -200.4316707327  -1.4958088E-06   1.4936507E-03
     10     -200.4320944384  -4.2370575E-04   5.9222608E-04
     11     -200.4321811489  -8.6710487E-05   1.1664983E-04
     12     -200.4321824080  -1.2590961E-06   5.7538764E-05
     13     -200.4321826528  -2.4481483E-07   3.8736867E-05
     14     -200.4321828653  -2.1252015E-07   2.1036878E-05
     15     -200.4321828987  -3.3325904E-08   1.8881457E-05
------------------------------------------------------------

 total:                                   3.923 sec
 * total energy  :  -200.4321829 Eh     change       -0.1037658E-01 Eh
   gradient norm :     0.0572965 Eh/α   predicted    -0.1208218E-01 (  16.44%)
   displ. norm   :     0.6795833 α      lambda       -0.1972564E-01
   maximum displ.:     0.2022112 α      in ANC's #27, #33, #24, ...

........................................................................
.............................. CYCLE   17 ..............................
........................................................................
------------------------------------------------------------
  cycle        total energy    energy error   density error
------------------------------------------------------------
      1     -200.4359248991  -2.0294977E+02   6.1567863E-03
      2     -200.4074395504   2.8485349E-02   9.6111309E-03
      3     -200.3858278468   2.1611704E-02   1.1543117E-02
      4     -200.4199227947  -3.4094948E-02   6.6312475E-03
      5     -200.4323256344  -1.2402840E-02   3.3513540E-03
      6     -200.4366674776  -4.3418432E-03   8.2535624E-04
      7     -200.4357101172   9.5736035E-04   2.0050996E-03
      8     -200.4357201645  -1.0047257E-05   1.9303505E-03
      9     -200.4367286032  -1.0084387E-03   3.4016719E-04
     10     -200.4366562773   7.2325957E-05   6.5756865E-04
     11     -200.4366926192  -3.6341985E-05   5.3141437E-04
     12     -200.4367579022  -6.5282978E-05   2.1802072E-04
     13     -200.4367720680  -1.4165802E-05   4.4920336E-05
     14     -200.4367720339   3.4100964E-08   4.0324308E-05
     15     -200.4367723303  -2.9642331E-07   1.9811392E-05
------------------------------------------------------------

 total:                                   3.338 sec
 * total energy  :  -200.4367723 Eh     change       -0.4589432E-02 Eh
   gradient norm :     0.0882535 Eh/α   predicted    -0.1441780E-01 ( 214.15%)
   displ. norm   :     0.5417362 α      lambda       -0.1885152E-01
   maximum displ.:     0.1548608 α      in ANC's #24, #14, #32, ...

........................................................................
.............................. CYCLE   18 ..............................
........................................................................
------------------------------------------------------------
  cycle        total energy    energy error   density error
------------------------------------------------------------
      1     -200.4472968276  -2.0295905E+02   4.3363893E-03
      2     -200.4112344966   3.6062331E-02   1.0278256E-02
      3     -200.4274193599  -1.6184863E-02   7.9013552E-03
      4     -200.4475199997  -2.0100640E-02   1.4934501E-03
      5     -200.4475391985  -1.9198861E-05   1.2056585E-03
      6     -200.4479510853  -4.1188673E-04   6.4566281E-04
      7     -200.4479688764  -1.7791187E-05   5.9006656E-04
      8     -200.4480375606  -6.8684166E-05   3.5827890E-04
      9     -200.4480756765  -3.8115905E-05   1.1046839E-04
     10     -200.4480789351  -3.2585924E-06   5.3532602E-05
     11     -200.4480790275  -9.2357709E-08   4.9196134E-05
     12     -200.4480797671  -7.3962221E-07   1.1065439E-05
------------------------------------------------------------

 total:                                   3.309 sec
 * total energy  :  -200.4480798 Eh     change       -0.1130744E-01 Eh
   gradient norm :     0.0473267 Eh/α   predicted    -0.1219202E-01 (   7.82%)
   displ. norm   :     0.6480831 α      lambda       -0.1546083E-01
   maximum displ.:     0.1950770 α      in ANC's #24, #27, #18, ...

........................................................................
.............................. CYCLE   19 ..............................
........................................................................
------------------------------------------------------------
  cycle        total energy    energy error   density error
------------------------------------------------------------
      1     -200.4530112840  -2.0297582E+02   5.5598806E-03
      2     -200.4211000270   3.1911257E-02   9.6974253E-03
      3     -200.4107399993   1.0360028E-02   1.0908475E-02
      4     -200.4523989553  -4.1658956E-02   2.1943314E-03
      5     -200.4534884764  -1.0895211E-03   1.0847252E-03
      6     -200.4537686948  -2.8021836E-04   5.6437913E-04
      7     -200.4538408865  -7.2191714E-05   3.6755503E-04
      8     -200.4537691183   7.1768263E-05   5.6693181E-04
      9     -200.4537971337  -2.8015475E-05   4.5693807E-04
     10     -200.4538630703  -6.5936532E-05   1.3150614E-04
     11     -200.4538630735  -3.2416665E-09   1.6263750E-04
     12     -200.4538645115  -1.4379994E-06   1.4224245E-04
     13     -200.4538703242  -5.8126795E-06   1.6700634E-05
     14     -200.4538695467   7.7752225E-07   5.6599183E-05
     15     -200.4538702052  -6.5849801E-07   2.3599342E-05
     16     -200.4538703506  -1.4545839E-07   6.3769049E-06
------------------------------------------------------------

 total:                                   3.687 sec
 * total energy  :  -200.4538704 Eh     change       -0.5790584E-02 Eh
   gradient norm :     0.0600347 Eh/α   predicted    -0.1097728E-01 (  89.57%)
   displ. norm   :     0.6386049 α      lambda       -0.1412921E-01
   maximum displ.:     0.1948439 α      in ANC's #24, #14, #1, ...

........................................................................
.............................. CYCLE   20 ..............................
........................................................................
------------------------------------------------------------
  cycle        total energy    energy error   density error
------------------------------------------------------------
      1     -200.4632684744  -2.0298029E+02   4.0954840E-03
      2     -200.4493115785   1.3956896E-02   6.7775869E-03
      3     -200.4318917695   1.7419809E-02   9.6470539E-03
      4     -200.4629941587  -3.1102389E-02   1.2653282E-03
      5     -200.4632648282  -2.7066955E-04   9.4823201E-04
      6     -200.4633568528  -9.2024596E-05   7.8904432E-04
      7     -200.4634752874  -1.1843453E-04   4.9789638E-04
      8     -200.4635408843  -6.5596929E-05   2.0759429E-04
      9     -200.4635531774  -1.2293126E-05   5.7695484E-05
     10     -200.4635541069  -9.2950756E-07   2.5809004E-05
     11     -200.4635540595   4.7389932E-08   2.7196748E-05
     12     -200.4635542626  -2.0312245E-07   1.0070327E-05
------------------------------------------------------------

 total:                                   2.952 sec
 * total energy  :  -200.4635543 Eh     change       -0.9683912E-02 Eh
   gradient norm :     0.0449329 Eh/α   predicted    -0.9945668E-02 (   2.70%)
   displ. norm   :     0.6949146 α      lambda       -0.1387146E-01
   maximum displ.:     0.2592536 α      in ANC's #24, #33, #14, ...
 * RMSD in coord.:     1.0496968 α      energy gain  -0.1832209E+01 Eh

generating ANC from exact Hessian ...
Using Lindh-Hessian (1995)
 Shifting diagonal of input Hessian by    1.0132742812362512E-002
 Lowest  eigenvalues of input Hessian
    0.010000    0.000000    0.000000    0.000000    0.000000    0.000000
    0.000000    0.010203    0.010210    0.010281    0.010331    0.010496
    0.010661    0.010685    0.010815    0.011019    0.011160    0.011319
 Highest eigenvalues
    2.354518    2.374833    2.401377    2.404058    2.418648    2.421471


........................................................................
.............................. CYCLE   21 ..............................
........................................................................
------------------------------------------------------------
  cycle        total energy    energy error   density error
------------------------------------------------------------
      1     -200.4671305693  -2.0298362E+02   5.3945506E-03
      2     -200.4315725252   3.5558044E-02   1.0297545E-02
      3     -200.4356334835  -4.0609584E-03   9.8262653E-03
      4     -200.4647597678  -2.9126284E-02   2.9989338E-03
      5     -200.4672679877  -2.5082198E-03   1.4564653E-03
      6     -200.4678805690  -6.1258132E-04   6.8450792E-04
      7     -200.4680218559  -1.4128691E-04   2.6738794E-04
      8     -200.4680320700  -1.0214076E-05   1.7176765E-04
      9     -200.4680317294   3.4057527E-07   1.5152952E-04
     10     -200.4680380258  -6.2964027E-06   5.9084746E-05
     11     -200.4680389938  -9.6802128E-07   2.0213682E-05
     12     -200.4680385580   4.3582497E-07   3.9335385E-05
     13     -200.4680389093  -3.5126408E-07   1.9311999E-05
------------------------------------------------------------

 total:                                   4.224 sec
 * total energy  :  -200.4680389 Eh     change       -0.4484647E-02 Eh
   gradient norm :     0.0677195 Eh/α   predicted     0.0000000E+00 (-100.00%)
   displ. norm   :     0.4689573 α      lambda       -0.1233961E-01
   maximum displ.:     0.1662245 α      in ANC's #26, #13, #11, ...

........................................................................
.............................. CYCLE   22 ..............................
........................................................................
------------------------------------------------------------
  cycle        total energy    energy error   density error
------------------------------------------------------------
      1     -200.4755479054  -2.0299602E+02   4.1223025E-03
      2     -200.3960578777   7.9490028E-02   1.2225947E-02
      3     -200.4548012867  -5.8743409E-02   8.0107795E-03
      4     -200.4541419932   6.5929342E-04   7.5431006E-03
      5     -200.4693334409  -1.5191448E-02   4.0647285E-03
      6     -200.4769763976  -7.6429566E-03   2.4230008E-03
      7     -200.4762536037   7.2279388E-04   3.0091284E-03
      8     -200.4763643214  -1.1071774E-04   2.7356601E-03
      9     -200.4770952063  -7.3088485E-04   1.2503992E-03
     10     -200.4772710896  -1.7588332E-04   1.7837881E-04
     11     -200.4772748911  -3.8015389E-06   2.6888511E-04
     12     -200.4772782460  -3.3549156E-06   1.5612470E-04
     13     -200.4772781006   1.4547956E-07   1.3039677E-04
     14     -200.4772788511  -7.5054109E-07   9.8757996E-05
     15     -200.4772800371  -1.1860461E-06   4.0696804E-05
     16     -200.4772802488  -2.1162174E-07   2.1623972E-05
     17     -200.4772803545  -1.0575269E-07   3.9701626E-06
------------------------------------------------------------

 total:                                   5.087 sec
 * total energy  :  -200.4772804 Eh     change       -0.9241445E-02 Eh
   gradient norm :     0.0259403 Eh/α   predicted    -0.7535692E-02 ( -18.46%)
   displ. norm   :     0.6886937 α      lambda       -0.9212964E-02
   maximum displ.:     0.2546316 α      in ANC's #26, #13, #11, ...

........................................................................
.............................. CYCLE   23 ..............................
........................................................................
------------------------------------------------------------
  cycle        total energy    energy error   density error
------------------------------------------------------------
      1     -200.4842332121  -2.0300483E+02   4.0740383E-03
      2     -200.4468292843   3.7403928E-02   1.0090775E-02
      3     -200.4661860038  -1.9356719E-02   7.6469237E-03
      4     -200.4829713712  -1.6785367E-02   2.2522458E-03
      5     -200.4846832391  -1.7118679E-03   1.0883181E-03
      6     -200.4840083698   6.7486930E-04   1.8925147E-03
      7     -200.4838871328   1.2123699E-04   1.9448533E-03
      8     -200.4845225393  -6.3540649E-04   1.2740420E-03
      9     -200.4850276635  -5.0512413E-04   9.7736686E-05
     10     -200.4850202628   7.4006635E-06   1.8847173E-04
     11     -200.4850288887  -8.6258906E-06   7.0972310E-05
     12     -200.4850301617  -1.2729900E-06   3.7761886E-05
     13     -200.4850302534  -9.1709438E-08   2.8390993E-05
     14     -200.4850304065  -1.5307072E-07   1.5093349E-05
------------------------------------------------------------

 total:                                   3.766 sec
 * total energy  :  -200.4850304 Eh     change       -0.7750052E-02 Eh
   gradient norm :     0.0241365 Eh/α   predicted    -0.6791336E-02 ( -12.37%)
   displ. norm   :     0.8059509 α      lambda       -0.8659724E-02
   maximum displ.:     0.2913969 α      in ANC's #26, #13, #11, ...

........................................................................
.............................. CYCLE   24 ..............................
........................................................................
------------------------------------------------------------
  cycle        total energy    energy error   density error
------------------------------------------------------------
      1     -200.4920404866  -2.0300790E+02   4.2852708E-03
      2     -200.4515100649   4.0530422E-02   1.0360962E-02
      3     -200.4728369312  -2.1326866E-02   7.8747625E-03
      4     -200.4885523949  -1.5715464E-02   3.2486114E-03
      5     -200.4925708728  -4.0184779E-03   1.0022470E-03
      6     -200.4917971218   7.7375100E-04   2.0611731E-03
      7     -200.4914118041   3.8531772E-04   2.2923746E-03
      8     -200.4919177548  -5.0595070E-04   1.8418780E-03
      9     -200.4929071411  -9.8938633E-04   1.5650886E-04
     10     -200.4928969644   1.0176743E-05   2.6321591E-04
     11     -200.4929134659  -1.6501559E-05   8.8898800E-05
     12     -200.4929154921  -2.0261459E-06   4.5040469E-05
     13     -200.4929154617   3.0443033E-08   3.8872663E-05
     14     -200.4929157408  -2.7918344E-07   2.0305577E-05
     15     -200.4929158068  -6.5946892E-08   1.2103061E-05
------------------------------------------------------------

 total:                                   4.820 sec
 * total energy  :  -200.4929158 Eh     change       -0.7885400E-02 Eh
   gradient norm :     0.0354970 Eh/α   predicted    -0.7142367E-02 (  -9.42%)
   displ. norm   :     0.8321746 α      lambda       -0.9071600E-02
   maximum displ.:     0.2920747 α      in ANC's #11, #13, #26, ...

........................................................................
.............................. CYCLE   25 ..............................
........................................................................
------------------------------------------------------------
  cycle        total energy    energy error   density error
------------------------------------------------------------
      1     -200.5005698109  -2.0301288E+02   4.1143439E-03
      2     -200.4718884863   2.8681325E-02   9.2309762E-03
      3     -200.4818429541  -9.9544678E-03   7.7573655E-03
      4     -200.4995329658  -1.7690012E-02   1.9337265E-03
      5     -200.5007902972  -1.2573314E-03   9.3096300E-04
      6     -200.5008695812  -7.9284053E-05   8.6361336E-04
      7     -200.5008328198   3.6761420E-05   9.0351456E-04
      8     -200.5009861687  -1.5334889E-04   5.7041252E-04
      9     -200.5010831658  -9.6997120E-05   1.1101554E-04
     10     -200.5010863324  -3.1665764E-06   5.3132651E-05
     11     -200.5010866840  -3.5161520E-07   3.9542702E-05
     12     -200.5010871567  -4.7267545E-07   7.0065270E-06
------------------------------------------------------------

 total:                                   4.160 sec
 * total energy  :  -200.5010872 Eh     change       -0.8171350E-02 Eh
   gradient norm :     0.0333929 Eh/α   predicted    -0.7676924E-02 (  -6.05%)
   displ. norm   :     0.7921137 α      lambda       -0.8558035E-02
   maximum displ.:     0.2953202 α      in ANC's #11, #13, #26, ...

........................................................................
.............................. CYCLE   26 ..............................
........................................................................
------------------------------------------------------------
  cycle        total energy    energy error   density error
------------------------------------------------------------
      1     -200.5082436304  -2.0302207E+02   3.7795106E-03
      2     -200.5073058691   9.3776136E-04   2.8225207E-03
      3     -200.4597427970   4.7563072E-02   1.1003081E-02
      4     -200.5055225561  -4.5779759E-02   2.7742357E-03
      5     -200.5081088125  -2.5862564E-03   8.4828413E-04
      6     -200.5082010884  -9.2275820E-05   8.6963530E-04
      7     -200.5079647305   2.3635791E-04   1.2261819E-03
      8     -200.5079697397  -5.0092528E-06   1.2055455E-03
      9     -200.5083000156  -3.3027588E-04   5.4420237E-04
     10     -200.5083707759  -7.0760272E-05   3.3508071E-04
     11     -200.5083924475  -2.1671638E-05   1.6026736E-04
     12     -200.5083991190  -6.6715475E-06   1.4629612E-05
     13     -200.5083990723   4.6716593E-08   1.7191066E-05
------------------------------------------------------------

 total:                                   3.726 sec
 * total energy  :  -200.5083991 Eh     change       -0.7311916E-02 Eh
   gradient norm :     0.0220410 Eh/α   predicted    -0.6963863E-02 (  -4.76%)
   displ. norm   :     0.8174659 α      lambda       -0.6814647E-02
   maximum displ.:     0.3242486 α      in ANC's #11, #13, #9, ...

........................................................................
.............................. CYCLE   27 ..............................
........................................................................
------------------------------------------------------------
  cycle        total energy    energy error   density error
------------------------------------------------------------
      1     -200.5142328627  -2.0302279E+02   3.8787371E-03
      2     -200.5139591316   2.7373115E-04   2.5065327E-03
      3     -200.4746521555   3.9306976E-02   1.0166484E-02
      4     -200.5089201715  -3.4268016E-02   3.8011396E-03
      5     -200.5141066434  -5.1864719E-03   7.7911476E-04
      6     -200.5142891771  -1.8253368E-04   4.6568709E-04
      7     -200.5141154557   1.7372135E-04   8.7180493E-04
      8     -200.5141442785  -2.8822783E-05   8.0495500E-04
      9     -200.5143275138  -1.8323525E-04   1.9227650E-04
     10     -200.5143388830  -1.1369212E-05   1.1335302E-04
     11     -200.5143388556   2.7393526E-08   1.0546013E-04
     12     -200.5143415592  -2.7035593E-06   2.8064079E-05
     13     -200.5143415373   2.1889491E-08   2.8480109E-05
     14     -200.5143417644  -2.2712203E-07   7.8709975E-06
------------------------------------------------------------

 total:                                   5.060 sec
 * total energy  :  -200.5143418 Eh     change       -0.5942692E-02 Eh
   gradient norm :     0.0241847 Eh/α   predicted    -0.5684275E-02 (  -4.35%)
   displ. norm   :     0.7678956 α      lambda       -0.6278440E-02
   maximum displ.:     0.3331747 α      in ANC's #11, #13, #9, ...

........................................................................
.............................. CYCLE   28 ..............................
........................................................................
------------------------------------------------------------
  cycle        total energy    energy error   density error
------------------------------------------------------------
      1     -200.5192012851  -2.0303650E+02   3.6249159E-03
      2     -200.5080430689   1.1158216E-02   6.1104152E-03
      3     -200.4972962080   1.0746861E-02   8.2185144E-03
      4     -200.5182066077  -2.0910400E-02   1.6700936E-03
      5     -200.5191292928  -9.2268513E-04   8.5010650E-04
      6     -200.5193484294  -2.1913655E-04   3.4614684E-04
      7     -200.5193910020  -4.2572681E-05   8.5725863E-05
      8     -200.5193906833   3.1869223E-07   8.2315419E-05
      9     -200.5193918028  -1.1194045E-06   4.3247426E-05
     10     -200.5193923180  -5.1527246E-07   1.7417590E-05
------------------------------------------------------------

 total:                                   3.959 sec
 * total energy  :  -200.5193923 Eh     change       -0.5050554E-02 Eh
   gradient norm :     0.0217719 Eh/α   predicted    -0.4990311E-02 (  -1.19%)
   displ. norm   :     0.8360829 α      lambda       -0.5392309E-02
   maximum displ.:     0.3550888 α      in ANC's #11, #13, #9, ...

........................................................................
.............................. CYCLE   29 ..............................
........................................................................
------------------------------------------------------------
  cycle        total energy    energy error   density error
------------------------------------------------------------
      1     -200.5232287433  -2.0302781E+02   4.0680567E-03
      2     -200.5022149189   2.1013824E-02   8.1215563E-03
      3     -200.5034230203  -1.2081014E-03   7.9620548E-03
      4     -200.5206395471  -1.7216527E-02   2.5515903E-03
      5     -200.5234147673  -2.7752202E-03   5.3657429E-04
      6     -200.5234954220  -8.0654724E-05   2.7318378E-04
      7     -200.5234906686   4.7534318E-06   2.9152882E-04
      8     -200.5235047454  -1.4076787E-05   1.9367558E-04
      9     -200.5235142026  -9.4572347E-06   5.5259451E-05
     10     -200.5235149998  -7.9714005E-07   2.2178038E-05
     11     -200.5235150560  -5.6213878E-08   1.6843075E-05
------------------------------------------------------------

 total:                                   3.749 sec
 * total energy  :  -200.5235151 Eh     change       -0.4122738E-02 Eh
   gradient norm :     0.0275745 Eh/α   predicted    -0.4580863E-02 (  11.11%)
   displ. norm   :     0.6841529 α      lambda       -0.4064026E-02
   maximum displ.:     0.3308882 α      in ANC's #11, #9, #13, ...

........................................................................
.............................. CYCLE   30 ..............................
........................................................................
------------------------------------------------------------
  cycle        total energy    energy error   density error
------------------------------------------------------------
      1     -200.5268298725  -2.0303737E+02   3.0065783E-03
      2     -200.5267852636   4.4608958E-05   1.8242158E-03
      3     -200.5240002144   2.7850492E-03   2.5808488E-03
      4     -200.5238808251   1.1938934E-04   2.9774235E-03
      5     -200.5265261620  -2.6453370E-03   1.0074610E-03
      6     -200.5268640916  -3.3792953E-04   1.5831735E-04
      7     -200.5268703958  -6.3042050E-06   8.0549616E-05
      8     -200.5268717978  -1.4020330E-06   3.7945814E-05
      9     -200.5268718738  -7.5986378E-08   2.2759255E-05
     10     -200.5268720318  -1.5803522E-07   7.7508141E-06
------------------------------------------------------------

 total:                                   3.487 sec
 * total energy  :  -200.5268720 Eh     change       -0.3356976E-02 Eh
   gradient norm :     0.0190998 Eh/α   predicted    -0.2983130E-02 ( -11.14%)
   displ. norm   :     0.7254046 α      lambda       -0.3641675E-02
   maximum displ.:     0.3264476 α      in ANC's #11, #9, #13, ...

........................................................................
.............................. CYCLE   31 ..............................
........................................................................
------------------------------------------------------------
  cycle        total energy    energy error   density error
------------------------------------------------------------
      1     -200.5291855148  -2.0305262E+02   3.1703684E-03
      2     -200.5242497454   4.9357693E-03   4.2208905E-03
      3     -200.5040005263   2.0249219E-02   8.7046385E-03
      4     -200.5261789254  -2.2178399E-02   2.6613776E-03
      5     -200.5290622379  -2.8833125E-03   8.2935307E-04
      6     -200.5292286311  -1.6639322E-04   4.0246908E-04
      7     -200.5292651088  -3.6477639E-05   2.1894443E-04
      8     -200.5292750715  -9.9627134E-06   1.1701624E-04
      9     -200.5292784554  -3.3838731E-06   3.7841460E-05
     10     -200.5292788710  -4.1563382E-07   1.2909793E-05
------------------------------------------------------------

 total:                                   2.695 sec
 * total energy  :  -200.5292789 Eh     change       -0.2406839E-02 Eh
   gradient norm :     0.0228945 Eh/α   predicted    -0.2778987E-02 (  15.46%)
   displ. norm   :     0.6968926 α      lambda       -0.3302600E-02
   maximum displ.:     0.3711129 α      in ANC's #11, #9, #13, ...

........................................................................
.............................. CYCLE   32 ..............................
........................................................................
------------------------------------------------------------
  cycle        total energy    energy error   density error
------------------------------------------------------------
      1     -200.5314604618  -2.0305209E+02   3.0346165E-03
      2     -200.5286325990   2.8278628E-03   3.3824740E-03
      3     -200.5025578093   2.6074790E-02   9.2350212E-03
      4     -200.5304150197  -2.7857210E-02   1.6098043E-03
      5     -200.5313320773  -9.1705762E-04   7.5956122E-04
      6     -200.5314449514  -1.1287414E-04   4.5373606E-04
      7     -200.5314858469  -4.0895478E-05   2.7446796E-04
      8     -200.5315051197  -1.9272784E-05   1.0512535E-04
      9     -200.5315081644  -3.0447206E-06   1.9676354E-05
     10     -200.5315082160  -5.1642132E-08   1.0602965E-05
------------------------------------------------------------

 total:                                   3.273 sec
 * total energy  :  -200.5315082 Eh     change       -0.2229345E-02 Eh
   gradient norm :     0.0162452 Eh/α   predicted    -0.2453363E-02 (  10.05%)
   displ. norm   :     0.6614829 α      lambda       -0.2061963E-02
   maximum displ.:     0.2784437 α      in ANC's #11, #9, #13, ...

........................................................................
.............................. CYCLE   33 ..............................
........................................................................
------------------------------------------------------------
  cycle        total energy    energy error   density error
------------------------------------------------------------
      1     -200.5326024577  -2.0305013E+02   2.7468641E-03
      2     -200.5235509215   9.0515362E-03   5.3949106E-03
      3     -200.5214949482   2.0559733E-03   5.9188244E-03
      4     -200.5310768192  -9.5818710E-03   1.9062423E-03
      5     -200.5326644673  -1.5876481E-03   3.3069278E-04
      6     -200.5326933293  -2.8861975E-05   1.3488612E-04
      7     -200.5326949111  -1.5818374E-06   1.1412650E-04
      8     -200.5326969202  -2.0090178E-06   7.3545762E-05
      9     -200.5326982189  -1.2987237E-06   2.7790831E-05
     10     -200.5326984502  -2.3127353E-07   8.3806320E-06
------------------------------------------------------------

 total:                                   3.220 sec
 * total energy  :  -200.5326985 Eh     change       -0.1190234E-02 Eh
   gradient norm :     0.0193072 Eh/α   predicted    -0.1482149E-02 (  24.53%)
   displ. norm   :     0.6097994 α      lambda       -0.2222524E-02
   maximum displ.:     0.2930616 α      in ANC's #11, #7, #14, ...

........................................................................
.............................. CYCLE   34 ..............................
........................................................................
------------------------------------------------------------
  cycle        total energy    energy error   density error
------------------------------------------------------------
      1     -200.5339746500  -2.0305197E+02   2.4726384E-03
      2     -200.5330723218   9.0232815E-04   2.1719304E-03
      3     -200.5056225274   2.7449794E-02   9.0791504E-03
      4     -200.5322879410  -2.6665414E-02   2.0080311E-03
      5     -200.5339634022  -1.6754612E-03   4.2760003E-04
      6     -200.5339889902  -2.5588012E-05   2.8730442E-04
      7     -200.5340068438  -1.7853539E-05   1.6025108E-04
      8     -200.5340136952  -6.8514285E-06   5.1937787E-05
      9     -200.5340142537  -5.5845925E-07   1.7744661E-05
------------------------------------------------------------

 total:                                   2.709 sec
 * total energy  :  -200.5340143 Eh     change       -0.1315803E-02 Eh
   gradient norm :     0.0177918 Eh/α   predicted    -0.1524536E-02 (  15.86%)
   displ. norm   :     0.5235023 α      lambda       -0.1897901E-02
   maximum displ.:     0.2046075 α      in ANC's #7, #11, #2, ...

........................................................................
.............................. CYCLE   35 ..............................
........................................................................
------------------------------------------------------------
  cycle        total energy    energy error   density error
------------------------------------------------------------
      1     -200.5345545458  -2.0307003E+02   2.2613122E-03
      2     -200.5191545042   1.5400042E-02   6.8734131E-03
      3     -200.5317279478  -1.2573444E-02   3.1775222E-03
      4     -200.5345010107  -2.7730629E-03   7.6455597E-04
      5     -200.5346539085  -1.5289778E-04   4.2681723E-04
      6     -200.5346967321  -4.2823614E-05   2.5351877E-04
      7     -200.5347190022  -2.2270026E-05   7.1420881E-05
      8     -200.5347200160  -1.0138195E-06   3.8683693E-05
      9     -200.5347203287  -3.1267658E-07   1.8588197E-05
------------------------------------------------------------

 total:                                   2.379 sec
 * total energy  :  -200.5347203 Eh     change       -0.7060750E-03 Eh
   gradient norm :     0.0288792 Eh/α   predicted    -0.1209042E-02 (  71.23%)
   displ. norm   :     0.5016129 α      lambda       -0.1852975E-02
   maximum displ.:     0.1925130 α      in ANC's #7, #11, #9, ...

........................................................................
.............................. CYCLE   36 ..............................
........................................................................
------------------------------------------------------------
  cycle        total energy    energy error   density error
------------------------------------------------------------
      1     -200.5357399000  -2.0305719E+02   2.1304217E-03
      2     -200.5320246322   3.7152678E-03   3.5623158E-03
      3     -200.5257435553   6.2810769E-03   5.5080988E-03
      4     -200.5348947534  -9.1511981E-03   1.4539657E-03
      5     -200.5357773261  -8.8257276E-04   1.8912954E-04
      6     -200.5357722103   5.1158717E-06   2.2133500E-04
      7     -200.5357786335  -6.4232853E-06   1.6328399E-04
      8     -200.5357840836  -5.4500130E-06   9.5625845E-05
      9     -200.5357864428  -2.3592126E-06   3.4146783E-05
     10     -200.5357867752  -3.3245095E-07   8.0998997E-06
------------------------------------------------------------

 total:                                   2.271 sec
 * total energy  :  -200.5357868 Eh     change       -0.1066447E-02 Eh
   gradient norm :     0.0226733 Eh/α   predicted    -0.1159621E-02 (   8.74%)
   displ. norm   :     0.4771712 α      lambda       -0.2171381E-02
   maximum displ.:     0.2419582 α      in ANC's #7, #14, #11, ...

........................................................................
.............................. CYCLE   37 ..............................
........................................................................
------------------------------------------------------------
  cycle        total energy    energy error   density error
------------------------------------------------------------
      1     -200.5361779308  -2.0304909E+02   2.0778418E-03
      2     -200.5326746696   3.5032612E-03   3.4568487E-03
      3     -200.5251877454   7.4869241E-03   5.8071225E-03
      4     -200.5359777940  -1.0790049E-02   8.8989973E-04
      5     -200.5361066887  -1.2889477E-04   6.5620616E-04
      6     -200.5362666181  -1.5992937E-04   1.6908307E-04
      7     -200.5362752293  -8.6112305E-06   6.3573153E-05
      8     -200.5362754600  -2.3066113E-07   5.2546843E-05
      9     -200.5362760660  -6.0604637E-07   2.3920511E-05
     10     -200.5362761666  -1.0053654E-07   1.1461516E-05
------------------------------------------------------------

 total:                                   2.671 sec
 * total energy  :  -200.5362762 Eh     change       -0.4893914E-03 Eh
   gradient norm :     0.0290416 Eh/α   predicted    -0.1332913E-02 ( 172.36%)
   displ. norm   :     0.3967324 α      lambda       -0.1859056E-02
   maximum displ.:     0.1743011 α      in ANC's #7, #6, #2, ...

........................................................................
.............................. CYCLE   38 ..............................
........................................................................
------------------------------------------------------------
  cycle        total energy    energy error   density error
------------------------------------------------------------
      1     -200.5373349934  -2.0305712E+02   1.7243312E-03
      2     -200.5358317763   1.5032171E-03   2.3543677E-03
      3     -200.5270610186   8.7707577E-03   5.5268837E-03
      4     -200.5372248022  -1.0163784E-02   5.8447017E-04
      5     -200.5373207789  -9.5976699E-05   3.3148187E-04
      6     -200.5373586156  -3.7836700E-05   1.2536025E-04
      7     -200.5373582839   3.3169229E-07   1.2217864E-04
      8     -200.5373612279  -2.9439409E-06   7.1665825E-05
      9     -200.5373627978  -1.5699396E-06   1.6294592E-05
     10     -200.5373628507  -5.2910110E-08   6.3989591E-06
------------------------------------------------------------

 total:                                   2.785 sec
 * total energy  :  -200.5373629 Eh     change       -0.1086684E-02 Eh
   gradient norm :     0.0208751 Eh/α   predicted    -0.1075841E-02 (  -1.00%)
   displ. norm   :     0.5152143 α      lambda       -0.1914147E-02
   maximum displ.:     0.1843264 α      in ANC's #7, #26, #11, ...

........................................................................
.............................. CYCLE   39 ..............................
........................................................................
------------------------------------------------------------
  cycle        total energy    energy error   density error
------------------------------------------------------------
      1     -200.5376037263  -2.0305555E+02   2.3412270E-03
      2     -200.5343645158   3.2392105E-03   3.4479086E-03
      3     -200.5226292983   1.1735217E-02   6.6845177E-03
      4     -200.5374471465  -1.4817848E-02   9.3673812E-04
      5     -200.5374686804  -2.1533914E-05   8.3213648E-04
      6     -200.5376911093  -2.2242893E-04   3.5915481E-04
      7     -200.5377098265  -1.8717209E-05   2.7694743E-04
      8     -200.5377228617  -1.3035202E-05   1.8639599E-04
      9     -200.5377313680  -8.5062093E-06   8.2195917E-05
     10     -200.5377334257  -2.0577068E-06   1.8513202E-05
     11     -200.5377335062  -8.0504094E-08   5.8021310E-06
------------------------------------------------------------

 total:                                   2.814 sec
 * total energy  :  -200.5377335 Eh     change       -0.3706554E-03 Eh
   gradient norm :     0.0309656 Eh/α   predicted    -0.1211134E-02 ( 226.75%)
   displ. norm   :     0.3742154 α      lambda       -0.1674200E-02
   maximum displ.:     0.1967119 α      in ANC's #7, #6, #2, ...

........................................................................
.............................. CYCLE   40 ..............................
........................................................................
------------------------------------------------------------
  cycle        total energy    energy error   density error
------------------------------------------------------------
      1     -200.5387869552  -2.0305571E+02   1.4385323E-03
      2     -200.5342843363   4.5026189E-03   3.7371138E-03
      3     -200.5362875407  -2.0032045E-03   2.8494944E-03
      4     -200.5386658117  -2.3782710E-03   6.8713461E-04
      5     -200.5387849155  -1.1910383E-04   4.0558437E-04
      6     -200.5388455389  -6.0623371E-05   1.0499787E-04
      7     -200.5388486510  -3.1120615E-06   4.6817306E-05
      8     -200.5388487380  -8.7005873E-08   4.0532804E-05
      9     -200.5388491177  -3.7973194E-07   1.7781160E-05
------------------------------------------------------------

 total:                                   2.497 sec
 * total energy  :  -200.5388491 Eh     change       -0.1115612E-02 Eh
   gradient norm :     0.0135383 Eh/α   predicted    -0.9543306E-03 ( -14.46%)
   displ. norm   :     0.5456745 α      lambda       -0.1305496E-02
   maximum displ.:     0.2663197 α      in ANC's #7, #2, #26, ...

........................................................................
.............................. CYCLE   41 ..............................
........................................................................
------------------------------------------------------------
  cycle        total energy    energy error   density error
------------------------------------------------------------
      1     -200.5392606781  -2.0305802E+02   2.1732011E-03
      2     -200.5330017698   6.2589083E-03   4.4529710E-03
      3     -200.5307113696   2.2904002E-03   5.1740973E-03
      4     -200.5387578914  -8.0465218E-03   1.2316515E-03
      5     -200.5392657054  -5.0781399E-04   4.8645588E-04
      6     -200.5393473631  -8.1657662E-05   1.6288376E-04
      7     -200.5393544844  -7.1213469E-06   9.0586640E-05
      8     -200.5393556831  -1.1986209E-06   5.9915066E-05
      9     -200.5393565752  -8.9211360E-07   2.5666663E-05
     10     -200.5393567181  -1.4289549E-07   1.1891433E-05
------------------------------------------------------------

 total:                                   2.822 sec
 * total energy  :  -200.5393567 Eh     change       -0.5076004E-03 Eh
   gradient norm :     0.0250007 Eh/α   predicted    -0.8471215E-03 (  66.89%)
   displ. norm   :     0.5076979 α      lambda       -0.1351919E-02
   maximum displ.:     0.2405248 α      in ANC's #7, #9, #6, ...

[...]
     J. Seibert, S. Spicher, S. Grimme, WIREs Comput. Mol. Sci., 2020, 11,
     e01493. DOI: 10.1002/wcms.1493
   
   for GFN2-xTB:
   * C. Bannwarth, S. Ehlert and S. Grimme., J. Chem. Theory Comput., 2019,
     15, 1652-1671. DOI: 10.1021/acs.jctc.8b01176
   for GFN1-xTB:
   * S. Grimme, C. Bannwarth, P. Shushkov, J. Chem. Theory Comput., 2017,
     13, 1989-2009. DOI: 10.1021/acs.jctc.7b00118
   for GFN0-xTB:
   * P. Pracht, E. Caldeweyher, S. Ehlert, S. Grimme, ChemRxiv, 2019, preprint.
     DOI: 10.26434/chemrxiv.8326202.v1
   for GFN-FF:
   * S. Spicher and S. Grimme, Angew. Chem. Int. Ed., 2020, 59, 15665-15673.
     DOI: 10.1002/anie.202004239
   
   for ALPB and GBSA implicit solvation:
   * S. Ehlert, M. Stahn, S. Spicher, S. Grimme, J. Chem. Theory Comput.,
     2021, 17, 4250-4261. DOI: 10.1021/acs.jctc.1c00471
   
   for ddCOSMO and CPCM-X implicit solvation:
   * M. Stahn, S. Ehlert, S. Grimme, J. Phys. Chem. A,
     2023, XX, XXXX-XXXX. DOI: 10.1021/acs.jpca.3c04382
   
   for DFT-D4:
   * E. Caldeweyher, C. Bannwarth and S. Grimme, J. Chem. Phys., 2017,
     147, 034112. DOI: 10.1063/1.4993215
   * E. Caldeweyher, S. Ehlert, A. Hansen, H. Neugebauer, S. Spicher,
     C. Bannwarth and S. Grimme, J. Chem. Phys., 2019, 150, 154122.
     DOI: 10.1063/1.5090222
   * E. Caldeweyher, J.-M. Mewes, S. Ehlert and S. Grimme, Phys. Chem. Chem. Phys.
     2020, 22, 8499-8512. DOI: 10.1039/D0CP00502A
   
   for sTDA-xTB:
   * S. Grimme and C. Bannwarth, J. Chem. Phys., 2016, 145, 054103.
     DOI: 10.1063/1.4959605
   
   in the mass-spec context:
   * V. Asgeirsson, C. Bauer and S. Grimme, Chem. Sci., 2017, 8, 4879.
     DOI: 10.1039/c7sc00601b
   * J. Koopman and S. Grimme, ACS Omega 2019, 4, 12, 15120-15133.
     DOI: 10.1021/acsomega.9b02011
   
   for metadynamics refer to:
   * S. Grimme, J. Chem. Theory Comput., 2019, 155, 2847-2862
     DOI: 10.1021/acs.jctc.9b00143
   
   for SPH calculations refer to:
   * S. Spicher and S. Grimme, J. Chem. Theory Comput., 2021, 17, 1701-1714
     DOI: 10.1021/acs.jctc.0c01306
   
   for ONIOM refer to:
   * C. Plett, A. Katbashev, S. Ehlert, S. Grimme, M. Bursch,
     Phys. Chem. Chem. Phys., 2023, 25, 17860-17868. DOI: 10.1039/D3CP02178E
   
   for DIPRO refer to:
   * J. Kohn, N. Gildemeister, S. Grimme, D. Fazzi, A. Hansen,
     J. Chem. Phys., 2023, just accepted.
   
   for PTB refer to:
   * S. Grimme, M. Mueller, A. Hansen, J. Chem. Phys., 2023, 158, 124111.
     DOI: 10.1063/5.0137838
   
   with help from (in alphabetical order)
   P. Atkinson, C. Bannwarth, F. Bohle, G. Brandenburg, E. Caldeweyher
   M. Checinski, S. Dohm, S. Ehlert, S. Ehrlich, I. Gerasimov, C. Hölzer
   A. Katbashev, J. Kohn, J. Koopman, C. Lavigne, S. Lehtola, F. März, M. Müller,
   F. Musil, H. Neugebauer, J. Pisarek, C. Plett, P. Pracht, F. Pultar,
   J. Seibert, P. Shushkov, S. Spicher, M. Stahn, M. Steiner, T. Strunk,
   J. Stückrath, T. Rose, and J. Unsleber
   
 * started run on 2025/03/17 at 18:41:47.862     
   ID    Z sym.   atoms
    1    6 C      1-9, 11, 12, 14-21, 24-35, 37, 38, 40-47, 50-52, 56, 58,
                  62, 65, 68, 71, 102-110, 112, 113, 115-122, 125-136, 138,
                  139, 141-148, 151-153, 157, 159, 163, 166, 169, 172
    2    7 N      10, 13, 36, 39, 111, 114, 137, 140
    3    8 O      22, 23, 48, 49, 54, 55, 57, 59-61, 63, 64, 66, 67, 69, 70,
                  123, 124, 149, 150, 155, 156, 158, 160-162, 164, 165, 167,
                  168, 170, 171
    4    5 B      53, 154
    5    1 H      72-101, 173-202

           -------------------------------------------------
          |                Calculation Setup                |
           -------------------------------------------------

          program call               : xtb opt_dimer.mol --dipro 0.3 --chrg 0 --uhf 2 --spinpol --tblite
          coordinate file            : opt_dimer.mol
          omp threads                :                     8


molecular fragmentation (1/2 indicates fragments):
111111111111111111111111111111111111111111111111111111111111111111111111
111111111111111111111111111112222222222222222222222222222222222222222222
2222222222222222222222222222222222222222222222222222222222
# atoms in fragment 1/2:   101   101
 fragment masses (1/2) :      953.60      953.60
CMA distance (Bohr)    :   8.905
constraining FC (au)   :  0.0500
Wavefunction read from restart file
           -------------------------------------------------
          |                    D I P R O                    |
           -------------------------------------------------
Calculation for dimer 
--------------------- 
  
charge of dimer :   0.
unpaired e- of dimer :  2
repulsion energy          5.0431758473513E+00 Eh
dispersion energy         3.3333656975882E-02 Eh
number of electrons       6.9800000000000E+02 e
integral cutoff           1.9311100799991E+01 bohr

------------------------------------------------------------
  cycle        total energy    energy error   density error
------------------------------------------------------------
      1     -397.7310177746  -4.0280753E+02   2.1829316E-01
      2     -400.8283805443  -3.0973628E+00   9.8001444E-02
      3     -400.2323743842   5.9600616E-01   6.3358379E-02
      4     -396.0185885447   4.2137858E+00   8.2449642E-02
      5     -399.7710053452  -3.7524168E+00   4.4918907E-02
      6     -399.4462818997   3.2472345E-01   4.9906088E-02
      7     -401.0943182969  -1.6480364E+00   2.1119703E-02
      8     -401.0626149203   3.1703377E-02   1.8423321E-02
      9     -401.1874844113  -1.2486949E-01   1.2095354E-02
     10     -401.1710496978   1.6434713E-02   1.1063038E-02
     11     -401.2056974728  -3.4647775E-02   8.6086153E-03
     12     -401.2133118077  -7.6143348E-03   6.5761109E-03
     13     -401.2203828099  -7.0710023E-03   3.7316757E-03
     14     -401.2231641826  -2.7813726E-03   3.5235919E-03
     15     -401.2252782402  -2.1140576E-03   2.0052246E-03
     16     -401.2249721678   3.0607242E-04   1.8450623E-03
     17     -401.2259071873  -9.3501953E-04   9.4159987E-04
     18     -401.2261266663  -2.1947902E-04   5.8087458E-04
     19     -401.2261501073  -2.3440955E-05   4.4805790E-04
     20     -401.2261814522  -3.1344895E-05   3.1410307E-04
     21     -401.2261983496  -1.6897398E-05   1.6185003E-04
     22     -401.2262032433  -4.8937432E-06   5.5431874E-05
     23     -401.2262044194  -1.1761007E-06   4.0466952E-05
     24     -401.2262052020  -7.8256625E-07   1.3174547E-05
------------------------------------------------------------

electronic energy        -4.0630271470630E+02 Eh
total energy             -4.0122620520197E+02 Eh

 total:                                  15.015 sec
 - repulsion                              0.001 sec (  0%)
 - dispersion                             0.030 sec (  0%)
 - coulomb                                0.005 sec (  0%)
 - hamiltonian                            0.023 sec (  0%)
 - scc                                   14.956 sec ( 99%)

Found 2 fragments!
Fragment 1:  1-101
Fragment 2:  102-202

[Info] Fragment spin read from .UHFfrag
Calculation for fragment 1
 ------------------------------
   
charge of fragment :   0.
unpaired e- of fragment :  1
------------------------------------------------------------
  cycle        total energy    energy error   density error
------------------------------------------------------------
      1     -198.8078404658  -2.0132982E+02   2.1866273E-01
      2     -200.3806220629  -1.5727816E+00   9.8231721E-02
      3     -200.2470190615   1.3360300E-01   6.0355667E-02
      4     -199.6500978003   5.9692126E-01   5.7724542E-02
      5     -199.9860984681  -3.3600067E-01   4.2893420E-02
      6     -200.2679538793  -2.8185541E-01   3.1976068E-02
      7     -200.5114973302  -2.4354345E-01   1.8208219E-02
      8     -200.5651192558  -5.3621926E-02   8.2319875E-03
      9     -200.5666351275  -1.5158717E-03   6.5517048E-03
     10     -200.5680172110  -1.3820834E-03   4.7286336E-03
     11     -200.5689252101  -9.0799911E-04   3.1043620E-03
     12     -200.5692339040  -3.0869390E-04   1.7498562E-03
     13     -200.5697789704  -5.4506648E-04   8.1190878E-04
     14     -200.5698018325  -2.2862076E-05   6.7835400E-04
     15     -200.5698387185  -3.6886030E-05   4.0238468E-04
     16     -200.5698709665  -3.2247941E-05   1.2278159E-04
     17     -200.5698694474   1.5191001E-06   1.2409461E-04
     18     -200.5698726360  -3.1886511E-06   4.2257951E-05
     19     -200.5698729400  -3.0393025E-07   1.5271475E-05
------------------------------------------------------------

 total:                                   4.202 sec
Calculation for fragment 2
 ------------------------------
   
charge of fragment :   0.
unpaired e- of fragment :  1
------------------------------------------------------------
  cycle        total energy    energy error   density error
------------------------------------------------------------
      1     -198.8122238453  -2.0133341E+02   2.1810505E-01
      2     -200.3853979931  -1.5731741E+00   9.7240778E-02
      3     -200.3467009395   3.8697054E-02   5.7861926E-02
      4     -199.7667537243   5.7994722E-01   5.4641109E-02
      5     -200.0640702749  -2.9731655E-01   3.9243540E-02
      6     -200.2402578679  -1.7618759E-01   3.2248400E-02
      7     -200.5249859053  -2.8472804E-01   1.5687091E-02
      8     -200.5545079337  -2.9522028E-02   9.4006468E-03
      9     -200.5597495897  -5.2416561E-03   6.2911424E-03
     10     -200.5615165325  -1.7669428E-03   5.1088593E-03
     11     -200.5628938290  -1.3772965E-03   3.0243225E-03
     12     -200.5628996035  -5.7744697E-06   2.3849361E-03
     13     -200.5639249124  -1.0253089E-03   9.2383681E-04
     14     -200.5639319008  -6.9883762E-06   7.3782746E-04
     15     -200.5639922443  -6.0343544E-05   2.5543979E-04
     16     -200.5639891199   3.1244211E-06   2.2894968E-04
     17     -200.5640014837  -1.2363754E-05   7.5653922E-05
     18     -200.5640020002  -5.1656028E-07   4.4359146E-05
     19     -200.5640024096  -4.0935095E-07   1.6817165E-05
------------------------------------------------------------

 total:                                   2.711 sec
   
   ::::::::::::::::::::::::::::::::::::::::::::::
   ::     D I P R O      C O U P L I N G S     ::
   ::::::::::::::::::::::::::::::::::::::::::::::
   
energy threshhold for near-degenerate orbitals near HOMO and LUMO considered for DIPRO:  0.300 eV
no. of orbitals within energy window of frag 1         6
no. of orbitals within energy window of frag 2         6
   
  Fragment 1 SOMO-3  Fragment 2 SOMO-3
--------------------------------------
E_mon(orb) frag1 frag2             -10.801   -10.722 eV
J(AB):                0.010 eV
S(AB):            -0.00048641 Eh
|J(AB,eff)|:            0.005 eV
   
  Fragment 1 SOMO-3  Fragment 2 SOMO-2
--------------------------------------
E_mon(orb) frag1 frag2             -10.801   -10.608 eV
J(AB):                0.006 eV
S(AB):            -0.00032114 Eh
|J(AB,eff)|:            0.003 eV
   
  Fragment 1 SOMO-3  Fragment 2 SOMO-1
--------------------------------------
E_mon(orb) frag1 frag2             -10.801   -10.556 eV
J(AB):               -0.037 eV
S(AB):             0.00155351 Eh
|J(AB,eff)|:            0.020 eV
   
  Fragment 1 SOMO-3  Fragment 2 SOMO 
--------------------------------------
E_mon(orb) frag1 frag2             -10.801   -10.557 eV
J(AB):               -0.019 eV
S(AB):             0.00076756 Eh
|J(AB,eff)|:            0.011 eV
   
  Fragment 1 SOMO-3  Fragment 2 LUMO 
--------------------------------------
E_mon(orb) frag1 frag2             -10.801   -10.242 eV
J(AB):                0.026 eV
S(AB):            -0.00091327 Eh
|J(AB,eff)|:            0.016 eV
   
  Fragment 1 SOMO-3  Fragment 2 LUMO+1
--------------------------------------
E_mon(orb) frag1 frag2             -10.801   -10.168 eV
J(AB):                0.082 eV
S(AB):            -0.00322837 Eh
|J(AB,eff)|:            0.048 eV
   
  Fragment 1 SOMO-2  Fragment 2 SOMO-3
--------------------------------------
E_mon(orb) frag1 frag2             -10.598   -10.722 eV
J(AB):               -0.015 eV
S(AB):             0.00064674 Eh
|J(AB,eff)|:            0.008 eV
   
  Fragment 1 SOMO-2  Fragment 2 SOMO-2
--------------------------------------
E_mon(orb) frag1 frag2             -10.598   -10.608 eV
J(AB):                0.008 eV
S(AB):            -0.00036842 Eh
|J(AB,eff)|:            0.005 eV
   
  Fragment 1 SOMO-2  Fragment 2 SOMO-1
--------------------------------------
E_mon(orb) frag1 frag2             -10.598   -10.556 eV
J(AB):               -0.030 eV
S(AB):             0.00120123 Eh
|J(AB,eff)|:            0.017 eV
   
  Fragment 1 SOMO-2  Fragment 2 SOMO 
--------------------------------------
E_mon(orb) frag1 frag2             -10.598   -10.557 eV
J(AB):               -0.018 eV
S(AB):             0.00071661 Eh
|J(AB,eff)|:            0.010 eV
   
  Fragment 1 SOMO-2  Fragment 2 LUMO 
--------------------------------------
E_mon(orb) frag1 frag2             -10.598   -10.242 eV
J(AB):               -0.012 eV
S(AB):             0.00049112 Eh
|J(AB,eff)|:            0.007 eV
   
  Fragment 1 SOMO-2  Fragment 2 LUMO+1
--------------------------------------
E_mon(orb) frag1 frag2             -10.598   -10.168 eV
J(AB):                0.023 eV
S(AB):            -0.00097192 Eh
|J(AB,eff)|:            0.013 eV
   
  Fragment 1 SOMO-1  Fragment 2 SOMO-3
--------------------------------------
E_mon(orb) frag1 frag2             -10.589   -10.722 eV
J(AB):                0.081 eV
S(AB):            -0.00326501 Eh
|J(AB,eff)|:            0.046 eV
   
  Fragment 1 SOMO-1  Fragment 2 SOMO-2
--------------------------------------
E_mon(orb) frag1 frag2             -10.589   -10.608 eV
J(AB):               -0.030 eV
S(AB):             0.00120901 Eh
|J(AB,eff)|:            0.017 eV
   
  Fragment 1 SOMO-1  Fragment 2 SOMO-1
--------------------------------------
E_mon(orb) frag1 frag2             -10.589   -10.556 eV
J(AB):                0.071 eV
S(AB):            -0.00285131 Eh
|J(AB,eff)|:            0.041 eV
   
  Fragment 1 SOMO-1  Fragment 2 SOMO 
--------------------------------------
E_mon(orb) frag1 frag2             -10.589   -10.557 eV
J(AB):                0.033 eV
S(AB):            -0.00137618 Eh
|J(AB,eff)|:            0.018 eV
   
  Fragment 1 SOMO-1  Fragment 2 LUMO 
--------------------------------------
E_mon(orb) frag1 frag2             -10.589   -10.242 eV
J(AB):                0.044 eV
S(AB):            -0.00177082 Eh
|J(AB,eff)|:            0.025 eV
   
  Fragment 1 SOMO-1  Fragment 2 LUMO+1
--------------------------------------
E_mon(orb) frag1 frag2             -10.589   -10.168 eV
J(AB):               -0.069 eV
S(AB):             0.00279024 Eh
|J(AB,eff)|:            0.040 eV
   
  Fragment 1 SOMO   Fragment 2 SOMO-3
--------------------------------------
E_mon(orb) frag1 frag2             -10.557   -10.722 eV
J(AB):               -0.056 eV
S(AB):             0.00230241 Eh
|J(AB,eff)|:            0.031 eV
   
  Fragment 1 SOMO   Fragment 2 SOMO-2
--------------------------------------
E_mon(orb) frag1 frag2             -10.557   -10.608 eV
J(AB):                0.002 eV
S(AB):             0.00003027 Eh
|J(AB,eff)|:            0.002 eV
   
  Fragment 1 SOMO   Fragment 2 SOMO-1
--------------------------------------
E_mon(orb) frag1 frag2             -10.557   -10.556 eV
J(AB):                0.041 eV
S(AB):            -0.00169989 Eh
|J(AB,eff)|:            0.024 eV
   
  Fragment 1 SOMO   Fragment 2 SOMO 
--------------------------------------
E_mon(orb) frag1 frag2             -10.557   -10.557 eV
J(AB):                0.038 eV
S(AB):            -0.00154874 Eh
|J(AB,eff)|:            0.022 eV
   
  Fragment 1 SOMO   Fragment 2 LUMO 
--------------------------------------
E_mon(orb) frag1 frag2             -10.557   -10.242 eV
J(AB):               -0.026 eV
S(AB):             0.00094355 Eh
|J(AB,eff)|:            0.017 eV
   
  Fragment 1 SOMO   Fragment 2 LUMO+1
--------------------------------------
E_mon(orb) frag1 frag2             -10.557   -10.168 eV
J(AB):               -0.038 eV
S(AB):             0.00149489 Eh
|J(AB,eff)|:            0.022 eV
   
  Fragment 1 LUMO   Fragment 2 SOMO-3
--------------------------------------
E_mon(orb) frag1 frag2             -10.256   -10.722 eV
J(AB):               -0.055 eV
S(AB):             0.00212012 Eh
|J(AB,eff)|:            0.033 eV
   
  Fragment 1 LUMO   Fragment 2 SOMO-2
--------------------------------------
E_mon(orb) frag1 frag2             -10.256   -10.608 eV
J(AB):                0.002 eV
S(AB):             0.00000440 Eh
|J(AB,eff)|:            0.002 eV
   
  Fragment 1 LUMO   Fragment 2 SOMO-1
--------------------------------------
E_mon(orb) frag1 frag2             -10.256   -10.556 eV
J(AB):               -0.027 eV
S(AB):             0.00097295 Eh
|J(AB,eff)|:            0.017 eV
   
  Fragment 1 LUMO   Fragment 2 SOMO 
--------------------------------------
E_mon(orb) frag1 frag2             -10.256   -10.557 eV
J(AB):               -0.008 eV
S(AB):             0.00024939 Eh
|J(AB,eff)|:            0.005 eV
   
  Fragment 1 LUMO   Fragment 2 LUMO 
--------------------------------------
E_mon(orb) frag1 frag2             -10.256   -10.242 eV
J(AB):               -0.052 eV
S(AB):             0.00227505 Eh
|J(AB,eff)|:            0.028 eV
   
  Fragment 1 LUMO   Fragment 2 LUMO+1
--------------------------------------
E_mon(orb) frag1 frag2             -10.256   -10.168 eV
J(AB):                0.086 eV
S(AB):            -0.00351961 Eh
|J(AB,eff)|:            0.050 eV
   
  Fragment 1 LUMO+1  Fragment 2 SOMO-3
--------------------------------------
E_mon(orb) frag1 frag2             -10.166   -10.722 eV
J(AB):                0.053 eV
S(AB):            -0.00199687 Eh
|J(AB,eff)|:            0.032 eV
   
  Fragment 1 LUMO+1  Fragment 2 SOMO-2
--------------------------------------
E_mon(orb) frag1 frag2             -10.166   -10.608 eV
J(AB):               -0.024 eV
S(AB):             0.00093457 Eh
|J(AB,eff)|:            0.014 eV
   
  Fragment 1 LUMO+1  Fragment 2 SOMO-1
--------------------------------------
E_mon(orb) frag1 frag2             -10.166   -10.556 eV
J(AB):                0.036 eV
S(AB):            -0.00131955 Eh
|J(AB,eff)|:            0.023 eV
   
  Fragment 1 LUMO+1  Fragment 2 SOMO 
--------------------------------------
E_mon(orb) frag1 frag2             -10.166   -10.557 eV
J(AB):                0.007 eV
S(AB):            -0.00017210 Eh
|J(AB,eff)|:            0.005 eV
   
  Fragment 1 LUMO+1  Fragment 2 LUMO 
--------------------------------------
E_mon(orb) frag1 frag2             -10.166   -10.242 eV
J(AB):                0.080 eV
S(AB):            -0.00326113 Eh
|J(AB,eff)|:            0.046 eV
   
  Fragment 1 LUMO+1  Fragment 2 LUMO+1
--------------------------------------
E_mon(orb) frag1 frag2             -10.166   -10.168 eV
J(AB):               -0.067 eV
S(AB):             0.00288728 Eh
|J(AB,eff)|:            0.038 eV
   
..............................................................................
:  total |J(AB,eff)| for hole transport (occ. MOs) :               0.087 eV  :
:  total |J(AB,eff)| for charge transport (unocc. MOs) :           0.083 eV  :
:  total |J(AB,eff)| for charge transfer (CT) :                    0.095 eV  :
..............................................................................
  
 Please remember, DIPRO is not available for restart!
   
normal termination of dipro
----------------------------------------------------------
 * finished run on 2025/03/17 at 18:42:09.888     
----------------------------------------------------------
 dipro:
 * wall-time:     0 d,  0 h,  0 min, 22.009 sec
 *  cpu-time:     0 d,  0 h,  1 min, 12.925 sec
 * ratio c/w:     3.313 speedup
Reorganization energy (electron): 0.07179173710812928 eV
Reorganization energy (hole): 0.07585294922313045 eV
Electron Transfer integral J: 0.083 eV
Hole Transfer integral J: 0.087 eV
