202
 energy: -401.103836114483 gnorm: 0.237011544002 xtb: 6.7.1 (edcfbbe)
C            0.39450000000000        3.85230000000000        1.49990000000000
C            0.56940000000000        2.94570000000000        2.53950000000000
C            1.88820000000000        2.68900000000000        3.04070000000000
C            2.89340000000000        3.65410000000000        2.73330000000000
C            2.64950000000000        4.59310000000000        1.71660000000000
C            1.43350000000000        4.67070000000000        1.08070000000000
C            2.21840000000000        1.60110000000000        3.92250000000000
C            3.36420000000000        1.81240000000000        4.70920000000000
C            4.19810000000000        2.94770000000000        4.47980000000000
N            4.03000000000000        3.78730000000000        3.44420000000000
C            1.64920000000000        0.27650000000000        3.96330000000000
C            2.21790000000000       -0.64590000000000        4.90120000000000
N            3.10790000000000       -0.30280000000000        5.86180000000000
C            3.71730000000000        0.88540000000000        5.73080000000000
C            4.78960000000000        1.18840000000000        6.57860000000000
C            5.55640000000000        2.32190000000000        6.39070000000000
C            5.27790000000000        3.17010000000000        5.33850000000000
C            0.75050000000000       -0.27120000000000        2.97490000000000
C            0.65490000000000       -1.65260000000000        2.84030000000000
C            1.24550000000000       -2.53280000000000        3.72860000000000
C            1.95320000000000       -2.02390000000000        4.78560000000000
O           -0.53770000000000        2.41610000000000        3.16730000000000
O           -0.05200000000000        0.42120000000000        2.08780000000000
C            1.18840000000000        5.73170000000000        0.07980000000000
C            1.08910000000000       -3.99160000000000        3.53090000000000
C            6.67980000000000        2.64690000000000        7.29390000000000
C           -2.02830000000000       -1.48610000000000        3.97340000000000
C           -2.54350000000000       -0.60230000000000        3.04180000000000
C           -3.36010000000000       -1.08060000000000        1.96670000000000
C           -3.51550000000000       -2.49650000000000        1.85450000000000
C           -2.89060000000000       -3.34780000000000        2.78630000000000
C           -2.18650000000000       -2.84940000000000        3.85240000000000
C           -4.18480000000000       -0.23660000000000        1.14590000000000
C           -5.17820000000000       -0.89430000000000        0.40030000000000
C           -5.14860000000000       -2.31080000000000        0.24910000000000
N           -4.30470000000000       -3.09600000000000        0.93700000000000
C           -4.27270000000000        1.20400000000000        1.14800000000000
C           -5.53070000000000        1.78520000000000        0.79990000000000
N           -6.49250000000000        1.13300000000000        0.11850000000000
C           -6.25660000000000       -0.15640000000000       -0.17420000000000
C           -7.17200000000000       -0.82820000000000       -0.99080000000000
C           -7.07790000000000       -2.18620000000000       -1.22030000000000
C           -6.08850000000000       -2.91800000000000       -0.59180000000000
C           -3.19520000000000        2.12310000000000        1.43010000000000
C           -3.50060000000000        3.43480000000000        1.79030000000000
C           -4.79370000000000        3.92540000000000        1.67100000000000
C           -5.76900000000000        3.12780000000000        1.12600000000000
O           -2.20100000000000        0.70690000000000        3.26850000000000
O           -1.86700000000000        1.77210000000000        1.25300000000000
C           -1.57370000000000       -3.69280000000000        4.89450000000000
C           -5.15100000000000        5.30500000000000        2.05930000000000
C           -8.07530000000000       -2.84820000000000       -2.09030000000000
B           -1.15780000000000        1.32750000000000        2.44800000000000
O            7.37260000000000        3.61710000000000        7.05470000000000
O            6.86830000000000        1.83450000000000        8.37250000000000
C            7.93370000000000        2.32030000000000        9.12330000000000
O            0.35560000000000       -4.35210000000000        2.43690000000000
C            0.23860000000000       -5.73500000000000        2.38000000000000
O            1.59250000000000       -4.78400000000000        4.30260000000000
O           -0.95500000000000       -3.13590000000000        5.78150000000000
O           -1.71420000000000       -5.04560000000000        4.81800000000000
C           -1.02680000000000       -5.59690000000000        5.89010000000000
O           -8.78210000000000       -2.17410000000000       -2.81410000000000
O           -8.14620000000000       -4.20940000000000       -2.01880000000000
C           -9.10440000000000       -4.66590000000000       -2.91750000000000
O           -6.30480000000000        5.66700000000000        1.92800000000000
O           -4.16590000000000        6.10120000000000        2.56200000000000
C           -4.73870000000000        7.29710000000000        2.98210000000000
O            2.12510000000000        6.26040000000000       -0.48530000000000
O           -0.11690000000000        6.07380000000000       -0.12460000000000
C           -0.18520000000000        7.07930000000000       -1.08180000000000
H           -8.81210000000000       -4.36000000000000       -3.92540000000000
H          -10.06790000000000       -4.21520000000000       -2.66600000000000
H           -9.16600000000000       -5.75440000000000       -2.85600000000000
H           -3.97190000000000        7.93380000000000        3.42740000000000
H           -5.51270000000000        7.05890000000000        3.72000000000000
H           -5.19450000000000        7.79200000000000        2.12060000000000
H           -1.23050000000000        7.35510000000000       -1.23720000000000
H            0.25090000000000        6.70670000000000       -2.01230000000000
H            0.38750000000000        7.94100000000000       -0.72880000000000
H           -0.91930000000000       -6.67450000000000        5.74860000000000
H           -1.58750000000000       -5.37800000000000        6.80200000000000
H           -0.04900000000000       -5.10290000000000        5.94050000000000
H           -0.35980000000000       -6.06710000000000        3.23150000000000
H            1.23670000000000       -6.17740000000000        2.42920000000000
H           -0.25270000000000       -6.01110000000000        1.44460000000000
H            8.05210000000000        1.70490000000000       10.01780000000000
H            7.71780000000000        3.35760000000000        9.40260000000000
H            8.83940000000000        2.28660000000000        8.51250000000000
H           -7.99100000000000       -0.28330000000000       -1.42640000000000
H           -6.06260000000000       -3.98470000000000       -0.72000000000000
H           -6.74590000000000        3.54510000000000        0.95650000000000
H           -3.02270000000000       -4.41020000000000        2.69590000000000
H           -2.71860000000000        4.08160000000000        2.14340000000000
H           -1.47020000000000       -1.08730000000000        4.80380000000000
H           -0.58430000000000        3.97600000000000        1.07430000000000
H            0.04980000000000       -2.04620000000000        2.04380000000000
H            2.36250000000000       -2.70490000000000        5.51110000000000
H            3.41390000000000        5.30760000000000        1.46680000000000
H            5.90250000000000        4.03290000000000        5.18880000000000
H            5.03670000000000        0.51320000000000        7.37750000000000
C           -0.11150000000000        3.72480000000000        5.89150000000000
C            0.13320000000000        2.94980000000000        7.02490000000000
C            1.45720000000000        2.89340000000000        7.56550000000000
C            2.34630000000000        3.94560000000000        7.19440000000000
C            2.00620000000000        4.78480000000000        6.11830000000000
C            0.81400000000000        4.65630000000000        5.44810000000000
C            1.87770000000000        1.91520000000000        8.53190000000000
C            2.99380000000000        2.31070000000000        9.29350000000000
C            3.72220000000000        3.49640000000000        8.96820000000000
N            3.46590000000000        4.24160000000000        7.88050000000000
C            1.42130000000000        0.54970000000000        8.70460000000000
C            2.07430000000000       -0.21400000000000        9.72660000000000
N            2.93060000000000        0.29890000000000       10.63860000000000
C            3.43060000000000        1.51620000000000       10.38890000000000
C            4.48820000000000        1.96880000000000       11.18340000000000
C            5.17530000000000        3.12540000000000       10.87900000000000
C            4.80630000000000        3.86580000000000        9.77320000000000
C            0.56560000000000       -0.19860000000000        7.80480000000000
C            0.61520000000000       -1.59270000000000        7.81290000000000
C            1.33240000000000       -2.30950000000000        8.75350000000000
C            1.97500000000000       -1.61700000000000        9.74500000000000
O           -0.90560000000000        2.36790000000000        7.71910000000000
O           -0.31700000000000        0.29090000000000        6.86280000000000
C            0.45960000000000        5.58860000000000        4.35640000000000
C            1.54500000000000       -3.77330000000000        8.61330000000000
C            6.34980000000000        3.51780000000000       11.68770000000000
C           -2.47280000000000       -1.59210000000000        8.42160000000000
C           -2.98650000000000       -0.63310000000000        7.55850000000000
C           -3.86070000000000       -1.02270000000000        6.48290000000000
C           -4.13540000000000       -2.42250000000000        6.37130000000000
C           -3.54130000000000       -3.34340000000000        7.25390000000000
C           -2.71490000000000       -2.94060000000000        8.26890000000000
C           -4.56120000000000       -0.13110000000000        5.58800000000000
C           -5.54470000000000       -0.71110000000000        4.76930000000000
C           -5.65780000000000       -2.12660000000000        4.67900000000000
N           -4.95060000000000       -2.96570000000000        5.44570000000000
C           -4.47120000000000        1.30210000000000        5.47660000000000
C           -5.56640000000000        2.02280000000000        4.90530000000000
N           -6.51450000000000        1.43960000000000        4.14790000000000
C           -6.43860000000000        0.10540000000000        4.00920000000000
C           -7.32840000000000       -0.51420000000000        3.12370000000000
C           -7.37690000000000       -1.88690000000000        2.98840000000000
C           -6.56020000000000       -2.67910000000000        3.76680000000000
C           -3.31660000000000        2.08090000000000        5.83070000000000
C           -3.46710000000000        3.44470000000000        6.06840000000000
C           -4.62860000000000        4.11190000000000        5.71480000000000
C           -5.63010000000000        3.41890000000000        5.07570000000000
O           -2.55900000000000        0.64240000000000        7.86220000000000
O           -2.05430000000000        1.52620000000000        5.80450000000000
C           -2.02270000000000       -3.88190000000000        9.17680000000000
C           -4.73350000000000        5.56440000000000        5.96850000000000
C           -8.29300000000000       -2.51300000000000        2.01440000000000
B           -1.45050000000000        1.20160000000000        7.07750000000000
O            7.13860000000000        4.33220000000000       11.24970000000000
O            6.48600000000000        2.90040000000000       12.89720000000000
C            7.61870000000000        3.38380000000000       13.54240000000000
O            1.58810000000000       -4.24110000000000        7.33060000000000
C            2.05350000000000       -5.55200000000000        7.30460000000000
O            1.74070000000000       -4.46910000000000        9.59000000000000
O           -1.52930000000000       -3.44180000000000       10.19770000000000
O           -1.93550000000000       -5.19130000000000        8.80650000000000
C           -1.16620000000000       -5.86390000000000        9.75070000000000
O           -8.96240000000000       -1.81410000000000        1.27970000000000
O           -8.31060000000000       -3.87860000000000        1.99600000000000
C           -9.12950000000000       -4.32200000000000        0.96530000000000
O           -5.69700000000000        6.19020000000000        5.57540000000000
O           -3.69730000000000        6.11830000000000        6.66350000000000
C           -3.93300000000000        7.47140000000000        6.87600000000000
O            1.29640000000000        6.35000000000000        3.91450000000000
O           -0.83240000000000        5.54010000000000        3.91880000000000
C           -1.03530000000000        6.48470000000000        2.92010000000000
H           -8.61510000000000       -4.12950000000000        0.02160000000000
H          -10.07300000000000       -3.77010000000000        0.99590000000000
H           -9.30810000000000       -5.39260000000000        1.08520000000000
H           -3.16220000000000        7.86260000000000        7.54360000000000
H           -4.92110000000000        7.59050000000000        7.32810000000000
H           -3.89890000000000        7.99380000000000        5.91820000000000
H           -2.09190000000000        6.47880000000000        2.64610000000000
H           -0.42250000000000        6.22040000000000        2.05640000000000
H           -0.74040000000000        7.46720000000000        3.29580000000000
H           -1.00760000000000       -6.89420000000000        9.42570000000000
H           -1.69250000000000       -5.84340000000000       10.70850000000000
H           -0.20910000000000       -5.33960000000000        9.85170000000000
H            1.31740000000000       -6.20780000000000        7.77340000000000
H            2.99490000000000       -5.60210000000000        7.85680000000000
H            2.21500000000000       -5.83540000000000        6.26060000000000
H            7.69940000000000        2.91000000000000       14.52310000000000
H            7.52420000000000        4.46720000000000       13.65220000000000
H            8.49810000000000        3.15220000000000       12.93680000000000
H           -7.98490000000000        0.09170000000000        2.52490000000000
H           -6.62390000000000       -3.74800000000000        3.67260000000000
H           -6.48270000000000        3.95830000000000        4.70270000000000
H           -3.73930000000000       -4.39100000000000        7.11820000000000
H           -2.66320000000000        4.00670000000000        6.50670000000000
H           -1.83230000000000       -1.26930000000000        9.22310000000000
H           -1.03880000000000        3.62450000000000        5.35770000000000
H            0.06430000000000       -2.13220000000000        7.06120000000000
H            2.52690000000000       -2.16670000000000       10.48700000000000
H            2.69090000000000        5.55730000000000        5.81700000000000
H            5.38230000000000        4.73520000000000        9.51000000000000
H            4.80760000000000        1.37420000000000       12.02020000000000
202
 energy: -401.160378808698 gnorm: 0.114173328540 xtb: 6.7.1 (edcfbbe)
C            0.38273815519957        3.85439272083178        1.51708001848638
C            0.55511431140914        2.94851107863429        2.55465602409179
C            1.86302540895901        2.69240010833379        3.05085611279309
C            2.88382307064643        3.65252049367033        2.73793459400509
C            2.65469577562882        4.59718888775444        1.71695661076010
C            1.43286936167967        4.67021667372918        1.09034911128860
C            2.20564117813586        1.60263074983284        3.91841966618782
C            3.35430278462539        1.81339594934287        4.70686471231074
C            4.18974150981746        2.94825234712731        4.47910196210830
N            4.01337075486158        3.77415505746343        3.44355498013219
C            1.63737085680274        0.28205634667419        3.94275145413009
C            2.21165395130084       -0.64174920810419        4.88891413768213
N            3.09845776687322       -0.29952765178163        5.83949154272610
C            3.70870192748577        0.88163605560627        5.72504384681256
C            4.78046881860201        1.18071349213243        6.58655601431216
C            5.54692236901721        2.31859216577094        6.39410971317354
C            5.27577917825437        3.17535440284439        5.33756683847561
C            0.72348202409908       -0.26075349386174        2.97422637250806
C            0.63847140538992       -1.64289988550499        2.83752961654203
C            1.24506194267378       -2.52600156086034        3.72656191110565
C            1.94979133171219       -2.02471294778244        4.79275877032057
O           -0.53155125044151        2.41937172536827        3.17028929061097
O           -0.04874852946491        0.41267854510555        2.08346068434431
C            1.21082622176590        5.72445598721021        0.07543927243525
C            1.09761433321787       -3.98506145861719        3.54200509010046
C            6.67895182654364        2.66024669950020        7.28281733213677
C           -2.02090866166292       -1.48208923286709        3.97134731995768
C           -2.52759617057206       -0.59186725299678        3.04078277056222
C           -3.35576510010478       -1.06393759432596        1.97903374371468
C           -3.51908055238311       -2.48832305873665        1.85989015683483
C           -2.89423870314085       -3.35818171422304        2.77810023759503
C           -2.19408259453008       -2.85617894975818        3.84452373339599
C           -4.17941155763397       -0.22922700612112        1.15202738390677
C           -5.17479340727721       -0.89047033621517        0.40512093221831
C           -5.14721822404783       -2.30836439511456        0.25823650871466
N           -4.30465927671339       -3.07916317930272        0.94711209984867
C           -4.24921391624405        1.20643350938564        1.14634766414657
C           -5.52020040520489        1.78235782352640        0.80209536833022
N           -6.47195303360572        1.12715157600066        0.12745786693020
C           -6.25387973642305       -0.15568510247073       -0.17069082908888
C           -7.17741696943607       -0.82405952919659       -0.98906633195712
C           -7.07524604265442       -2.18877255934089       -1.21442396472309
C           -6.08541832933530       -2.92742254722376       -0.58671346601254
C           -3.17951295274992        2.11587980189457        1.42249289213599
C           -3.48650790452450        3.42579642379051        1.78094128403345
C           -4.78979716625531        3.91752502122179        1.67042662117438
C           -5.77336851304363        3.12684256427684        1.12594999032728
O           -2.20371637063986        0.69759110762816        3.27214682638966
O           -1.87507962734925        1.76067982736664        1.24884522299873
C           -1.57732774625036       -3.68145055159729        4.89277872901511
C           -5.16960495273517        5.29368210155033        2.05558071020933
C           -8.07443227513420       -2.82778270442613       -2.09982688427028
B           -1.15686723915362        1.32374545751190        2.45121375782902
O            7.37914792345585        3.61756357711575        7.05716507043107
O            6.86146696292229        1.85339423089808        8.34937736743565
C            7.94062043450356        2.31787604106984        9.12517901067266
O            0.37084951041452       -4.34417194982473        2.46141249425256
C            0.23833949942804       -5.74113837402199        2.37607632043882
O            1.59356471820504       -4.78815923837336        4.29750391725291
O           -0.95851078975563       -3.14481422687826        5.78571548944310
O           -1.71065722949011       -5.01594626284705        4.81242975410416
C           -1.02565856391537       -5.60945346826639        5.89020212799378
O           -8.78422078311344       -2.17344851562198       -2.82271124352041
O           -8.13747572135101       -4.17813301428455       -2.03446799953899
C           -9.10776658306806       -4.67073636120147       -2.92525015231376
O           -6.30915153649080        5.67446163097180        1.92849999037798
O           -4.19318082964239        6.07989938979426        2.55620496290695
C           -4.74075487920707        7.30645155901863        2.98126067933399
O            2.12840630130980        6.26229574411040       -0.49421597837606
O           -0.08377131373210        6.06108747102118       -0.12888476550983
C           -0.18682148449179        7.08314507379053       -1.08839042861195
H           -8.83189317258004       -4.37355314828562       -3.93982849416981
H          -10.07725352699210       -4.22886388796897       -2.68012963094170
H           -9.15301119791048       -5.75535120279129       -2.84509883598806
H           -3.95818615422303        7.92451978229257        3.41884907684033
H           -5.51837780672405        7.09404145142446        3.72088537788273
H           -5.19619187990593        7.81324918696173        2.12746077253270
H           -1.23513594778261        7.34308218931846       -1.22617291952066
H            0.24494737932878        6.72820042488805       -2.02743105336608
H            0.38010460239193        7.95308092792807       -0.74599260836595
H           -0.93263807526115       -6.68121476225099        5.73032559220427
H           -1.57480855106561       -5.40107004916421        6.80920121391032
H           -0.04150070834098       -5.13735128162042        5.95912039003291
H           -0.36005439106456       -6.09071238275557        3.22008845771823
H            1.22974975877412       -6.19943348053515        2.42348621013859
H           -0.25343032226128       -5.99562118380508        1.43895445859783
H            8.04170225937709        1.69217351903806       10.01052796511982
H            7.74767735260748        3.35528905752031        9.41218032755221
H            8.85425935721468        2.28666681730945        8.52730390670613
H           -7.99488791188419       -0.27527163685032       -1.42720010695673
H           -6.05069515961850       -3.99584013234049       -0.71791077322238
H           -6.75211336839464        3.54174071677321        0.94859516425311
H           -3.03044275845869       -4.42057707638681        2.67955953210289
H           -2.70464243505236        4.07349165072638        2.13959920101459
H           -1.46655718816430       -1.08122285417932        4.80598782140370
H           -0.59337943837588        3.96597176936039        1.07628412835038
H            0.04527851016146       -2.03842301202500        2.03070423586378
H            2.36904312626566       -2.70096791771096        5.51995276016319
H            3.42407194420247        5.30970259895966        1.47025528454354
H            5.90442272653356        4.03766721636174        5.18302173484401
H            5.02896367947365        0.49984225723570        7.38316339018911
C           -0.12222644847158        3.72210281543094        5.90543080751679
C            0.11981854197911        2.95521339753101        7.04055911732887
C            1.43510534659166        2.89337236552423        7.57197687039196
C            2.34255944711657        3.93975350694166        7.19414388082186
C            2.01442033560788        4.78620366181626        6.11498120048856
C            0.81595980079814        4.64953811403236        5.45362396060405
C            1.86849895921737        1.91393566564063        8.52550403035952
C            2.98860004556398        2.30727620493997        9.28835728602179
C            3.71898355159026        3.49186097862279        8.96481814067206
N            3.45534773279179        4.22591924050511        7.87935527624308
C            1.41228822846152        0.55281441364797        8.68203118618057
C            2.07216621822012       -0.21247333562761        9.71221120763511
N            2.92499164696357        0.29710570884992       10.61358228978971
C            3.42682341877306        1.50890122298402       10.38203450879333
C            4.48272361701932        1.95852452891385       11.19128871218470
C            5.16790535122333        3.12091807845432       10.88310364915451
C            4.80776024633238        3.86689330434705        9.76984129445860
C            0.54303539969848       -0.18865913352170        7.80321572009010
C            0.61288699389554       -1.58316115666964        7.80520821201140
C            1.34507830157092       -2.30161793137551        8.74343388698025
C            1.97730496663646       -1.61889257398354        9.75080134850075
O           -0.89633812938823        2.37257846140482        7.72438756307783
O           -0.31054124918306        0.28536080671238        6.85982282644912
C            0.47949795156527        5.58207127391885        4.35491115497547
C            1.54740710189671       -3.76610627849095        8.62901580888309
C            6.34563756696015        3.53093088991928       11.67967987797470
C           -2.46879032316718       -1.58850136104496        8.42072433707223
C           -2.97240327416870       -0.62387242220458        7.56003137327691
C           -3.84910634914350       -1.00481367736682        6.49239859132009
C           -4.13070983265683       -2.41380832155042        6.37337077580651
C           -3.53973098915242       -3.35288478248973        7.24439098657866
C           -2.71582232441972       -2.94603993228880        8.26062796654103
C           -4.54878138245996       -0.12459622237871        5.58923049309796
C           -5.53752433256733       -0.70832303714137        4.77124552177355
C           -5.65373923775602       -2.12496275328616        4.68484431194033
N           -4.94441425188359       -2.94871573625082        5.45360220647545
C           -4.44592197421320        1.30176723723273        5.47386727677777
C           -5.55554224020260        2.02001229544290        4.90654342364792
N           -6.49660015974625        1.43305069063116        4.15917328815873
C           -6.43175367580169        0.10606150200520        4.00987290736139
C           -7.32769624891742       -0.50930167336379        3.12000439510667
C           -7.37218678041940       -1.88993870101723        2.99170040427502
C           -6.55511634740535       -2.68971760708169        3.76980022566467
C           -3.29662279510539        2.07166948453399        5.81611575311572
C           -3.45248895090169        3.43221234476555        6.06263019459939
C           -4.62675245827560        4.10138280228913        5.71753400883974
C           -5.63430169394318        3.41967879865563        5.07326208949963
O           -2.55724205669776        0.63281540153937        7.86605662615635
O           -2.06505527257476        1.51476448177505        5.79785724776158
C           -2.02531580973168       -3.86389983012083        9.19095206891971
C           -4.74785029512754        5.55399420580236        5.96486415771182
C           -8.29524758199962       -2.49571508998483        2.01117360036515
B           -1.44852960759215        1.20114865450536        7.07611905851036
O            7.13584622770025        4.34562656885519       11.26360965800002
O            6.48107659241063        2.91663905714948       12.87288574698252
C            7.62263537974950        3.38444316849390       13.54795216408733
O            1.59734220261695       -4.22634412549372        7.36170114488807
C            2.05668735472004       -5.55608524082666        7.30586653845781
O            1.74562372489198       -4.47023302242814        9.59092151141006
O           -1.52608960912386       -3.44204933696002       10.20707864841494
O           -1.94245276339936       -5.16050635207549        8.82451868164711
C           -1.16583080436068       -5.87327479681942        9.75891766060519
O           -8.96224779924042       -1.81543620287320        1.26741006005462
O           -8.31255148558942       -3.84530016922391        1.99894869303362
C           -9.13604830966253       -4.32892306239500        0.96707562344280
O           -5.70242270900299        6.19184077491004        5.58554703410733
O           -3.72183886248139        6.10420977489661        6.64989174136084
C           -3.93224408298460        7.47514654839584        6.87801514378262
O            1.29702980944878        6.35052257228763        3.90367569878855
O           -0.80225535794280        5.54275189948963        3.93605738466984
C           -1.03764343522174        6.49011297450523        2.92318794815432
H           -8.63460129600688       -4.14714207898540        0.01700811189356
H          -10.08575933593274       -3.78768991550282        0.98144207924371
H           -9.30023253261285       -5.39592684875894        1.10351723328771
H           -3.15500760487670        7.84813353949911        7.54349259632815
H           -4.91757965790032        7.61455573257319        7.33094117001562
H           -3.90133967845591        8.01137384881188        5.92651744666914
H           -2.09202726609993        6.46904825931335        2.65944999403045
H           -0.43238901430762        6.24075090687510        2.05194567499665