116
 energy: -22.928061455056 gnorm: 0.329736929581 xtb: 6.6.1 (8d0f1dd)
C           -3.31122850772930        0.79849766164622       -0.92477639677520
C           -2.44380812530352       -0.12270372891954       -0.27661132624697
C           -1.41337090092821        0.39579727573559        0.56335275196199
C           -0.89266158675590        1.65801491088749        0.27377586709581
C           -1.72665675402493        2.51431363229076       -0.49448366572522
C           -2.95444148494349        2.13954154133227       -1.01494489940871
C           -0.74098268209890       -0.43411532818871        1.49825021926784
C            0.56872586496315        0.03782116815119        1.86248088067890
C            1.03782416582094        1.29402317993033        1.50887470833621
N            0.31238977034758        2.07067427098208        0.65193736800696
C           -1.29695700510141       -1.39996043042223        2.41574187746061
C           -0.38243517664656       -2.18060797534842        3.13232615520648
N            0.91308504082021       -1.90366887689689        3.30325166013478
C            1.37712470144904       -0.74872102533751        2.81811050966982
C            2.52149331701875       -0.17739833758153        3.39379298866852
C            2.95849061756259        1.02681208890480        2.95105897606587
C            2.24288949469137        1.78498308775960        2.03503020483770
C           -2.74860936222260       -1.74497937691422        2.38401158947411
C           -3.09416315450955       -2.91614440870436        3.00571134491758
C           -2.16786021984049       -3.77788778654213        3.63251872101904
C           -0.85708937311598       -3.40495313382985        3.68547234358092
O           -3.71994433332149       -0.94984598373544        1.67726658385724
O           -2.55702603277562       -1.47241711578389       -0.57241635275616
C           -3.84297843593025        3.13357444054366       -1.60938954875544
C           -2.68769581069131       -5.03867041417370        4.30484659386931
H           -1.39666850744143        3.51251503834900       -0.76806311868865
H           -4.27662633836220        0.55105838579656       -1.33106614114542
H            2.66329581305412        2.73912661909249        1.72562431984580
H            3.05775395548473       -0.69369546277216        4.16536137542516
H           -0.24710966264510       -4.12034095424229        4.22946223699121
H           -4.11477991332403       -3.04712728052358        3.03244694615357
O           -4.21824883374556        4.03433712717988       -0.87713382485991
O           -4.44510595673734        2.90643496899600       -2.81853501752979
C           -5.44216520282800        3.83300025693726       -3.02488532025093
C            4.23586651889298        1.50004220933226        3.59165660008449
O            5.05927614697201        0.66079890002952        3.91714215179376
O            4.47001334453535        2.86385149488593        3.72605651435371
C            5.79457498613219        3.08584475587818        4.15829123132174
O           -3.82227255313510       -5.27347675879771        4.16636005494405
O           -1.85023202017753       -5.79767454267276        5.06656077253571
C           -2.55119635829503       -6.86252441382958        5.62930343183426
C           -5.07197156564436       -1.42399175670916        1.58830531863830
C           -1.33089900128490       -2.23622472573986       -0.99264499351172
H           -2.54510546830388       -7.76426885143998        4.99136022291012
H           -3.57194749219491       -6.44405511486021        5.74196173723541
H           -2.09133598235598       -7.02043774843818        6.64022264233588
H            5.72707967266424        3.46798026205549        5.10135971236643
H            6.34060091246885        3.78468702308830        3.50069950143490
H            6.17933064298187        2.03010500085905        4.19342358084693
H           -0.91862729772622       -2.57650129080332       -0.01361370304871
H           -0.49769766914251       -1.60651221708571       -1.34094446550576
H           -1.52632419730509       -2.94569707152159       -1.75361447637286
H           -5.11788846557077       -2.41810833635233        1.17520213188926
H           -5.67929807973498       -0.69619639428435        1.04301666067831
H           -5.57598832326623       -1.42383358739762        2.57928294206544
H           -6.13050215934830        3.76035386975488       -2.23272855695873
H           -5.86615610071888        3.45938329385866       -4.02668959924245
H           -5.13479557532099        4.87790991548477       -2.98314551356402
C           -1.38192942069774        3.73616555005018        2.91232598411686
C           -1.84821468128685        2.59982427735607        3.49755545445181
C           -1.05946531454833        2.05730632010638        4.60922730982276
C            0.19893954712228        2.69376791964407        4.86302140881997
C            0.50425395911860        3.94630308659851        4.28768785650746
C           -0.26031777722226        4.46998310053134        3.25072669343212
C           -1.20488993561782        0.74454293276906        5.14851520323437
C           -0.06287609782692        0.02744069315890        5.60930570802864
C            1.19208754369866        0.71421540266195        5.78882868583885
N            1.19428660993148        2.06344359410476        5.62744624321596
C           -2.41361422770794        0.07928500213936        5.25249410304426
C           -2.45851584031083       -1.32662100968547        5.60237876023992
N           -1.29466212405906       -1.98318595734370        5.89916817085159
C           -0.14475655767527       -1.32117560077092        5.98824682881008
C            0.97209270935794       -1.98958449505532        6.53157704134458
C            2.21982707914082       -1.36973967291181        6.68703967237737
C            2.30561929262884       -0.09745313075593        6.26436900324455
C           -3.73018485967715        0.71367583494582        5.25810242262992
C           -4.89964478833448       -0.06184623426677        5.21204641615509
C           -4.82617965800088       -1.39228978090841        5.46901303780036
C           -3.67144193418464       -1.98914944386360        5.67265433266067
O           -3.75568638935321        2.07705011038914        5.52067969627343
O           -2.94192434743730        1.91263938797883        3.01658762327703
C            0.21273512614467        5.50086066357994        2.34765104514621
C           -6.06660304520411       -2.17604633098929        5.80641622556876
H            1.41756699010566        4.38133362238595        4.66974005703471
H           -1.82880610647429        4.11982501512100        2.06992133318584
H            3.26888037378556        0.32655662585251        6.31721410015598
H            0.87146188387207       -3.08471526305024        6.57830423410869
H           -3.67716811065157       -3.05999292755990        5.83019634570050
H           -5.77379677507622        0.43595144608221        4.71017130754348
O            1.34459852619901        5.82615848916894        2.44941456579099
O           -0.74718748219123        6.07961784856304        1.59848183464284
C           -0.21473095568964        7.24015934882472        1.05753806029483
C            3.53228080814219       -2.00967610361154        7.02506769044485
O            3.64093082622715       -3.14437803815732        7.50071391725347
O            4.56565258381079       -1.22937033368332        6.69086985080897
C            5.72579357310716       -1.80692399125161        7.22246151275881
O           -7.04801223588612       -1.95726935745904        5.14194115322235
O           -6.01514389321278       -2.93743591896022        6.94765316328794
C           -7.21292732384718       -3.62681918543340        7.15115816329978
C           -4.95459780685163        2.65960679932188        5.86868674392943
C           -3.68284113682406        2.59129188358641        2.05479246020704
H           -7.43119628931628       -4.22607794725959        6.20622607140901
H           -8.06548455146707       -2.91765848248592        7.29781126410398
H           -7.07314693247270       -4.33087306029711        7.91223421050944
H            6.57332189837178       -1.29353136199234        6.78341268688262
H            5.74663761932316       -2.84282155125561        6.88089468184451
H            5.69426191474290       -1.72781984964892        8.29460302186842
H           -4.10481209541493        3.44288266176275        2.60483747673152
H           -4.49244774344916        1.87419893016926        1.82433103764650
H           -3.18901540870812        2.85154642679373        1.06781919454921
H           -5.55414326821421        2.76698137191684        4.93950725322359
H           -4.78658370641210        3.62090640967288        6.25983200635257
H           -5.43485580473958        1.97242995129449        6.65265772412460
H            0.89164886030839        7.38838561720231        1.13776105146914
H           -0.62894889903848        8.04195665205089        1.64837664327952
H           -0.59282546386754        7.45699159724320        0.03719083132488
116
 energy: -22.651629756838 gnorm: 0.538963442556 xtb: 6.6.1 (8d0f1dd)
C           -3.25496846739299        0.46658940993520       -1.32239912209273
C           -2.20352402195931       -0.43324678258697       -0.78744352127992
C           -1.43415169523912        0.18248683581404        0.26571090365459
C           -1.16426708039772        1.62596583259146        0.15596000933201
C           -1.96758177145354        2.44005365264574       -0.73730108979021
C           -3.12887638880763        1.92755371100829       -1.32303496931854
C           -0.57668944880607       -0.39006170850657        1.31639047403060
C            0.68982803659445        0.08970329769014        1.72509281043443
C            0.92183864988679        1.44445804371580        1.29013105026609
N            0.10629487366587        2.11961933050321        0.43313120119090
C           -0.93664476631146       -1.47857327509333        2.17475871235773
C           -0.00557233420516       -2.23998741466091        2.99361295677866
N            1.20167792915163       -1.78703425270034        3.37817505396534
C            1.40719934830309       -0.59940116556215        2.83651873298565
C            2.53062697537052        0.15222704955080        3.32890428420991
C            2.75910557313655        1.38947753685221        2.80901707474639
C            2.07315479882923        2.00053362459027        1.75422019424874
C           -2.32421254078975       -1.77135222545832        2.37645643231570
C           -2.79657683275989       -2.96366080828756        3.06470210703043
C           -1.78134509550745       -3.80832061930530        3.62561836895137
C           -0.42550171928188       -3.50137285225032        3.47817765083230
O           -3.30838073621805       -1.08984281786928        1.63708525269509
O           -2.39396938399632       -1.83945915276341       -0.92742732875079
C           -4.34969981959687        2.66566020043399       -1.44938135796128
C           -2.21243451413996       -4.99556699150599        4.36610676576736
H           -1.94160931005829        3.57020324345680       -0.49406568144348
H           -4.21071584400899       -0.05342420925033       -1.45432611333278
H            2.08105026331819        3.15013596192296        1.72171939063839
H            3.19357064726655       -0.52968492654526        4.01396694504833
H            0.21965177932093       -3.96196575408851        4.22642132956919
H           -3.84847234000013       -3.21592431026234        3.17664503310538
O           -4.33717630501424        3.65862063934227       -2.18148311460337
O           -5.35385939724654        1.97373081605580       -0.74300478715893
C           -6.47598403118829        2.83843144375501       -0.44054723210498
C            3.89097076905102        2.25644476308399        3.40006232024006
O            4.78259027175735        1.68611391519549        4.10413190078066
O            4.37928015794243        3.35260134294014        2.69980465742424
C            5.72411871779435        3.67663534169247        2.87745528456646
O           -3.33955579196008       -5.16475212614029        4.71173408177047
O           -1.27610456360647       -6.04790537503102        4.36733779559760
C           -1.64885078053891       -7.13236614602267        5.31774311427622
C           -4.49273291655879       -1.68856301644146        1.01953284691958
C           -1.16023852458765       -2.35763002934340       -1.41027918791374
H           -0.68799667937301       -7.32809748781742        5.78484906935856
H           -2.03830585614553       -7.96773917732949        4.66689070789546
H           -2.28212243055838       -6.80743125849345        6.03143345991215
H            5.80202052766471        4.56181979315107        3.49227663370197
H            6.09018330613196        3.98958700361863        1.83463249429188
H            6.24960131959684        2.87917418230531        3.56163173839221
H           -0.42511690235303       -2.05886390915661       -0.82411603240459
H           -1.05948091793220       -1.81924420783203       -2.42355463909517
H           -1.39107873102719       -3.37780627040196       -1.66574937059825
H           -3.93919309108524       -2.51439484720232        0.66468171559739
H           -4.79399824031428       -1.00912902883612        0.22418577995380
H           -5.19232561917862       -1.84298857146123        1.73642701101657
H           -7.02898379425671        2.28353409188622        0.35017616587986
H           -6.90465245138089        3.03941468847213       -1.50731880004725
H           -6.20551608536539        3.77237906135478        0.03463688315930
C           -1.28770224559323        3.46360401842885        2.93139394690543
C           -1.69964551777172        2.54792803813991        3.89846353599901
C           -0.86847671931085        2.28130291261252        5.05526101463609
C            0.44954411823075        2.82280079895982        5.08515354057284
C            0.77857870852337        3.79328468346563        4.27043641165026
C           -0.09418378926661        4.14958510958340        3.16030217963033
C           -1.25198965897095        1.18620098596092        5.82776172799941
C           -0.19235289674914        0.43673466389963        6.33916167197404
C            1.15420902808062        0.82035920330379        5.90879563711705
N            1.38491930251988        2.11559548124349        5.76494851102557
C           -2.59487838940957        0.58204781955080        6.11513599679323
C           -2.75749905070939       -0.78167429863333        6.23534600140947
N           -1.63356139655318       -1.51149013900392        6.57415919314810
C           -0.38353730867962       -0.96866753665996        6.66336821771669
C            0.70652890372468       -1.68592173332976        7.16054316307847
C            2.02959532376974       -1.23507707330796        7.25856977094267
C            2.27237891165629        0.00680503083581        6.64651673505703
C           -3.78275909255160        1.49463329935733        6.20546609752607
C           -4.98158372233952        0.98452278899944        5.65863275542548
C           -5.04794919745286       -0.34287283349646        5.36946812603824
C           -4.03513119560122       -1.26066466379381        5.84624141631292
O           -3.60442961583025        2.69045427320853        7.03250436921335
O           -2.74719085479973        1.69662018369606        3.63447088739633
C            0.28092392466968        4.99580644510181        2.00671268154874
C           -6.39320161417058       -0.94283187629997        4.87666430004217
H            1.78820557359730        4.10920443272216        4.24670484494665
H           -1.86359942791836        3.49945985406517        2.04703605628901
H            3.21773304579727        0.35135449977841        6.50067943874648
H            0.48932440744462       -2.69163552839249        7.61585736315156
H           -4.38504920940102       -2.17834623514454        6.13060026235208
H           -5.78237425887789        1.62873467519342        5.24974931082639
O            1.45764274799630        5.34586131520400        1.96456078400757
O           -0.69558642544060        5.12050019006118        0.95178410079894
C            0.16722256967983        5.60480923054411       -0.15797599010397
C            3.06551900175480       -2.14070132291908        7.63794548900797
O            2.84955959719161       -3.01080501413894        8.45278989660913
O            4.33713383273725       -1.89890062565691        7.13150840355572
C            5.11818347325057       -3.10902056458507        7.10435249163984
O           -7.43049587140052       -0.56773368652280        5.43168732432479
O           -6.22483735990019       -1.95356546978766        3.98727659806784
C           -7.35489888788105       -2.86882679705736        4.01238198821433
C           -4.43168645855939        2.59346975661276        8.23453630907956
C           -3.61155397110825        1.87854479791225        2.46604283434300
H           -7.08373355962000       -3.80112525713464        4.33075485522948
H           -7.63726879073797       -2.97358750816329        3.03337298543545
H           -8.15511017022589       -2.54580390799220        4.51433782333166
H            4.32868465233019       -3.85987315509001        7.13604229815317
H            5.67137998476997       -2.88014951449975        8.01873323122203
H            5.78664158705367       -3.07581797218609        6.17060652872671
H           -3.86260443363837        2.79638583936898        2.03740301589618
H           -4.45136215676141        1.16293323808514        2.94040989688811
H           -3.29246987303113        1.20349167133307        1.60331571391604
H           -3.60239084463241        2.82175463511237        9.01695252553717
H           -4.74718972384867        1.59073723085164        8.50584354092947
H           -5.15993371775218        3.33210770800519        8.17118442546639
H           -0.54861477863453        6.08047786020180       -0.87560221446352
H            0.77477948773370        4.93921510939388       -0.78905916692589
H            0.71048233975528        6.48437519755771        0.10625637533123
116
 energy: -22.682185250690 gnorm: 0.506928012361 xtb: 6.6.1 (8d0f1dd)
C           -3.07173228212443        0.65621177850542       -0.85771759415778
C           -2.23495120828497       -0.28776003002971       -0.17929132190299
C           -1.18032883931563        0.25532953632145        0.52549319397331
C           -0.84683600700605        1.63095722568805        0.30473170115636
C           -1.69851497549422        2.59759208664974       -0.28118397478281
C           -2.79636942917021        2.07479005489320       -0.97122081362799
C           -0.36528286724026       -0.66007454724515        1.26804574767053
C            0.90505480466887       -0.21002506037216        1.62618398280339
C            1.23937483707705        1.13154703724103        1.24350419514408
N            0.27580832098430        2.03783423628506        1.00323086960944
C           -0.81311205459732       -1.73767753083043        2.11488670682797
C            0.33066953708269       -2.52758491575553        2.61972951233892
N            1.60792643435187       -2.27059499454867        2.48719552909386
C            1.93243220796676       -1.04094065417714        2.14486615232587
C            3.21319042631971       -0.52854808095605        2.40038052793368
C            3.41304638501690        0.84886155938942        2.16540875649272
C            2.48827172629961        1.69162550845193        1.57967354455451
C           -2.18647008262620       -2.06784370486716        2.58144512525607
C           -2.33130648020871       -3.15955492358559        3.35941866176699
C           -1.27324180785369       -4.08951801382318        3.55010360846899
C            0.05990176426531       -3.65031028114240        3.36134456769403
O           -3.20249751063696       -1.26087096535155        2.10303492667111
O           -2.50634863030843       -1.59311726786114       -0.22957672093137
C           -3.88323920414392        2.86991425563308       -1.59527901954272
C           -1.34110206602921       -5.27197204586861        4.55619318235010
H           -1.55300658099592        3.63529815775893       -0.60006208510253
H           -3.81957357448004        0.26275527896126       -1.48113595711166
H            2.65431076826117        2.80166323075643        1.46025101322503
H            3.93091505946867       -1.11588631537385        2.99265708218983
H            0.85055619385208       -4.35624058778422        3.53727030804638
H           -3.24758108859341       -3.35453216879232        3.68354884371611
O           -4.18918024707016        3.95427476365281       -1.15481135192411
O           -4.61452028860980        2.23688003038479       -2.54243420096151
C           -5.44450904731018        3.23129648438190       -3.14762224026022
C            4.70035140575898        1.54631731012672        2.44095291490545
O            5.67741939004504        0.88847346683370        2.82743580993735
O            4.64350454210112        2.91245760598571        2.14959968912258
C            5.86726520133579        3.34457620978284        2.74129540029060
O           -2.34096697415557       -6.12073362388579        4.52242358254161
O           -0.49094031153589       -5.06071192591246        5.61036570011036
C           -0.52732284717783       -6.07050937437875        6.70422815533518
C           -4.38725315055337       -2.02560727838054        1.80599013305820
C           -3.52514526322567       -1.97730147215367       -1.04023588319650
H           -0.17067396953358       -5.90960850512807        7.72928217166344
H            0.19475860400432       -6.81458661584929        6.42860009694438
H           -1.56760867590078       -6.48401508736085        6.89499407161792
H            5.75956557819803        3.70245427313817        3.72826971578709
H            5.97948713621235        4.30708017123726        2.30200818623924
H            6.81615030648980        2.51013014347667        2.61617553440511
H           -3.81345341401079       -2.93055309820982       -0.96553271458897
H           -3.28138322537842       -1.81793927832700       -2.11480986164029
H           -4.36140293011793       -1.28811245505911       -0.83496747343570
H           -4.87489172027410       -1.91591478628503        2.73741217139300
H           -4.05317362077746       -3.03205169820327        1.63807631996646
H           -4.80625746523399       -1.72528001369340        0.93388372113792
H           -5.90070050745028        3.73275413699687       -2.25460277230918
H           -6.11775877725464        2.56073625062823       -3.64948276605273
H           -5.05494224758243        4.08379528435163       -3.78168844556790
C           -1.48041519407031        3.62671082585591        2.73858599358304
C           -1.92625815270341        2.46645195283886        3.34916130921655
C           -1.13831384529599        1.69209245776498        4.30260963912133
C            0.19499684870695        2.22715976573556        4.32747077326036
C            0.52427817334456        3.56472039834499        4.10590284124632
C           -0.38955511487886        4.33002586407345        3.36456769831661
C           -1.53037739499887        0.50168872034575        4.96315106731882
C           -0.48495502680845       -0.19752908409534        5.52905701147376
C            0.86430096273288        0.26652525017908        5.35017867895328
N            1.22865908732307        1.37256603433928        4.78273036068304
C           -2.75539882657991        0.32165029887166        5.65000693359256
C           -2.96892272026995       -0.92027047171111        6.25766244436403
N           -2.00676740112361       -1.79437857879890        6.58695525260745
C           -0.76037561725739       -1.32978927492366        6.32502695677304
C            0.32345808129069       -1.99599475306802        7.09103473887720
C            1.58676117224005       -1.50291265245790        6.91706010665054
C            1.89555787550059       -0.48646582351473        6.03250072558533
C           -3.90982083415957        1.14474387384957        5.59338304898773
C           -5.16757033222835        0.61317885223452        5.63038555731543
C           -5.35474037513278       -0.64993644137259        6.08042376063662
C           -4.25879840145041       -1.30107090138881        6.65491441932987
O           -3.77723515622563        2.55508931903124        5.45736719413935
O           -3.13212519609446        1.59976647343312        2.99615938703315
C           -0.04093398363621        5.76224380650137        2.95521361898653
C           -6.72785564022842       -1.34941948653175        5.92516161817087
H            1.48433772229626        3.94541264220506        4.35894085406465
H           -2.07559110884954        4.37497209644652        2.13460031356836
H            2.82807647072083       -0.06458123499083        6.13755583794158
H            0.44255357411996       -3.00051853725179        7.57748494756133
H           -4.46290164097799       -1.89757453528280        7.44228882369979
H           -6.05443884530635        1.14375705989068        5.38013999351245
O            0.56187002493869        6.66488275900952        3.63988030520436
O           -0.44804993300267        6.12268822389776        1.68034814740597
C           -0.50833779064108        7.54173940255313        1.84418987623957
C            2.67878925401463       -2.36237913673473        7.46266216219648
O            2.61145790418448       -3.55058793890966        7.72262712119571
O            3.82478292817522       -1.73755112072055        7.59094392656579
C            4.89309330739396       -2.35990286572360        8.17835101210583
O           -7.30615066684477       -1.87759807386119        6.87602468036807
O           -7.26269635103205       -1.44194756130189        4.59697843989254
C           -8.56235095980303       -2.18210868266505        4.64672075484741
C           -3.65556269301951        3.44049728335976        6.59388756532571
C           -4.23426411636132        2.21289078472147        2.42550773936734
H           -8.58566409351341       -2.96225904857108        4.01191736633177
H           -9.23103402805965       -1.40873960703770        4.69297633914357
H           -8.63874027250687       -2.62382310107980        5.67343214136765
H            5.79352816523995       -2.74661137449689        7.42526482830489
H            4.40798980751710       -3.27459369181173        8.74042382598080
H            5.22918610542009       -1.67786318573135        8.95520385721814
H           -4.93765193091246        1.43683726683296        2.32171330786445
H           -3.84765653813436        2.47945116228655        1.38143044615452
H           -4.60424832637331        3.01318762363018        3.09407118555575
H           -2.53649201613120        3.58299838625064        6.60943268518350
H           -3.86288820856380        3.02871672312881        7.53550050341338
H           -4.30405441010874        4.20280697766702        6.26065162659672
H           -1.10746589983799        7.74336322671557        2.80791152234387
H           -1.28619615454977        7.94067717092230        1.12871002850625
H            0.37421963582449        8.25245863316007        1.97254572817606
116
 energy: -22.699328145586 gnorm: 0.494304553614 xtb: 6.6.1 (8d0f1dd)
C           -2.13457062569258       -0.26370041175205       -1.60322781557594
C           -1.50060912016965       -0.79109914779748       -0.53281487990159
C           -0.65096469316295       -0.03093551195951        0.36496236226691
C           -0.32618718521275        1.18688199243704       -0.05054519291487
C           -1.01288830540432        1.79381031587676       -1.17606408728274
C           -1.99172666261061        1.11125808934690       -1.85079708610074
C           -0.09163798093369       -0.66138688700007        1.41567185043903
C            1.15733518500602       -0.11206895107003        1.68565963325708
C            1.45483309655718        1.25655942785913        1.19372761772601
N            0.57366274795146        1.96029319859904        0.53414466189380
C           -0.46439864272685       -1.79601706209996        2.19614010863217
C            0.58805469835024       -2.41721993886124        3.02064054534203
N            1.89924982915424       -2.00379632796003        3.01330410699163
C            2.06804958568959       -0.76087431493035        2.49920407504822
C            3.25097447181653       -0.05755880930490        2.85381636107039
C            3.58851529625686        1.21852409664911        2.33431177479180
C            2.63952868323824        1.91535797824020        1.55959058684806
C           -1.89446432361183       -2.14602883219766        2.39452218204507
C           -2.11625047748883       -3.22399919845177        3.30577373348488
C           -1.02201119773563       -3.98451802409555        3.93265150083128
C            0.24587955427407       -3.62290636064221        3.62181438152558
O           -2.94865831225058       -1.42107632547006        1.72284637485459
O           -1.52704315955440       -2.23687280449595       -0.37300083633825
C           -2.82528511628808        2.09330527213552       -2.79108590332014
C           -1.61515527766863       -5.09380513538890        4.91720429285751
H           -0.86192675454220        2.84590479162198       -1.40861345276162
H           -2.82932026591425       -0.72385748865171       -2.27286412947336
H            3.05969580485781        2.71055224385663        0.96898895852494
H            3.87738829954871       -0.57564284969946        3.48357344833316
H            0.98851815339818       -4.04629215791081        4.20282020102064
H           -3.07513412257113       -3.58103076519281        3.40640675926308
O           -2.62423855315196        2.14447788857100       -4.00427136076830