116
 energy: -22.769939136905 gnorm: 0.416723391730 xtb: 6.6.1 (8d0f1dd)
C           -5.02711340712417        3.95364660648358        2.68333731334359
C           -3.72804531219459        3.57777210349873        2.23146961231306
C           -2.56362758489585        3.79866746906211        3.03891816649123
C           -2.69315536059450        4.71566545856236        4.07222487938924
C           -3.88731764864360        5.41560876047579        4.36319248945895
C           -5.08129531950652        4.95591366947446        3.74218581254853
C           -1.29124531043281        3.18891585149751        2.77426322802111
C           -0.18085595667076        3.61765353644457        3.40566978063409
C           -0.34650096164935        4.53311197219902        4.50384069495273
N           -1.60515810325348        4.98139348926402        4.83036468565413
C           -0.95344499187642        2.10704781621936        1.91253396141681
C            0.41528957493644        1.80770792879674        1.54026225737191
N            1.43969625289558        2.35582198697331        2.19628112519977
C            1.25443422989726        3.20186752108634        3.14799376359980
C            2.22668214452049        3.79210217677435        3.98677040476457
C            1.93657435789508        4.89262467584065        4.85344153329938
C            0.64847659879117        5.08411586238886        5.33291576240232
C           -1.91338427538430        1.02375360380831        1.57290339118150
C           -1.58800917905111        0.13858738464857        0.58974979770563
C           -0.35469942454607        0.04169279099400       -0.10211121906576
C            0.62896924869051        0.78757474220945        0.51540637349185
O           -3.02248877283484        0.97184944015190        2.44760433492441
O           -3.55623864806973        3.03672917907396        0.88898593250750
C           -6.32374715123589        5.55812646263981        4.36805867883911
C            0.00557763460425       -1.18044188967958       -0.84119359223024
H           -3.94060637074932        6.11707823794931        5.10782124804740
H           -6.00102507981244        3.68777554710181        2.27348017412039
H            0.59845513084829        5.34502181560913        6.38355949895902
H            3.31859739232457        3.53010079677358        3.81590295709169
H            1.64049781924163        0.64051028597304        0.20753457749472
H           -2.04035418921319       -0.85540447707391        0.54841586297625
O           -7.26914077964111        5.68396291800757        3.63254119550764
O           -6.30741080305892        6.11785892613385        5.59409267656785
C           -7.67783320640098        6.33819189962425        6.02184561237979
C            3.02821428420448        5.69841022459810        5.42750995993493
O            2.92877967885793        6.84067808206293        5.82877047058408
O            4.14525163461958        4.88111849834868        5.38086413020382
C            5.28998132365911        5.55192619487862        5.83203170529736
O           -1.00461270276012       -1.67656387814258       -1.27132851675688
O            1.25111306787542       -1.54893112245797       -0.97465833195634
C            1.40815780448835       -2.91420632377271       -1.55673180868185
C           -4.27803589245803        0.66397033799560        1.81363595611815
C           -3.79457186236605        4.03797875875463       -0.15403310777336
H            2.48512976809476       -3.18688572900146       -1.67386316788885
H            0.91129443468220       -2.93143425809183       -2.53808072976806
H            0.79600441761867       -3.45321466027034       -0.88282729400973
H            5.43295137141889        5.43461857137597        6.89726067391060
H            5.20080051160987        6.59053674419661        5.65341355593399
H            6.27582083270235        5.13926352415059        5.44894287081220
H           -3.59823950140592        3.62583927052903       -1.13301621426453
H           -2.96609876208176        4.67042763013660       -0.30097840185637
H           -4.78610235090379        4.54312833381393       -0.17215648277875
H           -4.69612877456664       -0.07735320475825        2.45484325099589
H           -4.26914200537143        0.36959115967758        0.67501057573872
H           -4.83172781792338        1.62255180319583        1.97480097596101
H           -7.85182509436525        7.38602130020612        5.88107371590794
H           -7.83997664582517        6.18708878840948        7.13523333796667
H           -8.22984039017664        5.67039672570082        5.22446514365896
C           -3.63814379627250       -0.61538100992287        5.40384509920372
C           -3.07289109352396       -1.51695459986428        4.43772920536891
C           -1.60210688123533       -1.45933346710324        4.19232147609373
C           -0.89406572966817       -0.19478952524764        4.48780599207734
C           -1.72829396508597        0.76585974003433        5.13807789772296
C           -2.92043486654407        0.48935373110029        5.74049196821647
C           -0.84402991347540       -2.57160525933225        3.79078407400351
C            0.46424318067738       -2.31372145995184        3.37663910933084
C            0.95509254395918       -0.98454002672976        3.44440273866047
N            0.21343867969386        0.11025926663299        3.81072269451156
C           -1.21157007651000       -3.91865831525447        3.74243289666512
C           -0.58080280897693       -4.77114898639907        2.70984978528339
N            0.60967564370114       -4.45635274641481        2.27865095890475
C            1.11095738978772       -3.26893559730474        2.58136893100956
C            2.48966515851555       -3.08292045312048        2.29102452281075
C            3.07995145277179       -1.83505551392494        2.62867815549714
C            2.25192783550307       -0.80118068576365        2.98473712835335
C           -2.16782958363862       -4.42774802659712        4.76035366513548
C           -2.69928705450103       -5.68753262080054        4.47722630203605
C           -2.29462633194672       -6.49722375976967        3.35682097979296
C           -1.18507555995710       -6.07831128612580        2.64777279443597
O           -2.46558289683196       -3.79404034428718        5.94701844879684
O           -3.98081895234141       -2.38720227732174        3.68009663811185
C           -3.32920771808159        1.56962705323837        6.63970435117750
C           -3.06845869002766       -7.80098782421174        2.90782376811488
H           -1.30320824317962        1.69446878327695        5.34261118266410
H           -4.71820096347461       -0.58230185635975        5.49667129583257
H            2.56438389219350        0.19649077118113        3.19538506167156
H            3.04339071427629       -3.79613795411735        1.76864331047187
H           -0.70242826823388       -6.90020683784353        2.12211340586469
H           -3.24097974774779       -6.23631554836853        5.28434947267983
O           -2.45669569575165        2.40692587713485        7.01335195879386
O           -4.70334776005729        1.68293357222503        6.93558246664119
C           -4.75155935019191        2.81595019461226        7.80574056597068
C            4.40673132939662       -1.64193430688243        1.97822498736314
O            4.89163952133960       -2.30389529941915        1.07762086275025
O            5.07774231264456       -0.57191830182074        2.45077577134835
C            6.25939488346948       -0.48517582765692        1.78329717941350
O           -3.77208357040489       -7.74764048400495        1.96123291252843
O           -3.08809443903930       -8.95004438609816        3.69416827216623
C           -3.85529749956443      -10.13924826250734        3.21036841121846
C           -1.47371980915138       -3.84399846879350        6.89942977192430
C           -3.66919777210385       -2.52411081881026        2.28852844560471
H           -3.21189565507125      -10.87721297238205        2.80270555340989
H           -4.59746082452505       -9.60983908608573        2.48658950784061
H           -4.45566385874871      -10.73227133689102        3.88911127865271
H            6.88921322224247       -1.33329670837273        2.15397394004604
H            6.75468053792011        0.55899191960072        1.91775882235418
H            6.14802083932039       -0.47271917362117        0.66505517996975
H           -4.56295983671406       -2.32178557220729        1.54440823829753
H           -3.35250463331201       -3.55330304283381        2.12861870098503
H           -2.85865556493475       -1.81067124469951        2.04778025593976
H           -1.33564656439763       -4.86271422489757        7.26674109529107
H           -1.67257278073816       -2.96922088830507        7.60409043303398
H           -0.55171058627605       -3.44232143096264        6.41383742753193
H           -5.57130128541020        2.51786566495570        8.51693343274403
H           -5.11207910213844        3.77529084998660        7.33754925690672
H           -3.80614968003499        2.78930401547815        8.33199255709580
116
 energy: -22.702074157672 gnorm: 0.504480554909 xtb: 6.6.1 (8d0f1dd)
C           -4.39362184016866        5.18050650435092        2.42648964240370
C           -3.20838419536852        4.73359427917566        1.95251216546671
C           -2.19708557456930        4.41803500132284        2.98123418023140
C           -2.19579005531457        5.13186213549796        4.15522280653464
C           -3.49027321008701        5.76876168006214        4.55412997465029
C           -4.62545285558461        5.56569443038271        3.76910233013498
C           -0.98347852562353        3.74593258421800        2.78570500525374
C            0.10119851179961        4.24898599870922        3.41610814246479
C            0.00829918524098        5.27419312562729        4.34375061622314
N           -1.16744197170089        5.58297455449247        4.88310704474369
C           -0.98132980834075        2.50708694062614        2.11946098458552
C            0.27425900318491        2.18055841605123        1.70437076476684
N            1.40773452851620        2.80430006386450        1.98128303640827
C            1.35589169808687        3.60467060620116        2.99056742479835
C            2.47284096211501        4.22405911811167        3.39885221473901
C            2.38544663939643        5.19229402030873        4.44217358742279
C            1.20966413411068        5.74185292474484        4.82848004810436
C           -2.06848688994703        1.60927115482292        2.36874950459141
C           -1.80699362258442        0.34144862742606        1.87734715834162
C           -0.59983922984190        0.05830561242277        1.29424224011196
C            0.48577553012187        0.88774167163797        1.14578149917101
O           -3.23904701890486        2.08357825118301        2.86944130324998
O           -2.89737272679736        4.61338520344017        0.56967992511050
C           -5.89122234945635        5.99046668570346        4.20187153718127
C           -0.46771935576808       -1.23376531575689        0.59062905914216
H           -3.58773580311118        6.19925449819264        5.51107221610547
H           -5.11993168771188        4.89780079298148        1.73049582725223
H            1.07623621697492        6.45594207831018        5.60965092075816
H            3.34856225950422        4.20682502750314        2.81848880060783
H            1.18279104744188        0.39723950382545        0.56162566267314
H           -2.44250851127732       -0.53198743339330        2.03028649934868
O           -6.81739754819399        5.76621025993217        3.38859513549671
O           -6.06634827370357        6.60224014903996        5.49028800664710
C           -7.27085858582672        6.07778948476243        6.11140350163491
C            3.48356579979184        5.98261766536453        4.75090415860374
O            3.47920946311071        7.00382544622891        5.42846865969331
O            4.70962549989908        5.66156761520474        4.25421239186820
C            5.58630990487505        6.73722929669316        4.50568600352775
O           -1.40404999706941       -2.03203266895775        0.81994253191246
O            0.74238331925588       -1.41109430527023       -0.03209849759325
C            0.80765079181371       -2.55677675647531       -0.63554931773426
C           -4.36615373275691        1.24788314683121        3.03428149171084
C           -3.67614199153409        5.72932247970389       -0.10039663701511
H            0.80571062128790       -3.32853450704569        0.19697384427386
H            1.56461818863476       -2.60135025727026       -1.33450131202811
H           -0.06270817498093       -2.57776899863484       -1.29825427696069
H            6.31891518856916        6.93501505553408        3.69998111044126
H            6.22301509994781        6.45060074101686        5.37390849922752
H            5.05051374269204        7.64751786372540        4.66900345381040
H           -3.93968640591502        5.19940486568655       -0.91691080248460
H           -3.19323568648435        6.65698381616018       -0.39412211216434
H           -4.59366615171005        5.99755035530430        0.35324038591295
H           -4.10597431231906        0.21111188644218        2.61124263962576
H           -5.05407840645913        1.61268001390823        2.20517630894755
H           -4.90180918403879        1.42484313075959        3.88132309979076
H           -7.66448134789993        6.87710969872960        6.75195285142261
H           -6.96278281128045        5.32588764382754        6.88867234872803
H           -8.05502697035952        5.56413858394868        5.44364316192506
C           -3.76099614451910       -1.36747711868482        5.24076722546819
C           -3.15839397496207       -2.34900053653286        4.42827696585691
C           -1.76527204438139       -2.25684389634683        4.29937703548336
C           -1.04531557744300       -1.13217419227199        4.87292979251032
C           -1.63416756913900       -0.34886736409151        5.68299101994589
C           -2.95260607008078       -0.39981845439966        5.90742266232363
C           -0.87810249787545       -3.15044934499090        3.65667858901821
C            0.40729532897947       -2.79755027020764        3.23301863466572
C            0.88013954537571       -1.55076832785332        3.67854093611488
N            0.26287601903027       -0.80097008694893        4.62562984951612
C           -1.04825537271912       -4.57852804172026        3.67072989367396
C           -0.18939788465253       -5.44638803140031        2.94889604236553
N            1.00432991444636       -4.99424204002524        2.43228952428562
C            1.32065584191324       -3.71341340875737        2.69023577615855
C            2.47875955154607       -3.20821360289765        2.16825493240484
C            2.76621159372194       -1.84019710416508        2.26280944301581
C            2.13017081989260       -1.04982036670398        3.24822405079150
C           -1.92613450275750       -5.20085559393431        4.54130735711760
C           -2.54604194007312       -6.47801210580292        4.26703878196979
C           -1.77006788373723       -7.24859536219762        3.41508192156519
C           -0.56882441765409       -6.81005143860321        2.84795702133012
O           -2.34960521701611       -4.61962341760377        5.70256177938085
O           -4.05738666894970       -3.12629207941862        3.54290754587788
C           -3.81183618087544        0.78876672299891        6.47733890390405
C           -2.26923640598696       -8.60869211650571        3.02433082895544
H           -1.11983309461664        0.54003873899872        6.05012531238453
H           -4.75525644014667       -1.04270200343428        5.08923554531057
H            2.47366919822561       -0.12616867019740        3.51238269421441
H            2.99805796092838       -3.73143375567002        1.40753838727152
H           -0.01548238780244       -7.55102676595147        2.33655091476055
H           -3.62498345920582       -6.65616828084343        4.28264652080845
O           -3.60540112611001        1.29353766415235        7.51598930832647
O           -4.90592933124720        1.11921011487169        5.73245961342702
C           -5.38461007994361        2.30384819238891        5.97408252808694
C            4.04602631991871       -1.41008529618855        1.83272371735509
O            4.91371721086123       -2.22937819441114        1.56316821288631
O            4.10419848096744       -0.08354451462889        1.92585553273964
C            5.44067716859614        0.24377679273111        1.36436112840794
O           -1.48237219309997       -9.18080014257953        2.22257876564457
O           -3.46019712077138       -9.04093377449432        3.46433601647441
C           -4.10084754733571      -10.12746717304813        2.90771204523275
C           -3.72015799814404       -4.56519765910951        6.11118146104086
C           -3.54059538333231       -3.63564395215357        2.23863030776945
H           -3.44540924263196      -10.54420326669246        2.07370294375348
H           -5.07997314119762       -9.70571227108831        2.44370472099759
H           -4.34968410313174      -10.77676375867912        3.77551344174603
H            6.27610263318307       -0.34597482103248        1.83462801358241
H            5.61983148533597        1.28861656563515        1.51594439388762
H            5.41986586153473        0.19412376106947        0.20568695174203
H           -4.29848674433827       -3.26491934290395        1.50310556893352
H           -3.83978139627957       -4.70402286405040        2.19689251928947
H           -2.53397017135192       -3.48454465565623        1.86615134253538
H           -4.33854256734559       -4.72255135886860        5.24109597435298
H           -4.03601150814308       -3.48539391093510        6.27301289740694
H           -3.96108248900472       -5.18585111605961        6.94205057778004
H           -6.35270754469958        2.38160133210494        5.56737871422511
H           -4.89982617738810        3.15671971936575        5.52613820202993
H           -5.32278410620364        2.49448123244149        7.00985209077556
116
 energy: -22.703729971494 gnorm: 0.449827134617 xtb: 6.6.1 (8d0f1dd)
C           -4.58932962696486        5.35550411519888        2.88818250755955
C           -3.49811547752627        4.64519337790973        2.38538456040986
C           -2.37243472533030        4.51388331578161        3.21693833137842
C           -2.19715720429107        5.53417057075727        4.21107677797913
C           -3.19504673829767        6.35537417006068        4.65585318588479
C           -4.34455710300892        6.34348534902984        3.93675246349018
C           -1.23527938718496        3.73072575998362        2.99007231347625
C            0.06662668664741        4.21915736142323        3.36788491052018
C            0.16418893871105        5.28552491646818        4.24897899933101
N           -0.93998781233470        5.68045011668041        4.84642448547244
C           -1.23626493696947        2.54061904358100        2.16775680464620
C            0.00182261133566        2.20675378964017        1.60550372285990
N            1.24974822447974        2.59769977188818        1.94488910290132
C            1.32093881063995        3.72551812407952        2.78958646929806
C            2.59244678865348        4.28966009413744        3.14930832468047
C            2.65532079844140        5.41022582572985        4.02997030767819
C            1.40224189193400        5.98751793190675        4.33142871369630
C           -2.46182059930226        1.88765115185657        1.87688249459684
C           -2.53508377839765        0.77554518971909        1.00750032312208
C           -1.24695810633818        0.38294300113337        0.54493408932478
C           -0.09817171335104        1.07516201603209        0.76062849871397
O           -3.49501300608418        2.19704910490250        2.70897016144317
O           -3.65273028271182        4.02254189609178        1.09647516837370
C           -5.47414925193407        7.23552510957956        4.42904777092526
C           -1.01506365576902       -1.07895340480800        0.12247095577936
H           -3.18999106674505        7.02841098796486        5.47974854366249
H           -5.59752620321942        5.22531487642824        2.39363761331570
H            1.24600316528200        7.02567087254309        4.73606658674050
H            3.44381394128116        3.66199247013951        3.03392943108725
H            0.77061929956060        0.93308538134625        0.15876003614381
H           -3.43980539748755        0.08139232680936        1.17629396301746
O           -6.43195678979076        7.52159242156022        3.75134665295685
O           -5.17479200353184        7.72241196484555        5.67013650398234
C           -6.24560510999487        8.50364075934502        6.07770281113736
C            4.09211239082663        5.87925004578608        4.19425216621510
O            4.05565846871304        7.07895058368068        4.10877474574221
O            5.33835103489057        5.18168664420564        4.53106880167816
C            6.35935861715338        5.99324866340962        4.38022289764980
O           -1.78766946467252       -1.71427214209990       -0.57153510236740
O            0.29500746205914       -1.33603226176971        0.43517774547676
C            0.75063552695594       -2.28002673285606       -0.48625370726743
C           -4.61034711362417        1.35903102451575        2.70279959457395
C           -2.82698237564546        4.68299013706642        0.20994819398941
H           -0.14934293665963       -2.66667093371593       -1.02527451178478
H            1.44818755504790       -2.99253035068042       -0.05293203113147
H            1.43018047166119       -1.83538383562556       -1.24817250679443
H            6.10044350878412        7.04169085626948        4.55701270829088
H            6.58341408482829        6.01639581502589        3.27567003954984
H            7.23907436201512        5.78315121276832        4.98986128235492
H           -3.03370448869977        5.70040909284902        0.09849997533768
H           -2.59113188138562        3.98258130496983       -0.61731903294087
H           -1.84378554149563        4.78592104314918        0.46978982177398
H           -4.15177074010323        0.37566470623601        2.83319184234637
H           -5.08140249788244        1.27841508779429        1.75021685567019
H           -5.16521121425232        1.61372241033007        3.63403699211454
H           -7.06760253918528        8.75966820230289        5.28353944895112
H           -5.94617417489059        9.42532820173176        6.37136341427407
H           -6.78105273277607        7.92655039743071        6.94228885738805
C           -4.19077648821265       -1.77644946221252        4.71286823570912
C           -3.27999031314656       -2.54645647304163        4.09523200282916
C           -1.85398652511949       -2.28616499096425        4.32709950096643
C           -1.54358244880260       -0.89998544674114        4.69851979273891
C           -2.50493415527191       -0.07226357802389        5.34337455279091
C           -3.82352972613613       -0.54060155985607        5.38322571876847
C           -0.86095301259993       -3.23367439717710        4.08271991908317
C            0.39111191409915       -2.66216432425415        3.65191254948950
C            0.65617533272414       -1.24573134672772        3.84960865730672
N           -0.29465319856112       -0.39346273252966        4.50255391105221
C           -1.13265776913593       -4.62913475380496        4.19651617640293
C           -0.21824381244508       -5.26416655815004        3.21863063322336
N            0.84704218336799       -4.73155194844701        2.52726488370808
C            1.20265311642751       -3.45228735332057        2.79072152834605
C            2.45690897772266       -3.10248534389860        2.62545233195272
C            2.87213708876115       -1.74775506151426        2.75002553583238
C            1.91105858493882       -0.89611457503268        3.34332158208966
C           -2.14094860180631       -5.56193628620831        4.65434016633228
C           -2.21694893886653       -6.93654920843273        4.21088345493668
C           -1.25904669887544       -7.42858216123459        3.31666990075121
C           -0.24168266090075       -6.64119196425654        2.88987662212751
O           -3.01742691436105       -5.10298845831768        5.57434017997973
O           -3.72553660272223       -3.30490106169048        3.06589897324250
C           -4.95560752805476        0.10385110641972        6.11583263672011
C           -1.57148598727939       -8.93531819790165        2.90715583789562
H           -2.06657920042205        0.83708468343651        5.88839637054100
H           -5.16037587428918       -1.94692694977311        4.24984609732936
H            1.97538938396895        0.09475512408416        3.16123444507120
H            3.14462880122487       -3.88732898567175        2.32750041033932
H            0.65377799630307       -6.81550836252188        2.33655957083626
H           -3.07222209565512       -7.57384200955762        4.19112544582903
O           -5.61556947742560        0.95299335090628        5.53936707719519
O           -5.28685400418718       -0.28217002477356        7.47291358787384
C           -6.58935052832732        0.04779302710776        7.67317246480696
C            4.22725899278315       -1.10688091401709        2.39002989594920
O            5.02445531827983       -1.93579227284349        2.00480059226930
O            4.52461033896616        0.17833550041654        2.54737323096894
C            5.69065817184746        0.41887965080331        1.92744699604886
O           -0.93840666725830       -9.53780394843846        2.12317642418025
O           -2.51498092498286       -9.59226329236718        3.68682940508897
C           -2.55836094957817      -11.02329001489900        3.46085655666384
C           -4.21314230498439       -5.73721828239449        5.75538649746162
C           -3.29271787271378       -2.96266586627432        1.80279482855915
H           -1.89276932089206      -11.50985256032928        4.15449583979358
H           -2.30307416451294      -11.18229955030942        2.38138226973947
H           -3.57501572579811      -11.41725753315274        3.46424810359632
H            6.46352333864506       -0.15998338534606        2.41341405499241
H            5.74873690059454        1.46788415255434        1.97599977629294
H            5.66829726788081        0.17006925806530        0.89920166750858
H           -3.52921921588246       -3.76329511027805        1.01394557211114
H           -2.30102678851609       -2.79840518821905        1.63713492424794
H           -3.79514164311254       -2.12843174686841        1.39215914034124
H           -4.15243453033988       -6.78825629924487        5.41822665063311
H           -4.96393065301060       -5.29367519191764        5.10951601370964
H           -4.60586235328140       -5.66394005125198        6.73718355797732
H           -6.60992689276629        0.71223408120314        8.53874986800817
H           -7.19375368574712       -0.79333626190885        8.05745525936273
H           -6.93126996649186        0.58330136685158        6.77222944159891
116
 energy: -22.716668429260 gnorm: 0.491318716261 xtb: 6.6.1 (8d0f1dd)
C           -4.35028009402441        5.77332516284717        2.87568960284398
C           -3.47811949804059        4.87669486897633        2.20721596649274
C           -2.09515578896536        4.96274171716816        2.73367140469209
C           -1.71142049971572        6.00285900681446        3.65370829187748
C           -2.63539626817426        6.93872750085916        3.98971912014993
C           -4.02902048796244        6.80871145609779        3.71652567154781
C           -1.01942409510225        3.98931230120955        2.46121624899471
C            0.37586824560182        4.12830570512503        2.74269864546038
C            0.64586404140378        5.26030485333353        3.59613307722842
N           -0.33621289066493        6.13134172847486        3.95831608586158
C           -1.23995918745360        2.60183952240578        2.14329167080113
C           -0.11439925412566        1.78048102014691        1.75015997358606
N            1.08396962618913        1.85599809991225        2.13376622022470
C            1.32819090753940        3.04767361979089        2.73516526132131
C            2.61491761335746        3.23823019698565        3.37057202614549
C            2.87008992126649        4.36765220978553        4.14023168774995
C            1.94115957202207        5.43396835426805        4.11089521012637
C           -2.48045067068531        2.04088598558275        2.23603237957931
C           -2.74586106442520        0.82222777492334        1.64196780555199
C           -1.75111600060009        0.15619416886379        0.98810238837695
C           -0.49398637816222        0.59596465034741        1.05227512554998
O           -3.38614085466132        2.57884287216040        3.10776778279501
O           -3.93362725991944        4.04090216137879        1.15818763410667
C           -5.05903826399249        7.80456048655699        4.26033389438997
C           -1.90909172660935       -1.16557145451455        0.25187810333403
H           -2.21591752165209        7.95419482188247        4.25308405384683
H           -5.41365507968886        5.76388674038648        2.53105450623445
H            2.13814329744202        6.49917093836030        4.43276087237676
H            3.41086439399365        2.46079463069334        3.46755021601059
H            0.29034335339855        0.06448561817371        0.41657918065254
H           -3.44561563070461        0.07877115657667        2.17928753502348
O           -6.23323322246606        7.39766659963381        4.18718821451279