116
 energy: -22.928061455056 gnorm: 0.329736929581 xtb: 6.6.1 (8d0f1dd)
C           -3.31122850772930        0.79849766164622       -0.92477639677520
C           -2.44380812530352       -0.12270372891954       -0.27661132624697
C           -1.41337090092821        0.39579727573559        0.56335275196199
C           -0.89266158675590        1.65801491088749        0.27377586709581
C           -1.72665675402493        2.51431363229076       -0.49448366572522
C           -2.95444148494349        2.13954154133227       -1.01494489940871
C           -0.74098268209890       -0.43411532818871        1.49825021926784
C            0.56872586496315        0.03782116815119        1.86248088067890
C            1.03782416582094        1.29402317993033        1.50887470833621
N            0.31238977034758        2.07067427098208        0.65193736800696
C           -1.29695700510141       -1.39996043042223        2.41574187746061
C           -0.38243517664656       -2.18060797534842        3.13232615520648
N            0.91308504082021       -1.90366887689689        3.30325166013478
C            1.37712470144904       -0.74872102533751        2.81811050966982
C            2.52149331701875       -0.17739833758153        3.39379298866852
C            2.95849061756259        1.02681208890480        2.95105897606587
C            2.24288949469137        1.78498308775960        2.03503020483770
C           -2.74860936222260       -1.74497937691422        2.38401158947411
C           -3.09416315450955       -2.91614440870436        3.00571134491758
C           -2.16786021984049       -3.77788778654213        3.63251872101904
C           -0.85708937311598       -3.40495313382985        3.68547234358092
O           -3.71994433332149       -0.94984598373544        1.67726658385724
O           -2.55702603277562       -1.47241711578389       -0.57241635275616
C           -3.84297843593025        3.13357444054366       -1.60938954875544
C           -2.68769581069131       -5.03867041417370        4.30484659386931
H           -1.39666850744143        3.51251503834900       -0.76806311868865
H           -4.27662633836220        0.55105838579656       -1.33106614114542
H            2.66329581305412        2.73912661909249        1.72562431984580
H            3.05775395548473       -0.69369546277216        4.16536137542516
H           -0.24710966264510       -4.12034095424229        4.22946223699121
H           -4.11477991332403       -3.04712728052358        3.03244694615357
O           -4.21824883374556        4.03433712717988       -0.87713382485991
O           -4.44510595673734        2.90643496899600       -2.81853501752979
C           -5.44216520282800        3.83300025693726       -3.02488532025093
C            4.23586651889298        1.50004220933226        3.59165660008449
O            5.05927614697201        0.66079890002952        3.91714215179376
O            4.47001334453535        2.86385149488593        3.72605651435371
C            5.79457498613219        3.08584475587818        4.15829123132174
O           -3.82227255313510       -5.27347675879771        4.16636005494405
O           -1.85023202017753       -5.79767454267276        5.06656077253571
C           -2.55119635829503       -6.86252441382958        5.62930343183426
C           -5.07197156564436       -1.42399175670916        1.58830531863830
C           -1.33089900128490       -2.23622472573986       -0.99264499351172
H           -2.54510546830388       -7.76426885143998        4.99136022291012
H           -3.57194749219491       -6.44405511486021        5.74196173723541
H           -2.09133598235598       -7.02043774843818        6.64022264233588
H            5.72707967266424        3.46798026205549        5.10135971236643
H            6.34060091246885        3.78468702308830        3.50069950143490
H            6.17933064298187        2.03010500085905        4.19342358084693
H           -0.91862729772622       -2.57650129080332       -0.01361370304871
H           -0.49769766914251       -1.60651221708571       -1.34094446550576
H           -1.52632419730509       -2.94569707152159       -1.75361447637286
H           -5.11788846557077       -2.41810833635233        1.17520213188926
H           -5.67929807973498       -0.69619639428435        1.04301666067831
H           -5.57598832326623       -1.42383358739762        2.57928294206544
H           -6.13050215934830        3.76035386975488       -2.23272855695873
H           -5.86615610071888        3.45938329385866       -4.02668959924245
H           -5.13479557532099        4.87790991548477       -2.98314551356402
C           -1.38192942069774        3.73616555005018        2.91232598411686
C           -1.84821468128685        2.59982427735607        3.49755545445181
C           -1.05946531454833        2.05730632010638        4.60922730982276
C            0.19893954712228        2.69376791964407        4.86302140881997
C            0.50425395911860        3.94630308659851        4.28768785650746
C           -0.26031777722226        4.46998310053134        3.25072669343212
C           -1.20488993561782        0.74454293276906        5.14851520323437
C           -0.06287609782692        0.02744069315890        5.60930570802864
C            1.19208754369866        0.71421540266195        5.78882868583885
N            1.19428660993148        2.06344359410476        5.62744624321596
C           -2.41361422770794        0.07928500213936        5.25249410304426
C           -2.45851584031083       -1.32662100968547        5.60237876023992
N           -1.29466212405906       -1.98318595734370        5.89916817085159
C           -0.14475655767527       -1.32117560077092        5.98824682881008
C            0.97209270935794       -1.98958449505532        6.53157704134458
C            2.21982707914082       -1.36973967291181        6.68703967237737
C            2.30561929262884       -0.09745313075593        6.26436900324455
C           -3.73018485967715        0.71367583494582        5.25810242262992
C           -4.89964478833448       -0.06184623426677        5.21204641615509
C           -4.82617965800088       -1.39228978090841        5.46901303780036
C           -3.67144193418464       -1.98914944386360        5.67265433266067
O           -3.75568638935321        2.07705011038914        5.52067969627343
O           -2.94192434743730        1.91263938797883        3.01658762327703
C            0.21273512614467        5.50086066357994        2.34765104514621
C           -6.06660304520411       -2.17604633098929        5.80641622556876
H            1.41756699010566        4.38133362238595        4.66974005703471
H           -1.82880610647429        4.11982501512100        2.06992133318584
H            3.26888037378556        0.32655662585251        6.31721410015598
H            0.87146188387207       -3.08471526305024        6.57830423410869
H           -3.67716811065157       -3.05999292755990        5.83019634570050
H           -5.77379677507622        0.43595144608221        4.71017130754348
O            1.34459852619901        5.82615848916894        2.44941456579099
O           -0.74718748219123        6.07961784856304        1.59848183464284
C           -0.21473095568964        7.24015934882472        1.05753806029483
C            3.53228080814219       -2.00967610361154        7.02506769044485
O            3.64093082622715       -3.14437803815732        7.50071391725347
O            4.56565258381079       -1.22937033368332        6.69086985080897
C            5.72579357310716       -1.80692399125161        7.22246151275881
O           -7.04801223588612       -1.95726935745904        5.14194115322235
O           -6.01514389321278       -2.93743591896022        6.94765316328794
C           -7.21292732384718       -3.62681918543340        7.15115816329978
C           -4.95459780685163        2.65960679932188        5.86868674392943
C           -3.68284113682406        2.59129188358641        2.05479246020704
H           -7.43119628931628       -4.22607794725959        6.20622607140901
H           -8.06548455146707       -2.91765848248592        7.29781126410398
H           -7.07314693247270       -4.33087306029711        7.91223421050944
H            6.57332189837178       -1.29353136199234        6.78341268688262
H            5.74663761932316       -2.84282155125561        6.88089468184451
H            5.69426191474290       -1.72781984964892        8.29460302186842
H           -4.10481209541493        3.44288266176275        2.60483747673152
H           -4.49244774344916        1.87419893016926        1.82433103764650
H           -3.18901540870812        2.85154642679373        1.06781919454921
H           -5.55414326821421        2.76698137191684        4.93950725322359
H           -4.78658370641210        3.62090640967288        6.25983200635257
H           -5.43485580473958        1.97242995129449        6.65265772412460
H            0.89164886030839        7.38838561720231        1.13776105146914
H           -0.62894889903848        8.04195665205089        1.64837664327952
H           -0.59282546386754        7.45699159724320        0.03719083132488
116
 energy: -22.843577863238 gnorm: 0.402432038759 xtb: 6.6.1 (8d0f1dd)
C           -3.57209960832197        0.69939046827475       -1.36320508657234
C           -2.83349802631779       -0.27352406911189       -0.64090863543616
C           -1.82566300131216        0.30795588783545        0.22241433178534
C           -1.49916366182143        1.70525009033547        0.13970922412432
C           -2.17656419130440        2.53475554711838       -0.78213446283905
C           -3.23678424536666        2.08076024219395       -1.50243052070514
C           -1.04332981993968       -0.36500389161270        1.24986157897201
C            0.24665883358754        0.08076295887123        1.67354847546314
C            0.51447455384922        1.43916725451230        1.46184586744774
N           -0.34307337621412        2.20238449882323        0.71210484866195
C           -1.50584570602783       -1.59241112901138        1.91495682223353
C           -0.55262828140086       -2.39631837651924        2.66255311014489
N            0.70550586788355       -1.91547292086480        2.90958390988412
C            1.00646871500476       -0.66387763935639        2.58896189726865
C            2.23534659541777       -0.13968742582808        3.10370539888170
C            2.59316966509926        1.16638221550883        2.64879027620567
C            1.70581834330943        2.00295450448411        1.93204913236210
C           -2.86746267557471       -1.94743240607089        2.03101555076847
C           -3.14038937856318       -3.32435530493069        2.39083226501144
C           -2.14315512863294       -4.19007127292094        2.88595925691345
C           -0.89516782936199       -3.69537522215462        3.10528225191860
O           -3.74331713857729       -0.87377440213283        1.87802980808527
O           -3.18641861775639       -1.60896269062338       -0.59743480776399
C           -4.02077436420918        2.95341353874255       -2.26837567266911
C           -2.53226272596458       -5.56786501743625        3.38757947248087
H           -1.79104514825582        3.56337180300912       -0.83080068668138
H           -4.41066525028278        0.22473266267378       -1.85088586029125
H            2.00827367208682        3.01580608935948        1.74165470241890
H            2.90687942132677       -0.64220619634428        3.75148897018637
H           -0.15986881021231       -4.38487121004305        3.45438801602713
H           -4.13514821402346       -3.56940301433249        2.48322807108466
O           -3.48737714925586        3.98810803727625       -2.50883914176354
O           -5.35955149201451        2.80755134262727       -2.57223182893696
C           -5.94823886562915        3.94879345579707       -3.22419079131001
C            3.83275549098900        1.59810494618848        3.24137107865459
O            4.55889362284339        0.84830671863419        3.88779166450032
O            4.16243205797825        2.91229550955817        3.15567545217491
C            5.37170310054973        3.24962901675066        3.64647682984698
O           -3.69813689589139       -5.73395920629360        3.53724382287302
O           -1.55410821586330       -6.50423714447678        3.51541254807593
C           -1.98999665117841       -7.74847810637611        3.69685636728290
C           -5.04940572274707       -1.07858616723855        1.96548163437222
C           -2.39974287657620       -2.35566987135818       -1.38389599072584
H           -2.24247122071863       -7.83185338396117        4.83776645657817
H           -1.15064360265765       -8.54275942011624        3.54536296850620
H           -2.97003252632097       -8.09953957205545        3.11321459391682
H            5.85516204462629        2.36786329005222        4.08454855775614
H            5.17903517958742        3.91927226934517        4.49675816518501
H            5.87901939083007        3.66942626397589        2.82789717557601
H           -1.37222946637264       -2.28836104640751       -1.17058129939590
H           -2.60918176375611       -1.77145898045762       -2.31772360270637
H           -3.03316803344182       -3.33677752860621       -1.58816814594337
H           -5.27066847008509       -2.08466982628857        1.65883252779156
H           -5.64860541200930       -0.28326517815112        1.34319389351759
H           -5.43649000292249       -1.00344205971450        3.03532444702999
H           -6.07535168212747        4.89101961060116       -2.66339208024475
H           -7.00405424323308        3.59902200258589       -3.39841483260075
H           -5.49134528797909        4.17281560461226       -4.19786465955335
C           -1.33554468422062        3.65775201606306        3.18451812256506
C           -1.54807688588886        2.49803597957756        3.85997256244608
C           -0.58692860943287        1.94089850463066        4.73335419984675
C            0.65539537153562        2.60639313373049        4.93084487084854
C            0.83552279989623        3.70173598374038        4.19688434659613
C           -0.09465411604266        4.19807906743369        3.27389355530052
C           -0.78584331316648        0.77443705510314        5.49444055223501
C            0.35367554161045        0.16359421686688        6.07755948048564
C            1.55761116430026        0.86689635813307        6.10643145264848
N            1.76183427851964        2.09699512419642        5.62529116198926
C           -2.09019035483674        0.23314645855331        5.75121096936560
C           -2.15792665620389       -1.11667037788907        6.08097937282399
N           -1.08039475489942       -1.86092654088999        6.45410194432593
C            0.08747033680799       -1.15939974037964        6.61849595974875
C            1.15370435021758       -1.68568261588746        7.38184501326876
C            2.34078632086475       -1.05063103525187        7.54639325573637
C            2.42532348786581        0.23456060439770        7.03169565865981
C           -3.20153692106890        1.16722826121198        6.00644585666164
C           -4.45841704761631        0.57435125314939        6.04247142360416
C           -4.60656977966894       -0.87115782656540        6.01501920512909
C           -3.46559667593225       -1.70280376499177        6.18481461056478
O           -2.84206414951085        2.43669271462682        6.66372419446433
O           -2.72859611828912        1.79787357420452        3.58750414283672
C            0.34674475509527        5.25783394540250        2.35618201786017
C           -5.91818656240424       -1.58084172963920        5.96286656022876
H            1.82521217474468        4.17602122558306        4.12819269971492
H           -2.16827041458421        3.92274819866819        2.46189116700993
H            3.21507383140030        0.79373704321239        7.45474425997862
H            1.00177817170731       -2.64474923542469        7.85250579137201
H           -3.54840582153969       -2.80663671136285        6.40867369364187
H           -5.31983540943375        1.15247670432758        5.89370456534249
O            1.25103697554491        6.05604783319979        2.73557996934485
O           -0.16565134370268        5.24788469549886        1.07680044393451
C            0.11292909330851        6.34605693909873        0.32439956674183
C            3.48659184686117       -1.72070340327443        8.22831703857757
O            3.44979823769561       -2.92910812198295        8.50289051687127
O            4.49951752097271       -0.92374442505630        8.72954282575500
C            5.45076146380946       -1.79190737657515        9.27275537051994
O           -7.03835820849873       -1.04489708276852        6.03792333067852
O           -5.72566972914643       -2.92646673951137        5.86017194530146
C           -6.91581646139912       -3.70502659721552        5.66974145652004
C           -3.80507393771836        3.36024406545495        6.94928929726022
C           -3.73964127738389        2.15457729302180        2.66628602457091
H           -7.72218724129718       -3.09599194056038        5.29226817270813
H           -7.28211653930718       -3.72004298336168        6.70559747357165
H           -6.66163281050510       -4.68518786316243        5.30594147505002
H            6.15987290749225       -0.99303638445509        9.66006213271221
H            5.99114166262418       -2.28567144002574        8.48295544989529
H            5.25397651912378       -2.52063061119676       10.12611630814440
H           -4.36535335380859        3.02578761954629        2.87266287816100
H           -4.44267247735997        1.32947466135727        2.58609740757774
H           -3.25213462129153        2.26914338357579        1.74958702821403
H           -4.52315245764647        3.04355350040544        7.80292454064056
H           -4.31568094945388        3.55114322596729        6.02940210176541
H           -3.50337707796632        4.35663115335831        7.22538821051014
H            0.77704177396343        6.17515248260397       -0.54227690981382
H            0.69222422429245        7.10332191969770        0.91428404521456
H           -0.87734686418645        6.62502156883740       -0.03739139667132
116
 energy: -22.861146462212 gnorm: 0.380667885719 xtb: 6.6.1 (8d0f1dd)
C           -3.76606788743831        0.77169543982295       -1.14867759629100
C           -3.02498209080386       -0.14651246327907       -0.35339210301384
C           -1.79083272650741        0.28510970467172        0.34160057784599
C           -1.22410037189205        1.56438653159672       -0.01095138374542
C           -1.89095815904909        2.31714433859723       -0.92363287293203
C           -3.12682526578081        1.94260671510428       -1.47463076146488
C           -1.22232920144240       -0.27275513763947        1.54258301927814
C            0.08430774847106        0.12082844934996        1.94072888832580
C            0.68922464707982        1.23711006727277        1.24155659913119
N           -0.00069786996876        2.03926865061389        0.40276958441832
C           -1.73100445523461       -1.37129616746148        2.29150218608452
C           -0.82032692521628       -2.27023282207548        2.96879644276991
N            0.45201996345391       -1.95711660412118        3.20561934185886
C            0.86881360184058       -0.68147507686888        2.89528924258975
C            2.08638151996416       -0.24081397253316        3.30577301102681
C            2.56887770982380        0.94849143932161        2.72558268134743
C            1.93529154607312        1.64313302445089        1.70290427467637
C           -3.13123456499554       -1.71930710169729        2.37901659836440
C           -3.55341327318778       -3.01491213185728        2.77678494070720
C           -2.65010397088665       -3.98154846695589        3.20968015075685
C           -1.35486398765041       -3.54396160079594        3.38081423245470
O           -4.00625448569712       -0.74058995452279        1.85514316628847
O           -3.36365257556543       -1.51929939648226       -0.29755926254208
C           -3.95672485560636        2.89004904409729       -2.26445498539653
C           -3.04948492515527       -5.36157604389409        3.65212115734571
H           -1.46316287013291        3.26323996129380       -1.29546146924159
H           -4.71939959515264        0.46087003369149       -1.60266861355183
H            2.28645777349404        2.55530235358438        1.21451116893301
H            2.66884681179797       -0.79636432649137        3.96900303225746
H           -0.66726986784610       -4.28600272600928        3.75232140601679
H           -4.50506849299304       -3.30122782794350        2.95195632350863
O           -3.73771774204429        4.07256203921116       -2.16507268338222
O           -4.69982331843120        2.23487195980469       -3.19067968575170
C           -5.76139005113462        3.04978258771549       -3.68360924753278
C            4.03714635880964        1.26151351813360        3.01102537257354
O            4.61519453759632        0.71212393303535        3.91042484811542
O            4.47042590030022        2.29202442027110        2.26299865742937
C            5.76288818332044        2.81001702815665        2.74684825441060
O           -4.25720353472291       -5.52960644992181        3.90069284070752
O           -2.17615128812238       -6.38874895006386        3.77493656825119
C           -2.71768114427375       -7.69310790849748        3.82928362948859
C           -5.31879884560447       -0.93702897581129        2.25397712051426
C           -2.19849590304760       -2.37820987172772       -0.58721228459723
H           -2.76509670203042       -8.02364007016100        2.75600962030600
H           -3.65262852694183       -7.60487454326409        4.39815369869148
H           -1.85814559503291       -8.29942182302124        4.39147804609448
H            6.51934727961751        2.97813865764515        1.89253052889175
H            6.25090398237024        2.15777050445165        3.45009143379951
H            5.54362902587222        3.77999103427285        3.36857370805969
H           -1.25326488451552       -1.85143527233983       -1.05944223763103
H           -2.49853024442011       -3.23740423145715       -1.17563141257723
H           -2.10758051022606       -2.66202414692114        0.41294457281408
H           -5.81883772923080       -1.77664694573907        1.70279501743651
H           -6.07269884716736       -0.10658222744745        1.90357755908928
H           -5.39176184743129       -1.19929786704818        3.34047238243182
H           -6.25087755971359        3.67547993742579       -2.95115384229933
H           -6.43714553584968        2.37345770563558       -4.06926271904176
H           -5.38296519288026        3.65101577049013       -4.55910701604356
C           -1.08176555056546        3.89633594884331        3.23117745237448
C           -1.41896192931790        2.64158662712512        3.75782126603458
C           -0.52988737345914        2.07488193677819        4.79892412639458
C            0.71225347850518        2.67710286759412        5.06903196274477
C            0.88623670176005        3.99947096340505        4.51302647165000
C            0.05148531410770        4.60381619634091        3.59766651855140
C           -0.82249979943072        0.88896148239870        5.56905933825409
C            0.24912910516984        0.18891224346229        6.04767884182395
C            1.37862414212926        1.00444256829218        6.40858565812608
N            1.55360272305759        2.22185383342459        5.94479749925471
C           -2.05352148897754        0.21957033343747        5.84268449128045
C           -1.95190706746661       -1.16943317611612        6.26319432131617
N           -0.87294946767518       -1.84481008292940        6.64940730031903
C            0.27593700955371       -1.17958118244530        6.56273452294220
C            1.44957253705553       -1.79041164930515        7.08093246556437
C            2.50012669891121       -0.96667682543107        7.42958233494060
C            2.43162673795443        0.39738441871118        7.07691308329027
C           -3.28976228876158        0.88363477020168        5.58213771930358
C           -4.42049937001860        0.05601811078025        5.55273788692855
C           -4.38954952734599       -1.32814131202228        5.97665702734488
C           -3.17591398113808       -1.79072983141012        6.41567071580443
O           -3.39790002008720        2.26923680178053        5.73592515759924
O           -2.41593885862854        1.81929080305638        3.33349371247387
C            0.42293799090924        5.90218300507909        2.78783024292199
C           -5.59314583319111       -2.22615346109247        5.99651725980027
H            1.97504836463659        4.36880169278014        4.63619924743239
H           -1.69865273328213        4.40125436023510        2.48104094926131
H            3.26359150332061        1.02568539797904        7.30179210470733
H            1.53849597257124       -2.83266321515730        7.41816336196361
H           -3.09461227676479       -2.83595953651002        6.73408983699967
H           -5.36085934231549        0.46368689070436        5.39615640823730
O            1.56081158358422        6.23225766758446        2.82176423253022
O           -0.49818437348731        6.47942695866349        1.93305095840309
C            0.05143273622448        7.63924130406856        1.37831190935950
C            3.69564819948487       -1.55221911468258        8.18656133395755
O            3.55245409462167       -2.70511376629087        8.52770033805263
O            4.86773247331769       -0.76910727797785        8.21851581342803
C            5.94477988405564       -1.55618110511503        8.88319323397446
O           -5.99267331210392       -2.83662850888090        6.92591732619706
O           -6.13056393213076       -2.35137615126785        4.71662183089120
C           -7.02068097525637       -3.43399848032811        4.52331516441463
C           -4.55925555741691        2.81926763804762        6.20935299281306
C           -3.48173650206277        2.33428842045882        2.54319171028899
H           -7.98467772088866       -3.21066999093989        5.09724370378457
H           -6.77938033519531       -4.38530336230904        5.01084758068851
H           -7.06244321246140       -3.62958802778513        3.40982961350103
H            6.92864066819064       -1.37817008004490        8.51720016174690
H            5.95486728469866       -2.69382635575561        8.68982137289187
H            5.98709198797566       -1.18946412497913        9.90350459905386
H           -3.73215941913461        3.26105551347892        3.00953569376430
H           -4.30938730548279        1.61174868689128        2.47952624504197
H           -3.18203639388996        2.35572215148328        1.46465762916082
H           -4.18022419908283        3.62556580644571        6.85902790143382
H           -5.22249032331309        2.04160381461244        6.72155586520101
H           -5.18993502820808        3.28521833095386        5.50523856795330
H           -0.33148099255904        7.64336370442504        0.38959120403414
H            1.13775810661848        7.48018675334104        1.31645130410132
H           -0.32021881230449        8.48389292366743        1.82940460876210
116
 energy: -22.881810261926 gnorm: 0.386718359491 xtb: 6.6.1 (8d0f1dd)
C           -2.85295284060690        0.36220697235285       -1.86245762581885
C           -2.21672793510684       -0.37078376753418       -0.86331104627016
C           -1.38303295071784        0.18640694035070        0.20029872535316
C           -1.03872051797986        1.59403701955333        0.13499784568869
C           -1.56942085936339        2.28217910376998       -0.98056390699450
C           -2.54620791595102        1.71528321978375       -1.84488183511900
C           -1.01143568886489       -0.59723067621430        1.30059824271432
C            0.16673653850425       -0.17973776934785        1.89279173648928
C            0.70920813320803        1.08076550884281        1.55486196606127
N            0.01335693394547        2.04814176786049        0.88985435073470
C           -1.70204536407180       -1.64240334795200        1.99151769031125
C           -0.86886531132616       -2.46691165340213        2.90523417157507
N            0.43520795685044       -2.20857130224823        3.27624631188467
C            0.89326789730015       -1.03902547432632        2.77398780584142
C            2.20046715083799       -0.64617099609019        3.26164788444064
C            2.71149837402920        0.61197522397993        2.96422627236041
C            2.03928767499680        1.39388125670579        2.04913179741401
C           -3.14750194829378       -1.88630428791893        1.88606085017587
C           -3.66202525684731       -3.03095403972181        2.46522319614188
C           -2.84300129804777       -3.78821511130693        3.33184384650140
C           -1.52290611005282       -3.54160564277405        3.57247185743291
O           -3.97698064441489       -0.96607009475743        1.22288006197300
O           -2.22117168535135       -1.83260307779128       -0.87691296970291
C           -3.15825204737445        2.73856440173311       -2.77147207476966
C           -3.59539872717186       -4.74628806110380        4.22599588004001
H           -1.43284275287489        3.37476834170427       -0.99920842475380
H           -3.61344428341677        0.03577787110366       -2.59577336856851
H            2.22375660029848        2.50253687487726        2.05332551189784
H            2.79031315224238       -1.28003235215246        3.91024731625580
H           -1.04957184822154       -3.95526737519065        4.41456078831192
H           -4.73083870469819       -3.27189206431024        2.47340361654926
O           -2.76652636568540        3.90953937319384       -2.87902644235594