Optimization of monomers started
Stacking dimer
Calculating transfer integral
Reorganization energy (electron): 0.13483606682300253 eV
Reorganization energy (hole): 0.13449880388776345 eV
Electron Transfer integral J: 0.008 eV
Hole Transfer integral J: 0.004 eV
                   |     
     |                         S. Grimme                         |     
     |          Mulliken Center for Theoretical Chemistry        |     
     |                    University of Bonn                     |     
      -----------------------------------------------------------      

   * xtb version 6.7.1 (edcfbbe) compiled by 'runner@Mac-1732539442253.local' on 2024-11-25

   xtb is free software: you can redistribute it and/or modify it under
   the terms of the GNU Lesser General Public License as published by
   the Free Software Foundation, either version 3 of the License, or
   (at your option) any later version.
   
   xtb is distributed in the hope that it will be useful,
   but WITHOUT ANY WARRANTY; without even the implied warranty of
   MERCHANTABILITY or FITNESS FOR A PARTICULAR PURPOSE.  See the
   GNU Lesser General Public License for more details.
   
   Cite this work as:
   * C. Bannwarth, E. Caldeweyher, S. Ehlert, A. Hansen, P. Pracht,
     J. Seibert, S. Spicher, S. Grimme, WIREs Comput. Mol. Sci., 2020, 11,
     e01493. DOI: 10.1002/wcms.1493
   
   for GFN2-xTB:
   * C. Bannwarth, S. Ehlert and S. Grimme., J. Chem. Theory Comput., 2019,
     15, 1652-1671. DOI: 10.1021/acs.jctc.8b01176
   for GFN1-xTB:
   * S. Grimme, C. Bannwarth, P. Shushkov, J. Chem. Theory Comput., 2017,
     13, 1989-2009. DOI: 10.1021/acs.jctc.7b00118
   for GFN0-xTB:
   * P. Pracht, E. Caldeweyher, S. Ehlert, S. Grimme, ChemRxiv, 2019, preprint.
     DOI: 10.26434/chemrxiv.8326202.v1
   for GFN-FF:
   * S. Spicher and S. Grimme, Angew. Chem. Int. Ed., 2020, 59, 15665-15673.
     DOI: 10.1002/anie.202004239
   
   for ALPB and GBSA implicit solvation:
   * S. Ehlert, M. Stahn, S. Spicher, S. Grimme, J. Chem. Theory Comput.,
     2021, 17, 4250-4261. DOI: 10.1021/acs.jctc.1c00471
   
   for ddCOSMO and CPCM-X implicit solvation:
   * M. Stahn, S. Ehlert, S. Grimme, J. Phys. Chem. A,
     2023, XX, XXXX-XXXX. DOI: 10.1021/acs.jpca.3c04382
   
   for DFT-D4:
   * E. Caldeweyher, C. Bannwarth and S. Grimme, J. Chem. Phys., 2017,
     147, 034112. DOI: 10.1063/1.4993215
   * E. Caldeweyher, S. Ehlert, A. Hansen, H. Neugebauer, S. Spicher,
     C. Bannwarth and S. Grimme, J. Chem. Phys., 2019, 150, 154122.
     DOI: 10.1063/1.5090222
   * E. Caldeweyher, J.-M. Mewes, S. Ehlert and S. Grimme, Phys. Chem. Chem. Phys.
     2020, 22, 8499-8512. DOI: 10.1039/D0CP00502A
   
   for sTDA-xTB:
   * S. Grimme and C. Bannwarth, J. Chem. Phys., 2016, 145, 054103.
     DOI: 10.1063/1.4959605
   
   in the mass-spec context:
   * V. Asgeirsson, C. Bauer and S. Grimme, Chem. Sci., 2017, 8, 4879.
     DOI: 10.1039/c7sc00601b
   * J. Koopman and S. Grimme, ACS Omega 2019, 4, 12, 15120-15133.
     DOI: 10.1021/acsomega.9b02011
   
   for metadynamics refer to:
   * S. Grimme, J. Chem. Theory Comput., 2019, 155, 2847-2862
     DOI: 10.1021/acs.jctc.9b00143
   
   for SPH calculations refer to:
   * S. Spicher and S. Grimme, J. Chem. Theory Comput., 2021, 17, 1701-1714
     DOI: 10.1021/acs.jctc.0c01306
   
   for ONIOM refer to:
   * C. Plett, A. Katbashev, S. Ehlert, S. Grimme, M. Bursch,
     Phys. Chem. Chem. Phys., 2023, 25, 17860-17868. DOI: 10.1039/D3CP02178E
   
   for DIPRO refer to:
   * J. Kohn, N. Gildemeister, S. Grimme, D. Fazzi, A. Hansen,
     J. Chem. Phys., 2023, just accepted.
   
   for PTB refer to:
   * S. Grimme, M. Mueller, A. Hansen, J. Chem. Phys., 2023, 158, 124111.
     DOI: 10.1063/5.0137838
   
   with help from (in alphabetical order)
   P. Atkinson, C. Bannwarth, F. Bohle, G. Brandenburg, E. Caldeweyher
   M. Checinski, S. Dohm, S. Ehlert, S. Ehrlich, I. Gerasimov, C. Hölzer
   A. Katbashev, J. Kohn, J. Koopman, C. Lavigne, S. Lehtola, F. März, M. Müller,
   F. Musil, H. Neugebauer, J. Pisarek, C. Plett, P. Pracht, F. Pultar,
   J. Seibert, P. Shushkov, S. Spicher, M. Stahn, M. Steiner, T. Strunk,
   J. Stückrath, T. Rose, and J. Unsleber
   
 * started run on 2024/12/02 at 11:50:18.346     
   ID    Z sym.   atoms
    1    6 C      1-9, 11, 12, 14-21, 24, 25, 34, 35, 38, 41-43
    2    7 N      10, 13
    3    8 O      22, 23, 32, 33, 36, 37, 39, 40
    4    1 H      26-31, 44-58

           -------------------------------------------------
          |                Calculation Setup                |
           -------------------------------------------------

          program call               : xtb Base3CO2Me.mol --opt --gfn 2 --chrg 0 --uhf 1 --vtight
          coordinate file            : Base3CO2Me.mol
          omp threads                :                     8

########################################################################
[WARNING] Please study the warnings concerning your input carefully
-1- prog_main_parseArguments: Unknown option '--vtight' provided
########################################################################

           -------------------------------------------------
          |                 G F N 2 - x T B                 |
           -------------------------------------------------

        Reference                      10.1021/acs.jctc.8b01176
      * Hamiltonian:
        H0-scaling (s, p, d)           1.850000    2.230000    2.230000
        zeta-weighting                 0.500000
      * Dispersion:
        s8                             2.700000
        a1                             0.520000
        a2                             5.000000
        s9                             5.000000
      * Repulsion:
        kExp                           1.500000    1.000000
        rExp                           1.000000
      * Coulomb:
        alpha                          2.000000
        third order                    shell-resolved
        anisotropic                    true
        a3                             3.000000
        a5                             4.000000
        cn-shift                       1.200000
        cn-exp                         4.000000
        max-rad                        5.000000


          ...................................................
          :                      SETUP                      :
          :.................................................:
          :  # basis functions                 169          :
          :  # atomic orbitals                 169          :
          :  # shells                           95          :
          :  # electrons                       187          :
          :  max. iterations                   250          :
          :  Hamiltonian                  GFN2-xTB          :
          :  restarted?                      false          :
          :  GBSA solvation                  false          :
          :  PC potential                    false          :
          :  electronic temp.          300.0000000     K    :
          :  accuracy                    1.0000000          :
          :  -> integral cutoff          0.2500000E+02      :
          :  -> integral neglect         0.1000000E-07      :
          :  -> SCF convergence          0.1000000E-05 Eh   :
          :  -> wf. convergence          0.1000000E-03 e    :
          :  Broyden damping             0.4000000          :
          :  net charge                          0          :
          :  unpaired electrons                  1          :
          ...................................................

 iter      E             dE          RMSdq      gap      omega  full diag
   1   -108.0065654 -0.108007E+03  0.497E+00    1.40       0.0  T
   2   -108.1564972 -0.149932E+00  0.280E+00    1.34       1.0  T
   3   -108.1411247  0.153725E-01  0.140E+00    1.43       1.0  T
   4   -108.1727638 -0.316391E-01  0.456E-01    1.35       1.0  T
   5   -108.1833717 -0.106079E-01  0.164E-01    1.35       1.0  T
   6   -108.1844440 -0.107225E-02  0.809E-02    1.36       1.0  T
   7   -108.1844565 -0.125552E-04  0.630E-02    1.36       1.0  T
   8   -108.1846724 -0.215894E-03  0.290E-02    1.36       1.0  T
   9   -108.1847175 -0.450815E-04  0.868E-03    1.36       1.5  T
  10   -108.1847190 -0.148079E-05  0.389E-03    1.36       3.4  T
  11   -108.1847194 -0.398271E-06  0.217E-03    1.36       6.1  T
  12   -108.1847195 -0.158313E-06  0.773E-04    1.36      17.0  T
  13   -108.1847195 -0.715247E-08  0.406E-04    1.36      32.4  T

   *** convergence criteria satisfied after 13 iterations ***

         #    Occupation            Energy/Eh            Energy/eV
      -------------------------------------------------------------
         1        2.0000           -0.7463716             -20.3098
       ...           ...                  ...                  ...
        88        2.0000           -0.4186464             -11.3919
        89        2.0000           -0.4168567             -11.3432
        90        2.0000           -0.4059061             -11.0453
        91        2.0000           -0.3896331             -10.6025
        92        2.0000           -0.3861323             -10.5072
        93        1.9771           -0.3705655             -10.0836
        94        1.0229           -0.3634375              -9.8896 (HOMO)
        95                         -0.3135035              -8.5309 (LUMO)
        96                         -0.2875343              -7.8242
        97                         -0.2873585              -7.8194
        98                         -0.2572759              -7.0008
        99                         -0.2479518              -6.7471
       ...                                ...                  ...
       169                          0.6709415              18.2572
      -------------------------------------------------------------
                  HL-Gap            0.0499340 Eh            1.3588 eV
             Fermi-level           -0.3527360 Eh           -9.5984 eV

 SCC (total)                   0 d,  0 h,  0 min,  0.225 sec
 SCC setup                      ...        0 min,  0.000 sec (  0.073%)
 Dispersion                     ...        0 min,  0.000 sec (  0.169%)
 classical contributions        ...        0 min,  0.000 sec (  0.046%)
 integral evaluation            ...        0 min,  0.002 sec (  0.882%)
 iterations                     ...        0 min,  0.209 sec ( 92.658%)
 molecular gradient             ...        0 min,  0.011 sec (  5.069%)
 printout                       ...        0 min,  0.002 sec (  1.099%)

         :::::::::::::::::::::::::::::::::::::::::::::::::::::
         ::                     SUMMARY                     ::
         :::::::::::::::::::::::::::::::::::::::::::::::::::::
         :: total energy            -106.899306940906 Eh    ::
         :: gradient norm              0.178597025128 Eh/a0 ::
         :: HOMO-LUMO gap              1.358773157693 eV    ::
         ::.................................................::
         :: SCC energy              -108.184894561978 Eh    ::
         :: -> isotropic ES            0.175728991268 Eh    ::
         :: -> anisotropic ES          0.001388037540 Eh    ::
         :: -> anisotropic XC          0.026137829716 Eh    ::
         :: -> dispersion             -0.072573779885 Eh    ::
         :: repulsion energy           1.285587621072 Eh    ::
         :: add. restraining           0.000000000000 Eh    ::
         :: total charge              -0.000000000000 e     ::
         :::::::::::::::::::::::::::::::::::::::::::::::::::::

      ----------------------------------------------------------- 
     |                   =====================                   |
     |                        A N C O P T                        |
     |                   =====================                   |
     |               Approximate Normal Coordinate               |
     |                Rational Function Optimizer                |
      ----------------------------------------------------------- 
      ----------------------------------------------------------- 
     |                   =====================                   |
     |                        A N C O P T                        |
     |                   =====================                   |
     |               Approximate Normal Coordinate               |
     |                Rational Function Optimizer                |
      ----------------------------------------------------------- 

          ...................................................
          :                      SETUP                      :
          :.................................................:
          :   optimization level            normal          :
          :   max. optcycles                   200          :
          :   ANC micro-cycles                  20          :
          :   degrees of freedom               168          :
          :.................................................:
          :   RF solver                   davidson          :
          :   write xtbopt.log                true          :
          :   linear?                        false          :
          :   energy convergence         0.5000000E-05 Eh   :
          :   grad. convergence          0.1000000E-02 Eh/α :
          :   maxmium RF displ.          1.0000000          :
          :   Hlow (freq-cutoff)         0.1000000E-01      :
          :   Hmax (freq-cutoff)         5.0000000          :
          :   S6 in model hess.         20.0000000          :
          ...................................................

generating ANC from exact Hessian ...
Using Lindh-Hessian (1995)
 Shifting diagonal of input Hessian by    9.8260030622742810E-003
 Lowest  eigenvalues of input Hessian
    0.000000    0.000000    0.000000    0.000000    0.000000    0.000000
    0.010000    0.010142    0.010269    0.010812    0.010997    0.011311
    0.011612    0.011791    0.012399    0.012536    0.012571    0.012837
 Highest eigenvalues
    2.058862    2.168827    2.174665    2.265378    2.265969    2.266411


........................................................................
.............................. CYCLE    1 ..............................
........................................................................

 iter      E             dE          RMSdq      gap      omega  full diag
   1   -108.1847195 -0.108185E+03  0.161E-04    1.36       0.0  T
   2   -108.1847195 -0.101423E-09  0.114E-04    1.36     115.5  T
   3   -108.1847195 -0.470706E-09  0.737E-05    1.36     178.1  T
     SCC iter.                  ...        0 min,  0.043 sec
     gradient                   ...        0 min,  0.009 sec
 * total energy  :  -106.8993069 Eh     change       -0.6666554E-08 Eh
   gradient norm :     0.1785978 Eh/α   predicted     0.0000000E+00 (-100.00%)
   displ. norm   :     0.3908835 α      lambda       -0.3655761E-01
   maximum displ.:     0.1867231 α      in ANC's #25, #84, #55, ...

........................................................................
.............................. CYCLE    2 ..............................
........................................................................

 iter      E             dE          RMSdq      gap      omega  full diag
   1   -108.2365190 -0.108237E+03  0.257E-01    1.42       0.0  T
   2   -108.2368065 -0.287528E-03  0.150E-01    1.42       1.0  T
   3   -108.2365419  0.264591E-03  0.893E-02    1.41       1.0  T
   4   -108.2367980 -0.256117E-03  0.364E-02    1.41       1.0  T
   5   -108.2368962 -0.981964E-04  0.131E-02    1.41       1.0  T
   6   -108.2369084 -0.121237E-04  0.531E-03    1.41       2.5  T
   7   -108.2369091 -0.731709E-06  0.294E-03    1.42       4.5  T
   8   -108.2369092 -0.146789E-06  0.121E-03    1.42      10.9  T
   9   -108.2369093 -0.452956E-07  0.513E-04    1.42      25.6  T
  10   -108.2369093 -0.626065E-08  0.222E-04    1.42      59.0  T
     SCC iter.                  ...        0 min,  0.178 sec
     gradient                   ...        0 min,  0.013 sec
 * total energy  :  -106.9261290 Eh     change       -0.2682202E-01 Eh
   gradient norm :     0.0850496 Eh/α   predicted    -0.2111010E-01 ( -21.30%)
   displ. norm   :     0.4624952 α      lambda       -0.1659550E-01
   maximum displ.:     0.3039108 α      in ANC's #25, #28, #34, ...

........................................................................
.............................. CYCLE    3 ..............................
........................................................................

 iter      E             dE          RMSdq      gap      omega  full diag
   1   -108.2740165 -0.108274E+03  0.204E-01    1.47       0.0  T
   2   -108.2742180 -0.201485E-03  0.119E-01    1.47       1.0  T
   3   -108.2740494  0.168599E-03  0.770E-02    1.46       1.0  T
   4   -108.2742614 -0.212066E-03  0.254E-02    1.46       1.0  T
   5   -108.2743022 -0.407183E-04  0.101E-02    1.46       1.3  T
   6   -108.2743088 -0.661158E-05  0.434E-03    1.46       3.0  T
   7   -108.2743094 -0.606804E-06  0.219E-03    1.46       6.0  T
   8   -108.2743095 -0.823181E-07  0.996E-04    1.46      13.2  T
   9   -108.2743095 -0.281209E-07  0.424E-04    1.46      30.9  T
     SCC iter.                  ...        0 min,  0.129 sec
     gradient                   ...        0 min,  0.009 sec
 * total energy  :  -106.9365391 Eh     change       -0.1041011E-01 Eh
   gradient norm :     0.0166220 Eh/α   predicted    -0.1007266E-01 (  -3.24%)
   displ. norm   :     0.4037199 α      lambda       -0.3802584E-02
   maximum displ.:     0.2570094 α      in ANC's #25, #19, #24, ...

........................................................................
.............................. CYCLE    4 ..............................
........................................................................

 iter      E             dE          RMSdq      gap      omega  full diag
   1   -108.2904176 -0.108290E+03  0.108E-01    1.48       0.0  T
   2   -108.2904337 -0.161376E-04  0.647E-02    1.48       1.0  T
   3   -108.2903595  0.741958E-04  0.373E-02    1.48       1.0  T
   4   -108.2904423 -0.828168E-04  0.822E-03    1.48       1.6  T
   5   -108.2904465 -0.419485E-05  0.388E-03    1.48       3.4  T
   6   -108.2904475 -0.934780E-06  0.161E-03    1.48       8.2  T
   7   -108.2904475 -0.735882E-07  0.757E-04    1.48      17.4  T
   8   -108.2904475 -0.111648E-07  0.335E-04    1.48      39.1  T
     SCC iter.                  ...        0 min,  0.165 sec
     gradient                   ...        0 min,  0.010 sec
 * total energy  :  -106.9393090 Eh     change       -0.2769959E-02 Eh
   gradient norm :     0.0136778 Eh/α   predicted    -0.2211719E-02 ( -20.15%)
   displ. norm   :     0.4262293 α      lambda       -0.2139713E-02
   maximum displ.:     0.2132568 α      in ANC's #25, #4, #7, ...

........................................................................
.............................. CYCLE    5 ..............................
........................................................................

 iter      E             dE          RMSdq      gap      omega  full diag
   1   -108.3017704 -0.108302E+03  0.994E-02    1.48       0.0  T
   2   -108.3017932 -0.227388E-04  0.598E-02    1.48       1.0  T
   3   -108.3017576  0.355704E-04  0.266E-02    1.48       1.0  T
   4   -108.3017901 -0.324741E-04  0.107E-02    1.48       1.2  T
   5   -108.3017990 -0.891428E-05  0.330E-03    1.48       4.0  T
   6   -108.3017997 -0.684618E-06  0.127E-03    1.48      10.3  T
   7   -108.3017997 -0.375561E-07  0.606E-04    1.48      21.7  T
   8   -108.3017997 -0.817217E-08  0.221E-04    1.48      59.4  T
     SCC iter.                  ...        0 min,  0.142 sec
     gradient                   ...        0 min,  0.013 sec
 * total energy  :  -106.9407819 Eh     change       -0.1472839E-02 Eh
   gradient norm :     0.0090363 Eh/α   predicted    -0.1264231E-02 ( -14.16%)
   displ. norm   :     0.3607182 α      lambda       -0.9028237E-03
   maximum displ.:     0.1866805 α      in ANC's #4, #3, #7, ...

........................................................................
.............................. CYCLE    6 ..............................
........................................................................

 iter      E             dE          RMSdq      gap      omega  full diag
   1   -108.3071035 -0.108307E+03  0.732E-02    1.48       0.0  T
   2   -108.3071145 -0.110785E-04  0.435E-02    1.48       1.0  T
   3   -108.3070983  0.162260E-04  0.167E-02    1.48       1.0  T
   4   -108.3071123 -0.139597E-04  0.777E-03    1.48       1.7  T
   5   -108.3071171 -0.482170E-05  0.220E-03    1.48       6.0  T
   6   -108.3071173 -0.238444E-06  0.960E-04    1.48      13.7  T
   7   -108.3071174 -0.209166E-07  0.460E-04    1.48      28.5  T
     SCC iter.                  ...        0 min,  0.106 sec
     gradient                   ...        0 min,  0.010 sec
 * total energy  :  -106.9414551 Eh     change       -0.6732289E-03 Eh
   gradient norm :     0.0061648 Eh/α   predicted    -0.5102036E-03 ( -24.22%)
   displ. norm   :     0.3898892 α      lambda       -0.7032314E-03
   maximum displ.:     0.2266360 α      in ANC's #4, #3, #7, ...

........................................................................
.............................. CYCLE    7 ..............................
........................................................................

 iter      E             dE          RMSdq      gap      omega  full diag
   1   -108.3091635 -0.108309E+03  0.717E-02    1.48       0.0  T
   2   -108.3091689 -0.535885E-05  0.424E-02    1.48       1.0  T
   3   -108.3091488  0.200287E-04  0.162E-02    1.48       1.0  T
   4   -108.3091698 -0.209547E-04  0.518E-03    1.48       2.5  T
   5   -108.3091715 -0.167511E-05  0.211E-03    1.48       6.2  T
   6   -108.3091716 -0.181345E-06  0.979E-04    1.48      13.4  T
   7   -108.3091717 -0.325700E-07  0.467E-04    1.48      28.1  T
     SCC iter.                  ...        0 min,  0.115 sec
     gradient                   ...        0 min,  0.012 sec
 * total energy  :  -106.9420142 Eh     change       -0.5590595E-03 Eh
   gradient norm :     0.0066471 Eh/α   predicted    -0.4050663E-03 ( -27.55%)
   displ. norm   :     0.4153789 α      lambda       -0.6330959E-03
   maximum displ.:     0.2525892 α      in ANC's #4, #3, #7, ...

........................................................................
.............................. CYCLE    8 ..............................
........................................................................

 iter      E             dE          RMSdq      gap      omega  full diag
   1   -108.3086612 -0.108309E+03  0.738E-02    1.48       0.0  T
   2   -108.3086651 -0.389041E-05  0.437E-02    1.48       1.0  T
   3   -108.3086449  0.201534E-04  0.161E-02    1.48       1.0  T
   4   -108.3086672 -0.222290E-04  0.378E-03    1.48       3.5  T
   5   -108.3086678 -0.586914E-06  0.203E-03    1.48       6.5  T
   6   -108.3086679 -0.167361E-06  0.895E-04    1.48      14.7  T
   7   -108.3086680 -0.322159E-07  0.449E-04    1.48      29.2  T
     SCC iter.                  ...        0 min,  0.100 sec
     gradient                   ...        0 min,  0.010 sec
 * total energy  :  -106.9425125 Eh     change       -0.4983328E-03 Eh
   gradient norm :     0.0066604 Eh/α   predicted    -0.3711711E-03 ( -25.52%)
   displ. norm   :     0.3779847 α      lambda       -0.4533432E-03
   maximum displ.:     0.2449375 α      in ANC's #4, #3, #7, ...

........................................................................
.............................. CYCLE    9 ..............................
........................................................................

 iter      E             dE          RMSdq      gap      omega  full diag
   1   -108.3078020 -0.108308E+03  0.625E-02    1.48       0.0  T
   2   -108.3078061 -0.408341E-05  0.371E-02    1.48       1.0  T
   3   -108.3077927  0.133960E-04  0.137E-02    1.48       1.0  T
   4   -108.3078074 -0.147398E-04  0.336E-03    1.48       3.9  T
   5   -108.3078081 -0.690182E-06  0.142E-03    1.48       9.2  T
   6   -108.3078082 -0.819192E-07  0.649E-04    1.48      20.2  T
   7   -108.3078082 -0.730107E-08  0.310E-04    1.48      42.4  T
     SCC iter.                  ...        0 min,  0.100 sec
     gradient                   ...        0 min,  0.010 sec
 * total energy  :  -106.9428553 Eh     change       -0.3427983E-03 Eh
   gradient norm :     0.0047176 Eh/α   predicted    -0.2590571E-03 ( -24.43%)
   displ. norm   :     0.2901605 α      lambda       -0.2598879E-03
   maximum displ.:     0.1991947 α      in ANC's #4, #3, #15, ...

........................................................................
.............................. CYCLE   10 ..............................
........................................................................

 iter      E             dE          RMSdq      gap      omega  full diag
   1   -108.3075247 -0.108308E+03  0.451E-02    1.48       0.0  T
   2   -108.3075264 -0.173987E-05  0.269E-02    1.48       1.0  T
   3   -108.3075173  0.911721E-05  0.108E-02    1.48       1.2  T
   4   -108.3075271 -0.986216E-05  0.243E-03    1.48       5.4  T
   5   -108.3075275 -0.370538E-06  0.111E-03    1.48      11.9  T
   6   -108.3075276 -0.484918E-07  0.607E-04    1.48      21.6  T
   7   -108.3075276 -0.113683E-07  0.317E-04    1.48      41.4  T
     SCC iter.                  ...        0 min,  0.113 sec
     gradient                   ...        0 min,  0.010 sec
 * total energy  :  -106.9430584 Eh     change       -0.2030834E-03 Eh
   gradient norm :     0.0037146 Eh/α   predicted    -0.1408890E-03 ( -30.63%)
   displ. norm   :     0.2378583 α      lambda       -0.1911372E-03
   maximum displ.:     0.1674053 α      in ANC's #4, #3, #15, ...

........................................................................
.............................. CYCLE   11 ..............................
........................................................................

 iter      E             dE          RMSdq      gap      omega  full diag
   1   -108.3081954 -0.108308E+03  0.336E-02    1.48       0.0  T
   2   -108.3081961 -0.715120E-06  0.202E-02    1.48       1.0  T
   3   -108.3081897  0.639900E-05  0.920E-03    1.48       1.4  T
   4   -108.3081967 -0.699081E-05  0.158E-03    1.48       8.3  T
   5   -108.3081968 -0.128955E-06  0.832E-04    1.48      15.8  T
   6   -108.3081968 -0.307843E-07  0.452E-04    1.48      29.1  T
     SCC iter.                  ...        0 min,  0.116 sec
     gradient                   ...        0 min,  0.010 sec
 * total energy  :  -106.9432185 Eh     change       -0.1600958E-03 Eh
   gradient norm :     0.0035852 Eh/α   predicted    -0.1009849E-03 ( -36.92%)
   displ. norm   :     0.2660492 α      lambda       -0.2034836E-03
   maximum displ.:     0.1817342 α      in ANC's #4, #3, #19, ...

........................................................................
.............................. CYCLE   12 ..............................
........................................................................

 iter      E             dE          RMSdq      gap      omega  full diag
   1   -108.3088391 -0.108309E+03  0.374E-02    1.48       0.0  T
   2   -108.3088394 -0.331735E-06  0.225E-02    1.48       1.0  T
   3   -108.3088315  0.787437E-05  0.100E-02    1.48       1.3  T
   4   -108.3088401 -0.860007E-05  0.141E-03    1.48       9.3  T
   5   -108.3088402 -0.625862E-07  0.846E-04    1.48      15.5  T
   6   -108.3088402 -0.213535E-07  0.458E-04    1.48      28.7  T
     SCC iter.                  ...        0 min,  0.086 sec
     gradient                   ...        0 min,  0.008 sec
 * total energy  :  -106.9433898 Eh     change       -0.1712902E-03 Eh
   gradient norm :     0.0035979 Eh/α   predicted    -0.1089455E-03 ( -36.40%)
   displ. norm   :     0.3251017 α      lambda       -0.2117803E-03
   maximum displ.:     0.2160690 α      in ANC's #4, #3, #19, ...

........................................................................
.............................. CYCLE   13 ..............................
........................................................................

 iter      E             dE          RMSdq      gap      omega  full diag
   1   -108.3093963 -0.108309E+03  0.446E-02    1.48       0.0  T
   2   -108.3093971 -0.788580E-06  0.267E-02    1.48       1.0  T
   3   -108.3093893  0.778705E-05  0.987E-03    1.48       1.3  T
   4   -108.3093978 -0.849023E-05  0.175E-03    1.48       7.5  T
   5   -108.3093979 -0.127247E-06  0.900E-04    1.48      14.6  T
   6   -108.3093979 -0.140567E-07  0.569E-04    1.48      23.1  T
     SCC iter.                  ...        0 min,  0.085 sec
     gradient                   ...        0 min,  0.011 sec
 * total energy  :  -106.9435603 Eh     change       -0.1705368E-03 Eh
   gradient norm :     0.0035520 Eh/α   predicted    -0.1170840E-03 ( -31.34%)
   displ. norm   :     0.3380382 α      lambda       -0.1653311E-03
   maximum displ.:     0.2228036 α      in ANC's #3, #4, #8, ...

........................................................................
.............................. CYCLE   14 ..............................
........................................................................

 iter      E             dE          RMSdq      gap      omega  full diag
   1   -108.3095617 -0.108310E+03  0.448E-02    1.48       0.0  T
   2   -108.3095626 -0.870811E-06  0.268E-02    1.48       1.0  T
   3   -108.3095553  0.735435E-05  0.915E-03    1.48       1.4  T
   4   -108.3095632 -0.797867E-05  0.186E-03    1.48       7.0  T
   5   -108.3095634 -0.168769E-06  0.852E-04    1.48      15.4  T
   6   -108.3095634 -0.539031E-08  0.555E-04    1.48      23.7  T
     SCC iter.                  ...        0 min,  0.086 sec
     gradient                   ...        0 min,  0.010 sec
 * total energy  :  -106.9436872 Eh     change       -0.1268564E-03 Eh
   gradient norm :     0.0033564 Eh/α   predicted    -0.9211288E-04 ( -27.39%)
   displ. norm   :     0.2958856 α      lambda       -0.1040876E-03
   maximum displ.:     0.1988502 α      in ANC's #3, #4, #1, ...

........................................................................
.............................. CYCLE   15 ..............................
........................................................................

 iter      E             dE          RMSdq      gap      omega  full diag
   1   -108.3098010 -0.108310E+03  0.372E-02    1.48       0.0  T
   2   -108.3098015 -0.552119E-06  0.223E-02    1.48       1.0  T
   3   -108.3097962  0.526920E-05  0.748E-03    1.48       1.8  T
   4   -108.3098020 -0.572539E-05  0.148E-03    1.48       8.9  T
   5   -108.3098021 -0.979073E-07  0.721E-04    1.48      18.2  T
   6   -108.3098021 -0.418072E-08  0.475E-04    1.48      27.6  T
     SCC iter.                  ...        0 min,  0.117 sec
     gradient                   ...        0 min,  0.016 sec
 * total energy  :  -106.9437640 Eh     change       -0.7685342E-04 Eh
   gradient norm :     0.0027303 Eh/α   predicted    -0.5660356E-04 ( -26.35%)
   displ. norm   :     0.2002631 α      lambda       -0.5448803E-04
   maximum displ.:     0.1388145 α      in ANC's #3, #4, #18, ...

........................................................................
.............................. CYCLE   16 ..............................
........................................................................

 iter      E             dE          RMSdq      gap      omega  full diag
   1   -108.3100244 -0.108310E+03  0.256E-02    1.48       0.0  T
   2   -108.3100246 -0.205950E-06  0.153E-02    1.48       1.0  T
   3   -108.3100218  0.279836E-05  0.537E-03    1.48       2.4  T
   4   -108.3100249 -0.304929E-05  0.947E-04    1.48      13.9  T
   5   -108.3100249 -0.264538E-07  0.571E-04    1.48      23.0  T
   6   -108.3100249 -0.811308E-08  0.346E-04    1.48      38.0  T
     SCC iter.                  ...        0 min,  0.087 sec
     gradient                   ...        0 min,  0.010 sec
 * total energy  :  -106.9438045 Eh     change       -0.4052675E-04 Eh
   gradient norm :     0.0018800 Eh/α   predicted    -0.2834074E-04 ( -30.07%)
   displ. norm   :     0.1929944 α      lambda       -0.3155544E-04
   maximum displ.:     0.1368188 α      in ANC's #3, #4, #18, ...

........................................................................
.............................. CYCLE   17 ..............................
........................................................................

 iter      E             dE          RMSdq      gap      omega  full diag
   1   -108.3103664 -0.108310E+03  0.298E-02    1.48       0.0  T
   2   -108.3103667 -0.281286E-06  0.176E-02    1.48       1.0  T
   3   -108.3103642  0.245446E-05  0.525E-03    1.48       2.5  T
   4   -108.3103669 -0.266246E-05  0.115E-03    1.48      11.5  T
   5   -108.3103669 -0.460855E-07  0.688E-04    1.48      19.1  T
   6   -108.3103670 -0.183790E-07  0.349E-04    1.48      37.7  T
     SCC iter.                  ...        0 min,  0.089 sec
     gradient                   ...        0 min,  0.008 sec
 * total energy  :  -106.9438333 Eh     change       -0.2871667E-04 Eh
   gradient norm :     0.0014950 Eh/α   predicted    -0.1604129E-04 ( -44.14%)
   displ. norm   :     0.0691200 α      lambda       -0.1268332E-04
   maximum displ.:     0.0475146 α      in ANC's #3, #11, #14, ...

........................................................................
.............................. CYCLE   18 ..............................
........................................................................

 iter      E             dE          RMSdq      gap      omega  full diag
   1   -108.3101581 -0.108310E+03  0.170E-02    1.48       0.0  T
   2   -108.3101583 -0.133112E-06  0.998E-03    1.48       1.3  T
   3   -108.3101576  0.675913E-06  0.303E-03    1.48       4.3  T
   4   -108.3101583 -0.710292E-06  0.806E-04    1.48      16.3  T
   5   -108.3101583 -0.348774E-07  0.385E-04    1.48      34.1  T
     SCC iter.                  ...        0 min,  0.071 sec
     gradient                   ...        0 min,  0.008 sec
 * total energy  :  -106.9438457 Eh     change       -0.1241252E-04 Eh
   gradient norm :     0.0015112 Eh/α   predicted    -0.6356836E-05 ( -48.79%)
   displ. norm   :     0.0828662 α      lambda       -0.1448795E-04
   maximum displ.:     0.0422185 α      in ANC's #3, #11, #14, ...

........................................................................
.............................. CYCLE   19 ..............................
........................................................................

 iter      E             dE          RMSdq      gap      omega  full diag
   1   -108.3101809 -0.108310E+03  0.233E-02    1.48       0.0  T
   2   -108.3101811 -0.267103E-06  0.136E-02    1.48       1.0  T
   3   -108.3101801  0.979755E-06  0.376E-03    1.48       3.5  T
   4   -108.3101812 -0.101984E-05  0.115E-03    1.48      11.4  T
   5   -108.3101812 -0.696406E-07  0.528E-04    1.48      24.8  T
   6   -108.3101812 -0.122985E-07  0.212E-04    1.48      61.8  T
     SCC iter.                  ...        0 min,  0.096 sec
     gradient                   ...        0 min,  0.010 sec
 * total energy  :  -106.9438593 Eh     change       -0.1360358E-04 Eh
   gradient norm :     0.0011648 Eh/α   predicted    -0.7266790E-05 ( -46.58%)
   displ. norm   :     0.0588333 α      lambda       -0.7002307E-05
   maximum displ.:     0.0321648 α      in ANC's #3, #14, #4, ...

........................................................................
.............................. CYCLE   20 ..............................
........................................................................

 iter      E             dE          RMSdq      gap      omega  full diag
   1   -108.3101716 -0.108310E+03  0.150E-02    1.48       0.0  T
   2   -108.3101717 -0.913498E-07  0.877E-03    1.48       1.5  T
   3   -108.3101716  0.148711E-06  0.151E-03    1.48       8.7  T
   4   -108.3101717 -0.147655E-06  0.727E-04    1.48      18.1  T
   5   -108.3101718 -0.317585E-07  0.298E-04    1.48      44.0  T
     SCC iter.                  ...        0 min,  0.071 sec
     gradient                   ...        0 min,  0.011 sec
 * total energy  :  -106.9438679 Eh     change       -0.8649854E-05 Eh
   gradient norm :     0.0009292 Eh/α   predicted    -0.3507677E-05 ( -59.45%)
   displ. norm   :     0.0860485 α      lambda       -0.1012838E-04
   maximum displ.:     0.0459247 α      in ANC's #3, #4, #1, ...
 * RMSD in coord.:     0.5449024 α      energy gain  -0.4456098E-01 Eh

generating ANC from exact Hessian ...
Using Lindh-Hessian (1995)
 Shifting diagonal of input Hessian by    9.8159616017378624E-003
 Lowest  eigenvalues of input Hessian
    0.000000    0.000000    0.000000    0.000000    0.000000    0.000000
    0.010000    0.010129    0.010208    0.010688    0.011097    0.011187
    0.011387    0.011677    0.012337    0.012647    0.012740    0.013044
 Highest eigenvalues
    2.120762    2.202288    2.205624    2.392365    2.393929    2.394783


........................................................................
.............................. CYCLE   21 ..............................
........................................................................

 iter      E             dE          RMSdq      gap      omega  full diag
   1   -108.3100723 -0.108310E+03  0.206E-02    1.48       0.0  T
   2   -108.3100725 -0.191615E-06  0.121E-02    1.48       1.1  T
   3   -108.3100722  0.380216E-06  0.231E-03    1.48       5.7  T
   4   -108.3100726 -0.405765E-06  0.892E-04    1.48      14.7  T
   5   -108.3100726 -0.413321E-07  0.467E-04    1.48      28.1  T
     SCC iter.                  ...        0 min,  0.072 sec
     gradient                   ...        0 min,  0.009 sec
 * total energy  :  -106.9438799 Eh     change       -0.1201465E-04 Eh
   gradient norm :     0.0008904 Eh/α   predicted     0.0000000E+00 (-100.00%)
   displ. norm   :     0.0233000 α      lambda       -0.3590211E-05
   maximum displ.:     0.0134371 α      in ANC's #3, #4, #7, ...

........................................................................
.............................. CYCLE   22 ..............................
........................................................................

 iter      E             dE          RMSdq      gap      omega  full diag
   1   -108.3101097 -0.108310E+03  0.576E-03    1.48       0.0  T
   2   -108.3101097 -0.111943E-07  0.342E-03    1.48       3.8  T
   3   -108.3101095  0.223855E-06  0.171E-03    1.48       7.7  T
   4   -108.3101097 -0.238304E-06  0.289E-04    1.48      45.4  T
   5   -108.3101097 -0.577272E-08  0.126E-04    1.48     104.6  T
     SCC iter.                  ...        0 min,  0.071 sec
     gradient                   ...        0 min,  0.009 sec
 * total energy  :  -106.9438849 Eh     change       -0.4943383E-05 Eh
   gradient norm :     0.0003677 Eh/α   predicted    -0.1915757E-05 ( -61.25%)
   displ. norm   :     0.0775058 α      lambda       -0.9076217E-05
   maximum displ.:     0.0433145 α      in ANC's #3, #4, #1, ...

   *** GEOMETRY OPTIMIZATION CONVERGED AFTER 22 ITERATIONS ***

------------------------------------------------------------------------
 total energy gain   :        -0.0445779 Eh      -27.9731 kcal/mol
 total RMSD          :         0.5453171 a0        0.2886 Å
 total power (kW/mol):        -5.3199711 (step)  -43.8716 (real)
------------------------------------------------------------------------

 ANCopt (total)                0 d,  0 h,  0 min,  2.668 sec
 optimizer setup                ...        0 min,  0.000 sec (  0.003%)
 model hessian                  ...        0 min,  0.019 sec (  0.695%)
 ANC generation                 ...        0 min,  0.016 sec (  0.583%)
 coordinate transformation      ...        0 min,  0.000 sec (  0.012%)
 single point calculation       ...        0 min,  2.627 sec ( 98.463%)
 optimization log               ...        0 min,  0.003 sec (  0.103%)
 hessian update                 ...        0 min,  0.001 sec (  0.041%)
 rational function              ...        0 min,  0.002 sec (  0.063%)

================
 final structure:
================
 xtb: 6.7.1 (edcfbbe)
          12022411503D

 58 62  0     0  0            999 V2000
   -2.5749    2.4856   -2.0897 C   0  0  0  0  0  0  0  0  0  0  0  0
   -2.2967    1.3286   -1.3959 C   0  0  0  0  0  0  0  0  0  0  0  0
   -1.2692    1.3156   -0.4253 C   0  0  0  0  0  0  0  0  0  0  0  0
   -0.3625    2.4270   -0.3856 C   0  0  0  0  0  0  0  0  0  0  0  0
   -0.6939    3.6068   -1.0876 C   0  0  0  0  0  0  0  0  0  0  0  0
   -1.8071    3.6471   -1.8924 C   0  0  0  0  0  0  0  0  0  0  0  0
   -1.0021    0.2443    0.4840 C   0  0  0  0  0  0  0  0  0  0  0  0
    0.3058    0.1550    0.9829 C   0  0  0  0  0  0  0  0  0  0  0  0
    1.2002    1.2555    0.8244 C   0  0  0  0  0  0  0  0  0  0  0  0
    0.8097    2.3915    0.2488 N   0  0  0  0  0  0  0  0  0  0  0  0
   -1.9273   -0.7473    0.9297 C   0  0  0  0  0  0  0  0  0  0  0  0
   -1.3702   -1.9531    1.4681 C   0  0  0  0  0  0  0  0  0  0  0  0
   -0.0788   -2.0868    1.7725 N   0  0  0  0  0  0  0  0  0  0  0  0
    0.7285   -1.0348    1.6482 C   0  0  0  0  0  0  0  0  0  0  0  0
    2.0534   -1.1048    2.1193 C   0  0  0  0  0  0  0  0  0  0  0  0
    2.9123   -0.0208    1.9776 C   0  0  0  0  0  0  0  0  0  0  0  0
    2.5021    1.1507    1.3528 C   0  0  0  0  0  0  0  0  0  0  0  0
   -3.3372   -0.5800    0.9370 C   0  0  0  0  0  0  0  0  0  0  0  0
   -4.1381   -1.6721    1.2051 C   0  0  0  0  0  0  0  0  0  0  0  0
   -3.5773   -2.9113    1.5641 C   0  0  0  0  0  0  0  0  0  0  0  0
   -2.2219   -3.0496    1.7327 C   0  0  0  0  0  0  0  0  0  0  0  0
   -3.7935    0.6774    0.7597 O   0  0  0  0  0  0  0  0  0  0  0  0
   -3.0324    0.2039   -1.7067 O   0  0  0  0  0  0  0  0  0  0  0  0
   -2.1232    4.9104   -2.6075 C   0  0  0  0  0  0  0  0  0  0  0  0
   -4.5251   -4.0259    1.8244 C   0  0  0  0  0  0  0  0  0  0  0  0
   -0.0407    4.4611   -1.0094 H   0  0  0  0  0  0  0  0  0  0  0  0
   -3.3823    2.4875   -2.8041 H   0  0  0  0  0  0  0  0  0  0  0  0
    3.1679    1.9919    1.2560 H   0  0  0  0  0  0  0  0  0  0  0  0
    2.3972   -2.0055    2.6024 H   0  0  0  0  0  0  0  0  0  0  0  0
   -1.7842   -3.9628    2.0978 H   0  0  0  0  0  0  0  0  0  0  0  0
   -5.2137   -1.6121    1.1673 H   0  0  0  0  0  0  0  0  0  0  0  0
   -1.4794    5.9252   -2.5119 O   0  0  0  0  0  0  0  0  0  0  0  0
   -3.2145    4.8046   -3.3797 O   0  0  0  0  0  0  0  0  0  0  0  0
   -3.5769    5.9744   -4.0980 C   0  0  0  0  0  0  0  0  0  0  0  0
    4.2914   -0.1623    2.5233 C   0  0  0  0  0  0  0  0  0  0  0  0
    4.7081   -1.1595    3.0573 O   0  0  0  0  0  0  0  0  0  0  0  0
    5.0254    0.9441    2.3561 O   0  0  0  0  0  0  0  0  0  0  0  0
    6.3536    0.8856    2.8549 C   0  0  0  0  0  0  0  0  0  0  0  0
   -5.7211   -3.9436    1.6810 O   0  0  0  0  0  0  0  0  0  0  0  0
   -3.9105   -5.1382    2.2418 O   0  0  0  0  0  0  0  0  0  0  0  0
   -4.7556   -6.2427    2.5273 C   0  0  0  0  0  0  0  0  0  0  0  0
   -5.1831    0.8900    0.6749 C   0  0  0  0  0  0  0  0  0  0  0  0
   -2.3000   -0.8445   -2.3060 C   0  0  0  0  0  0  0  0  0  0  0  0
   -4.1064   -7.0377    2.8844 H   0  0  0  0  0  0  0  0  0  0  0  0
   -5.2883   -6.5565    1.6271 H   0  0  0  0  0  0  0  0  0  0  0  0
   -5.4883   -5.9720    3.2905 H   0  0  0  0  0  0  0  0  0  0  0  0
    6.8090    1.8439    2.6199 H   0  0  0  0  0  0  0  0  0  0  0  0
    6.9023    0.0707    2.3781 H   0  0  0  0  0  0  0  0  0  0  0  0
    6.3461    0.7176    3.9338 H   0  0  0  0  0  0  0  0  0  0  0  0
   -3.0079   -1.6580   -2.4532 H   0  0  0  0  0  0  0  0  0  0  0  0
   -1.4772   -1.1943   -1.6750 H   0  0  0  0  0  0  0  0  0  0  0  0
   -1.8964   -0.5309   -3.2754 H   0  0  0  0  0  0  0  0  0  0  0  0
   -5.3028    1.9581    0.5025 H   0  0  0  0  0  0  0  0  0  0  0  0
   -5.6884    0.6108    1.6044 H   0  0  0  0  0  0  0  0  0  0  0  0
   -5.6146    0.3355   -0.1624 H   0  0  0  0  0  0  0  0  0  0  0  0
   -4.4909    5.7320   -4.6338 H   0  0  0  0  0  0  0  0  0  0  0  0
   -2.7840    6.2507   -4.7962 H   0  0  0  0  0  0  0  0  0  0  0  0
   -3.7420    6.8062   -3.4102 H   0  0  0  0  0  0  0  0  0  0  0  0
  1  6  2  0  0  0  0
  1  2  1  0  0  0  0
  2  3  2  0  0  0  0
  3  7  1  0  0  0  0
  4  3  1  0  0  0  0
  4 10  1  0  0  0  0
  5  4  2  0  0  0  0
  6  5  1  0  0  0  0
  7 11  2  0  0  0  0
  7  8  1  0  0  0  0
  8 14  1  0  0  0  0
  9  8  2  0  0  0  0
  9 17  1  0  0  0  0
 10  9  1  0  0  0  0
 11 12  1  0  0  0  0
 12 21  1  0  0  0  0
 12 13  2  0  0  0  0
 14 13  1  0  0  0  0
 14 15  2  0  0  0  0
 15 29  1  0  0  0  0
 16 15  1  0  0  0  0
 16 35  1  0  0  0  0
 17 16  2  0  0  0  0
 18 11  1  0  0  0  0
 18 19  2  0  0  0  0
 19 20  1  0  0  0  0
 20 21  2  0  0  0  0
 20 25  1  0  0  0  0
 21 30  1  0  0  0  0
 22 18  1  0  0  0  0
 23  2  1  0  0  0  0
 24  6  1  0  0  0  0
 25 40  1  0  0  0  0
 26  5  1  0  0  0  0
 27  1  1  0  0  0  0
 28 17  1  0  0  0  0
 31 19  1  0  0  0  0
 32 24  2  0  0  0  0
 33 34  1  0  0  0  0
 33 24  1  0  0  0  0
 34 57  1  0  0  0  0
 34 58  1  0  0  0  0
 35 36  2  0  0  0  0
 37 35  1  0  0  0  0
 38 37  1  0  0  0  0
 39 25  2  0  0  0  0
 41 44  1  0  0  0  0
 41 40  1  0  0  0  0
 42 54  1  0  0  0  0
 42 22  1  0  0  0  0
 43 23  1  0  0  0  0
 45 41  1  0  0  0  0
 46 41  1  0  0  0  0
 47 38  1  0  0  0  0
 48 38  1  0  0  0  0
 49 38  1  0  0  0  0
 50 43  1  0  0  0  0
 51 43  1  0  0  0  0
 52 43  1  0  0  0  0
 53 42  1  0  0  0  0
 55 42  1  0  0  0  0
 56 34  1  0  0  0  0
M  END

 Bond Distances (Angstroems)
 ---------------------------
C1-C2=1.3775         C1-C6=1.4063         C1-H27=1.0781        C2-C1=1.3775         C2-C3=1.4135         C2-O23=1.3794        
C3-C2=1.4135         C3-C4=1.4349         C3-C7=1.4304         C4-C3=1.4349         C4-C5=1.4123         C4-N10=1.3333        
C5-C4=1.4123         C5-C6=1.3743         C5-H26=1.0783        C6-C1=1.4063         C6-C5=1.3743         C6-C24=1.4856        
C7-C3=1.4304         C7-C8=1.4027         C7-C11=1.4275        C8-C7=1.4027         C8-C9=1.4270         C8-C14=1.4271        
C9-C8=1.4270         C9-N10=1.3320        C9-C17=1.4089        N10-C4=1.3333        N10-C9=1.3320        C11-C7=1.4275        
C11-C12=1.4332       C11-C18=1.4199       C12-C11=1.4332       C12-N13=1.3335       C12-C21=1.4134       N13-C12=1.3335       
N13-C14=1.3318       C14-C8=1.4271        C14-N13=1.3318       C14-C15=1.4079       C15-C14=1.4079       C15-C16=1.3903       
C15-H29=1.0784       C16-C15=1.3903       C16-C17=1.3897       C16-C35=1.4898       C17-C9=1.4089        C17-C16=1.3897       
C17-H28=1.0772       C18-C11=1.4199       C18-C19=1.3805       C18-O22=1.3493       C19-C18=1.3805       C19-C20=1.4068       
C19-H31=1.0779       C20-C19=1.4068       C20-C21=1.3729       C20-C25=1.4860       C21-C12=1.4134       C21-C20=1.3729       
C21-H30=1.0765       O22-C18=1.3493       O22-C42=1.4084       O23-C2=1.3794        O23-C43=1.4124       C24-C6=1.4856        
C24-O32=1.2055       C24-O33=1.3411       C25-C20=1.4860       C25-O39=1.2074       C25-O40=1.3377       H26-C5=1.0783        
H27-C1=1.0781        H28-C17=1.0772       H29-C15=1.0784       H30-C21=1.0765       H31-C19=1.0779       O32-C24=1.2055       
O33-C24=1.3411       O33-C34=1.4197       C34-O33=1.4197       C34-H56=1.0869       C34-H57=1.0920       C34-H58=1.0919       
C35-C16=1.4898       C35-O36=1.2056       C35-O37=1.3382       O36-C35=1.2056       O37-C35=1.3382       O37-C38=1.4200       
C38-O37=1.4200       C38-H47=1.0868       C38-H48=1.0920       C38-H49=1.0920       O39-C25=1.2074       O40-C25=1.3377       
O40-C41=1.4197       C41-O40=1.4197       C41-H44=1.0868       C41-H45=1.0920       C41-H46=1.0921       C42-O22=1.4084       
C42-H53=1.0886       C42-H54=1.0943       C42-H55=1.0930       C43-O23=1.4124       C43-H50=1.0884       C43-H51=1.0943       
C43-H52=1.0959       H44-C41=1.0868       H45-C41=1.0920       H46-C41=1.0921       H47-C38=1.0868       H48-C38=1.0920       
H49-C38=1.0920       H50-C43=1.0884       H51-C43=1.0943       H52-C43=1.0959       H53-C42=1.0886       H54-C42=1.0943       
H55-C42=1.0930       H56-C34=1.0869       H57-C34=1.0920       H58-C34=1.0919       
 C  H  Rav=1.0873 sigma=0.0065  Rmin=1.0765  Rmax=1.0959    21
 C  C  Rav=1.4174 sigma=0.0320  Rmin=1.3729  Rmax=1.4898    24
 N  C  Rav=1.3327 sigma=0.0008  Rmin=1.3318  Rmax=1.3335     4
 O  C  Rav=1.3419 sigma=0.0806  Rmin=1.2055  Rmax=1.4200    13

 selected bond angles (degree)
 --------------------
C6-C1-C2=120.85                H27-C1-C2=119.12               H27-C1-C6=120.02               C3-C2-C1=120.03                
O23-C2-C1=117.62               O23-C2-C3=122.34               C4-C3-C2=118.11                C7-C3-C2=125.39                
C7-C3-C4=116.40                C5-C4-C3=119.01                N10-C4-C3=123.23               N10-C4-C5=117.72               
C6-C5-C4=120.38                H26-C5-C4=118.92               H26-C5-C6=120.66               C5-C6-C1=120.01                
C24-C6-C1=121.25               C24-C6-C5=118.63               C8-C7-C3=116.61                C11-C7-C3=126.71               
C11-C7-C8=116.68               C9-C8-C7=119.72                C14-C8-C7=119.67               C14-C8-C9=120.60               
N10-C9-C8=121.46               C17-C9-C8=118.69               C17-C9-N10=119.76              C9-N10-C4=119.08               

 selected dihedral angles (degree)
 ---------------------------------
C3-C2-C1-C6=  3.02            C3-C2-C1-H27=181.93           O23-C2-C1-C6=184.32           O23-C2-C1-H27=  3.24          
C4-C3-C2-C1=347.25            C4-C3-C2-O23=165.88           C7-C3-C2-C1=171.05            C7-C3-C2-O23=349.69           
C5-C4-C3-C2= 14.09            C5-C4-C3-C7=190.63            N10-C4-C3-C2=196.39           N10-C4-C3-C7= 12.92           
C6-C5-C4-C3=354.22            C6-C5-C4-N10=172.05           H26-C5-C4-C3=176.41           H26-C5-C4-N10=354.24          
C5-C6-C1-C2=  5.67            C5-C6-C1-H27=186.76           C24-C6-C1-C2=181.74           C24-C6-C1-H27=  2.84          
C1-C6-C5-C4=355.86            C1-C6-C5-H26=173.64           C24-C6-C5-C4=179.69           C24-C6-C5-H26=357.46          
C8-C7-C3-C2=155.50            C8-C7-C3-C4=339.24            C11-C7-C3-C2=335.88           C11-C7-C3-C4=159.62           
C9-C8-C7-C3= 14.01            C9-C8-C7-C11=193.67           C14-C8-C7-C3=193.83           C14-C8-C7-C11= 13.49          
N10-C9-C8-C7=  2.23           N10-C9-C8-C14=182.42          C17-C9-C8-C7=178.99           C17-C9-C8-C14=359.18          
C9-N10-C4-C3=  3.33           C9-N10-C4-C5=185.60           C4-N10-C9-C8=348.85           C4-N10-C9-C17=172.12          
           -------------------------------------------------
          |                Final Singlepoint                |
           -------------------------------------------------

          ...................................................
          :                      SETUP                      :
          :.................................................:
          :  # basis functions                 169          :
          :  # atomic orbitals                 169          :
          :  # shells                           95          :
          :  # electrons                       187          :
          :  max. iterations                   250          :
          :  Hamiltonian                  GFN2-xTB          :
          :  restarted?                      false          :
          :  GBSA solvation                  false          :
          :  PC potential                    false          :
          :  electronic temp.          300.0000000     K    :
          :  accuracy                    1.0000000          :
          :  -> integral cutoff          0.2500000E+02      :
          :  -> integral neglect         0.1000000E-07      :
          :  -> SCF convergence          0.1000000E-05 Eh   :
          :  -> wf. convergence          0.1000000E-03 e    :
          :  Broyden damping             0.4000000          :
          :  net charge                          0          :
          :  unpaired electrons                  1          :
          ...................................................

 iter      E             dE          RMSdq      gap      omega  full diag
   1   -108.3101097 -0.108310E+03  0.643E-05    1.48       0.0  T
   2   -108.3101097  0.117950E-10  0.495E-05    1.48     265.4  T
   3   -108.3101097 -0.124103E-09  0.297E-05    1.48     442.7  T

   *** convergence criteria satisfied after 3 iterations ***

         #    Occupation            Energy/Eh            Energy/eV
      -------------------------------------------------------------
         1        2.0000           -0.7491353             -20.3850
       ...           ...                  ...                  ...
        88        2.0000           -0.4193808             -11.4119
        89        2.0000           -0.4182943             -11.3824
        90        2.0000           -0.4056404             -11.0380
        91        2.0000           -0.3940112             -10.7216
        92        2.0000           -0.3913391             -10.6489
        93        1.9976           -0.3740615             -10.1787
        94        1.0024           -0.3625684              -9.8660 (HOMO)
        95                         -0.3081866              -8.3862 (LUMO)
        96                         -0.2833769              -7.7111
        97                         -0.2827291              -7.6935
        98                         -0.2517547              -6.8506
        99                         -0.2459790              -6.6934
       ...                                ...                  ...
       169                          0.7008868              19.0721
      -------------------------------------------------------------
                  HL-Gap            0.0543818 Eh            1.4798 eV
             Fermi-level           -0.3518462 Eh           -9.5742 eV

 SCC (total)                   0 d,  0 h,  0 min,  0.055 sec
 SCC setup                      ...        0 min,  0.000 sec (  0.249%)
 Dispersion                     ...        0 min,  0.000 sec (  0.606%)
 classical contributions        ...        0 min,  0.000 sec (  0.155%)
 integral evaluation            ...        0 min,  0.002 sec (  3.537%)
 iterations                     ...        0 min,  0.044 sec ( 78.621%)
 molecular gradient             ...        0 min,  0.008 sec ( 14.986%)
 printout                       ...        0 min,  0.001 sec (  1.820%)

         :::::::::::::::::::::::::::::::::::::::::::::::::::::
         ::                     SUMMARY                     ::
         :::::::::::::::::::::::::::::::::::::::::::::::::::::
         :: total energy            -106.943884881526 Eh    ::
         :: gradient norm              0.000368475694 Eh/a0 ::
         :: HOMO-LUMO gap              1.479804456996 eV    ::
         ::.................................................::
         :: SCC energy              -108.310064626510 Eh    ::
         :: -> isotropic ES            0.172990363794 Eh    ::
         :: -> anisotropic ES          0.003267298853 Eh    ::
         :: -> anisotropic XC          0.027528617981 Eh    ::
         :: -> dispersion             -0.074102422902 Eh    ::
         :: repulsion energy           1.366179744983 Eh    ::
         :: add. restraining           0.000000000000 Eh    ::
         :: total charge               0.000000000032 e     ::
         :::::::::::::::::::::::::::::::::::::::::::::::::::::

           -------------------------------------------------
          |                Property Printout                |
           -------------------------------------------------

    * Orbital Energies and Occupations

         #    Occupation            Energy/Eh            Energy/eV
      -------------------------------------------------------------
         1        2.0000           -0.7491353             -20.3850
       ...           ...                  ...                  ...
        82        2.0000           -0.4521026             -12.3023
        83        2.0000           -0.4504437             -12.2572
        84        2.0000           -0.4321348             -11.7590
        85        2.0000           -0.4258813             -11.5888
        86        2.0000           -0.4255638             -11.5802
        87        2.0000           -0.4225101             -11.4971
        88        2.0000           -0.4193808             -11.4119
        89        2.0000           -0.4182943             -11.3824
        90        2.0000           -0.4056404             -11.0380
        91        2.0000           -0.3940112             -10.7216
        92        2.0000           -0.3913391             -10.6489
        93        1.9976           -0.3740615             -10.1787
        94        1.0024           -0.3625684              -9.8660 (HOMO)
        95                         -0.3081866              -8.3862 (LUMO)
        96                         -0.2833769              -7.7111
        97                         -0.2827291              -7.6935
        98                         -0.2517547              -6.8506
        99                         -0.2459790              -6.6934
       100                         -0.2251841              -6.1276
       101                         -0.2113106              -5.7501
       102                         -0.1978994              -5.3851
       103                         -0.1780700              -4.8455
       104                         -0.1601550              -4.3580
       105                         -0.1117054              -3.0397
       ...                                ...                  ...
       169                          0.7008868              19.0721
      -------------------------------------------------------------
                  HL-Gap            0.0543818 Eh            1.4798 eV
             Fermi-level           -0.3518462 Eh           -9.5742 eV

     #   Z          covCN         q      C6AA      α(0)
     1   6 C        2.918    -0.047    29.169     8.857
     2   6 C        2.866     0.149    24.758     8.156
     3   6 C        2.980    -0.017    28.431     8.746
     4   6 C        2.959     0.096    25.870     8.343
     5   6 C        2.929    -0.032    28.798     8.801
     6   6 C        2.966    -0.017    28.431     8.746
     7   6 C        2.983     0.038    27.148     8.547
     8   6 C        3.000    -0.021    28.515     8.760
     9   6 C        2.952     0.096    25.864     8.341
    10   7 N        1.851    -0.231    26.908     7.688
    11   6 C        2.982    -0.019    28.479     8.754
    12   6 C        2.958     0.094    25.908     8.349
    13   7 N        1.851    -0.232    26.928     7.691
    14   6 C        2.951     0.096    25.871     8.343
    15   6 C        2.925    -0.026    28.656     8.779
    16   6 C        2.963    -0.014    28.365     8.736
    17   6 C        2.921    -0.029    28.736     8.791
    18   6 C        2.859     0.158    24.583     8.127
    19   6 C        2.921    -0.064    29.582     8.919
    20   6 C        2.967    -0.018    28.444     8.748
    21   6 C        2.924    -0.043    29.063     8.841
    22   8 O        1.705    -0.247    18.088     5.742
    23   8 O        1.703    -0.295    18.911     5.871
    24   6 C        2.733     0.352    21.020     7.506
    25   6 C        2.734     0.352    21.020     7.506
    26   1 H        0.926     0.091     1.873     2.140
    27   1 H        0.926     0.075     2.033     2.229
    28   1 H        0.926     0.082     1.960     2.189
    29   1 H        0.926     0.089     1.891     2.151
    30   1 H        0.926     0.080     1.977     2.199
    31   1 H        0.926     0.072     2.062     2.246
    32   8 O        0.856    -0.405    21.786     6.258
    33   8 O        1.704    -0.259    18.291     5.774
    34   6 C        3.658     0.033    20.302     6.467
    35   6 C        2.734     0.352    21.026     7.507
    36   8 O        0.856    -0.405    21.777     6.257
    37   8 O        1.705    -0.256    18.239     5.766
    38   6 C        3.659     0.032    20.311     6.468
    39   8 O        0.856    -0.413    21.941     6.280
    40   8 O        1.705    -0.256    18.243     5.767
    41   6 C        3.659     0.033    20.300     6.466
    42   6 C        3.646     0.032    20.371     6.486
    43   6 C        3.651     0.046    20.115     6.441
    44   1 H        0.925     0.071     2.080     2.255
    45   1 H        0.924     0.064     2.155     2.295
    46   1 H        0.924     0.065     2.143     2.290
    47   1 H        0.925     0.071     2.076     2.253
    48   1 H        0.924     0.065     2.137     2.286
    49   1 H        0.924     0.065     2.142     2.289
    50   1 H        0.925     0.062     2.172     2.304
    51   1 H        0.924     0.030     2.584     2.514
    52   1 H        0.924     0.036     2.499     2.472
    53   1 H        0.925     0.067     2.115     2.274
    54   1 H        0.924     0.049     2.339     2.391
    55   1 H        0.924     0.056     2.244     2.342
    56   1 H        0.925     0.069     2.099     2.265
    57   1 H        0.924     0.064     2.155     2.295
    58   1 H        0.924     0.065     2.139     2.287

 Mol. C6AA /au·bohr⁶  :      44962.344920
 Mol. C8AA /au·bohr⁸  :    1089916.242181
 Mol. α(0) /au        :        329.592000


Wiberg/Mayer (AO) data.
largest (>0.10) Wiberg bond orders for each atom

 ---------------------------------------------------------------------------
     #   Z sym  total        # sym  WBO       # sym  WBO       # sym  WBO
 ---------------------------------------------------------------------------
     1   6 C    3.942 --     2 C    1.467     6 C    1.293    27 H    0.962
     2   6 C    3.943 --     1 C    1.467     3 C    1.272    23 O    1.016
     3   6 C    3.981 --     2 C    1.272     7 C    1.199     4 C    1.198
     4   6 C    3.979 --    10 N    1.351     5 C    1.251     3 C    1.198
     5   6 C    3.953 --     6 C    1.491     4 C    1.251    26 H    0.959
     6   6 C    3.980 --     5 C    1.491     1 C    1.293    24 C    0.997
     7   6 C    3.987 --     8 C    1.325    11 C    1.214     3 C    1.199
     8   6 C    3.980 --     7 C    1.325    14 C    1.186     9 C    1.185
     9   6 C    3.980 --    10 N    1.348    17 C    1.270     8 C    1.185
    10   7 N    3.035 --     4 C    1.351     9 C    1.348
    11   6 C    3.979 --    18 C    1.235     7 C    1.214    12 C    1.203
    12   6 C    3.979 --    13 N    1.351    21 C    1.246    11 C    1.203
    13   7 N    3.034 --    12 C    1.351    14 C    1.350
    14   6 C    3.980 --    13 N    1.350    15 C    1.269     8 C    1.186
    15   6 C    3.910 --    16 C    1.400    14 C    1.269    29 H    0.960
    16   6 C    3.977 --    17 C    1.401    15 C    1.400    35 C    0.990
    17   6 C    3.912 --    16 C    1.401     9 C    1.270    28 H    0.962
    18   6 C    3.937 --    19 C    1.424    11 C    1.235    22 O    1.098
    19   6 C    3.939 --    18 C    1.424    20 C    1.298    31 H    0.958
    20   6 C    3.980 --    21 C    1.488    19 C    1.298    25 C    0.997
    21   6 C    3.956 --    20 C    1.488    12 C    1.246    30 H    0.961
    22   8 O    2.275 --    18 C    1.098    42 C    0.975
    23   8 O    2.132 --     2 C    1.016    43 C    0.970
    24   6 C    3.920 --    32 O    1.733    33 O    1.120     6 C    0.997
    25   6 C    3.919 --    39 O    1.724    40 O    1.127    20 C    0.997
    26   1 H    0.991 --     5 C    0.959
    27   1 H    0.994 --     1 C    0.962
    28   1 H    0.993 --    17 C    0.962
    29   1 H    0.991 --    15 C    0.960
    30   1 H    0.993 --    21 C    0.961
    31   1 H    0.994 --    19 C    0.958
    32   8 O    2.035 --    24 C    1.733    33 O    0.172
    33   8 O    2.303 --    24 C    1.120    34 C    0.959    32 O    0.172
    34   6 C    3.925 --    56 H    0.982    58 H    0.976    57 H    0.976
                            33 O    0.959
    35   6 C    3.920 --    36 O    1.734    37 O    1.127    16 C    0.990
    36   8 O    2.034 --    35 C    1.734    37 O    0.174
    37   8 O    2.309 --    35 C    1.127    38 C    0.957    36 O    0.174
    38   6 C    3.923 --    47 H    0.982    48 H    0.976    49 H    0.976
                            37 O    0.957
    39   8 O    2.024 --    25 C    1.724    40 O    0.172
    40   8 O    2.310 --    25 C    1.127    41 C    0.958    39 O    0.172
    41   6 C    3.924 --    44 H    0.982    46 H    0.976    45 H    0.976
                            40 O    0.958
    42   6 C    3.936 --    53 H    0.979    54 H    0.975    55 H    0.975
                            22 O    0.975
    43   6 C    3.945 --    50 H    0.980    52 H    0.980    51 H    0.976
                            23 O    0.970
    44   1 H    0.995 --    41 C    0.982
    45   1 H    0.996 --    41 C    0.976
    46   1 H    0.995 --    41 C    0.976
    47   1 H    0.995 --    38 C    0.982
    48   1 H    0.995 --    38 C    0.976
    49   1 H    0.995 --    38 C    0.976
    50   1 H    0.996 --    43 C    0.980
    51   1 H    0.999 --    43 C    0.976
    52   1 H    0.999 --    43 C    0.980
    53   1 H    0.995 --    42 C    0.979
    54   1 H    0.997 --    42 C    0.975
    55   1 H    0.996 --    42 C    0.975
    56   1 H    0.995 --    34 C    0.982
    57   1 H    0.996 --    34 C    0.976
    58   1 H    0.995 --    34 C    0.976
 ---------------------------------------------------------------------------

Topologies differ in bond orders
Writing corrected topology to xtbtopo.mol

molecular dipole:
                 x           y           z       tot (Debye)
 q only:       -0.438      -0.117      -0.633
   full:       -0.805      -0.187      -0.808       2.938
molecular quadrupole (traceless):
                xx          xy          yy          xz          yz          zz
 q only:        6.753       0.251      -5.620       7.476      -1.714      -1.133
  q+dip:        9.368       0.978     -11.028       7.439      -1.239       1.660
   full:        7.177      -0.912     -13.693       3.959       2.939       6.516

           -------------------------------------------------
          |                Geometry Summary                 |
           -------------------------------------------------

      molecular mass/u    :      501.4652708
   center of mass at/Å    :       -1.0988580       0.2298016       0.4113204
  moments of inertia/u·Å² :        0.5478088E+04   0.5852501E+04   0.1086176E+05
rotational constants/cm⁻¹ :        0.3077284E-02   0.2880415E-02   0.1552016E-02

 * 59 selected distances

     #   Z          #   Z                                           value/Å
     1   6 C        2   6 C                                       1.3774525
     2   6 C        3   6 C                                       1.4134895
     3   6 C        4   6 C                                       1.4348636 (max)
     4   6 C        5   6 C                                       1.4123127
     1   6 C        6   6 C                                       1.4062566
     5   6 C        6   6 C                                       1.3742545
     3   6 C        7   6 C                                       1.4303800
     7   6 C        8   6 C                                       1.4026550
     8   6 C        9   6 C                                       1.4270353
     4   6 C       10   7 N                                       1.3333424
     9   6 C       10   7 N                                       1.3319676
     7   6 C       11   6 C                                       1.4275387
    11   6 C       12   6 C                                       1.4331934
    12   6 C       13   7 N                                       1.3335441
     8   6 C       14   6 C                                       1.4271261
    13   7 N       14   6 C                                       1.3318160
    14   6 C       15   6 C                                       1.4079326
    15   6 C       16   6 C                                       1.3903120
     9   6 C       17   6 C                                       1.4089282
    16   6 C       17   6 C                                       1.3896505
    11   6 C       18   6 C                                       1.4198547
    18   6 C       19   6 C                                       1.3805423
    19   6 C       20   6 C                                       1.4067838
    12   6 C       21   6 C                                       1.4133657
    20   6 C       21   6 C                                       1.3728514
    18   6 C       22   8 O                                       1.3493391
     2   6 C       23   8 O                                       1.3794145
     5   6 C       26   1 H                                       1.0782678
     1   6 C       27   1 H                                       1.0781052
    17   6 C       28   1 H                                       1.0771713
    15   6 C       29   1 H                                       1.0783708
    21   6 C       30   1 H                                       1.0765258 (min)
    19   6 C       31   1 H                                       1.0778684
    24   6 C       32   8 O                                       1.2055346
    24   6 C       33   8 O                                       1.3411232
    33   8 O       34   6 C                                       1.4196765
    35   6 C       36   8 O                                       1.2055546
    35   6 C       37   8 O                                       1.3381923
    37   8 O       38   6 C                                       1.4199643
    25   6 C       39   8 O                                       1.2073659
    25   6 C       40   8 O                                       1.3376866
    40   8 O       41   6 C                                       1.4196948
    22   8 O       42   6 C                                       1.4083626
    23   8 O       43   6 C                                       1.4123685
    41   6 C       44   1 H                                       1.0867652
    41   6 C       45   1 H                                       1.0920258
    41   6 C       46   1 H                                       1.0920820
Note: The following floating-point exceptions are signalling: IEEE_UNDERFLOW_FLAG
normal termination of xtb
    38   6 C       47   1 H                                       1.0867759
    38   6 C       48   1 H                                       1.0919563
    38   6 C       49   1 H                                       1.0919677
    43   6 C       50   1 H                                       1.0884320
    43   6 C       51   1 H                                       1.0942722
    43   6 C       52   1 H                                       1.0958939
    42   6 C       53   1 H                                       1.0885949
    42   6 C       54   1 H                                       1.0942578
    42   6 C       55   1 H                                       1.0930375
    34   6 C       56   1 H                                       1.0868857
    34   6 C       57   1 H                                       1.0920032
    34   6 C       58   1 H                                       1.0918558

 * 4 distinct bonds (by element types)

   Z      Z             #   av. dist./Å        max./Å        min./Å
   1 H    6 C          21     1.0872912     1.0958939     1.0765258
   6 C    6 C          21     1.4074657     1.4348636     1.3728514
   6 C    7 N           4     1.3326675     1.3335441     1.3318160
   6 C    8 O          13     1.3418675     1.4199643     1.2055346


optimized geometry written to: xtbopt.mol


           -------------------------------------------------
          | TOTAL ENERGY             -106.943884881526 Eh   |
          | GRADIENT NORM               0.000368475694 Eh/α |
          | HOMO-LUMO GAP               1.479804456996 eV   |
           -------------------------------------------------
########################################################################
[WARNING] Runtime exception occurred
-3- restart_readRestart: Dimension missmatch in restart file.
-2- restart_readRestart: Multiplicity missmatch in restart file.
-1- restart_readRestart: Number of electron missmatch in restart file.
########################################################################

------------------------------------------------------------------------
 * finished run on 2024/12/02 at 11:50:21.307     
------------------------------------------------------------------------
 total:
 * wall-time:     0 d,  0 h,  0 min,  2.960 sec
 *  cpu-time:     0 d,  0 h,  0 min,  7.510 sec
 * ratio c/w:     2.537 speedup
 SCF:
 * wall-time:     0 d,  0 h,  0 min,  0.225 sec
 *  cpu-time:     0 d,  0 h,  0 min,  0.522 sec
 * ratio c/w:     2.317 speedup
 ANC optimizer:
 * wall-time:     0 d,  0 h,  0 min,  2.726 sec
 *  cpu-time:     0 d,  0 h,  0 min,  6.975 sec
 * ratio c/w:     2.559 speedup

Running optimization for Base3CO2Me.mol
      -----------------------------------------------------------      
     |                   =====================                   |     
     |                           x T B                           |     
     |                   =====================                   |     
     |                         S. Grimme                         |     
     |          Mulliken Center for Theoretical Chemistry        |     
     |                    University of Bonn                     |     
      -----------------------------------------------------------      

   * xtb version 6.7.1 (edcfbbe) compiled by 'runner@Mac-1732539442253.local' on 2024-11-25

   xtb is free software: you can redistribute it and/or modify it under
   the terms of the GNU Lesser General Public License as published by
   the Free Software Foundation, either version 3 of the License, or
   (at your option) any later version.
   
   xtb is distributed in the hope that it will be useful,
   but WITHOUT ANY WARRANTY; without even the implied warranty of
   MERCHANTABILITY or FITNESS FOR A PARTICULAR PURPOSE.  See the
   GNU Lesser General Public License for more details.
   
   Cite this work as:
   * C. Bannwarth, E. Caldeweyher, S. Ehlert, A. Hansen, P. Pracht,
     J. Seibert, S. Spicher, S. Grimme, WIREs Comput. Mol. Sci., 2020, 11,
     e01493. DOI: 10.1002/wcms.1493
   
   for GFN2-xTB:
   * C. Bannwarth, S. Ehlert and S. Grimme., J. Chem. Theory Comput., 2019,
     15, 1652-1671. DOI: 10.1021/acs.jctc.8b01176
   for GFN1-xTB:
   * S. Grimme, C. Bannwarth, P. Shushkov, J. Chem. Theory Comput., 2017,
     13, 1989-2009. DOI: 10.1021/acs.jctc.7b00118
   for GFN0-xTB:
   * P. Pracht, E. Caldeweyher, S. Ehlert, S. Grimme, ChemRxiv, 2019, preprint.
     DOI: 10.26434/chemrxiv.8326202.v1
   for GFN-FF:
   * S. Spicher and S. Grimme, Angew. Chem. Int. Ed., 2020, 59, 15665-15673.
     DOI: 10.1002/anie.202004239
   
   for ALPB and GBSA implicit solvation:
   * S. Ehlert, M. Stahn, S. Spicher, S. Grimme, J. Chem. Theory Comput.,
     2021, 17, 4250-4261. DOI: 10.1021/acs.jctc.1c00471
   
   for ddCOSMO and CPCM-X implicit solvation:
   * M. Stahn, S. Ehlert, S. Grimme, J. Phys. Chem. A,
     2023, XX, XXXX-XXXX. DOI: 10.1021/acs.jpca.3c04382
   
   for DFT-D4:
   * E. Caldeweyher, C. Bannwarth and S. Grimme, J. Chem. Phys., 2017,
     147, 034112. DOI: 10.1063/1.4993215
   * E. Caldeweyher, S. Ehlert, A. Hansen, H. Neugebauer, S. Spicher,
     C. Bannwarth and S. Grimme, J. Chem. Phys., 2019, 150, 154122.
     DOI: 10.1063/1.5090222
   * E. Caldeweyher, J.-M. Mewes, S. Ehlert and S. Grimme, Phys. Chem. Chem. Phys.
     2020, 22, 8499-8512. DOI: 10.1039/D0CP00502A
   
   for sTDA-xTB:
   * S. Grimme and C. Bannwarth, J. Chem. Phys., 2016, 145, 054103.
     DOI: 10.1063/1.4959605
   
   in the mass-spec context:
   * V. Asgeirsson, C. Bauer and S. Grimme, Chem. Sci., 2017, 8, 4879.
     DOI: 10.1039/c7sc00601b
   * J. Koopman and S. Grimme, ACS Omega 2019, 4, 12, 15120-15133.
     DOI: 10.1021/acsomega.9b02011
   
   for metadynamics refer to:
   * S. Grimme, J. Chem. Theory Comput., 2019, 155, 2847-2862
     DOI: 10.1021/acs.jctc.9b00143
   
   for SPH calculations refer to:
   * S. Spicher and S. Grimme, J. Chem. Theory Comput., 2021, 17, 1701-1714
     DOI: 10.1021/acs.jctc.0c01306
   
   for ONIOM refer to:
   * C. Plett, A. Katbashev, S. Ehlert, S. Grimme, M. Bursch,
     Phys. Chem. Chem. Phys., 2023, 25, 17860-17868. DOI: 10.1039/D3CP02178E
   
   for DIPRO refer to:
   * J. Kohn, N. Gildemeister, S. Grimme, D. Fazzi, A. Hansen,
     J. Chem. Phys., 2023, just accepted.
   
   for PTB refer to:
   * S. Grimme, M. Mueller, A. Hansen, J. Chem. Phys., 2023, 158, 124111.
     DOI: 10.1063/5.0137838
   
   with help from (in alphabetical order)
   P. Atkinson, C. Bannwarth, F. Bohle, G. Brandenburg, E. Caldeweyher
   M. Checinski, S. Dohm, S. Ehlert, S. Ehrlich, I. Gerasimov, C. Hölzer
   A. Katbashev, J. Kohn, J. Koopman, C. Lavigne, S. Lehtola, F. März, M. Müller,
   F. Musil, H. Neugebauer, J. Pisarek, C. Plett, P. Pracht, F. Pultar,
   J. Seibert, P. Shushkov, S. Spicher, M. Stahn, M. Steiner, T. Strunk,
   J. Stückrath, T. Rose, and J. Unsleber
   
 * started run on 2024/12/02 at 11:50:21.352     
   ID    Z sym.   atoms
    1    6 C      1-9, 11, 12, 14-21, 24, 25, 34, 35, 38, 41-43
    2    7 N      10, 13
    3    8 O      22, 23, 32, 33, 36, 37, 39, 40
    4    1 H      26-31, 44-58

           -------------------------------------------------
          |                Calculation Setup                |
           -------------------------------------------------

          program call               : xtb Base3CO2Me.mol --opt --gfn 2 --chrg -1 --uhf 0 --vtight
          coordinate file            : Base3CO2Me.mol
          omp threads                :                     8

########################################################################
[WARNING] Please study the warnings concerning your input carefully
-1- prog_main_parseArguments: Unknown option '--vtight' provided
########################################################################

           -------------------------------------------------
          |                 G F N 2 - x T B                 |
           -------------------------------------------------

        Reference                      10.1021/acs.jctc.8b01176
      * Hamiltonian:
        H0-scaling (s, p, d)           1.850000    2.230000    2.230000
        zeta-weighting                 0.500000
      * Dispersion:
        s8                             2.700000
        a1                             0.520000
        a2                             5.000000
        s9                             5.000000
      * Repulsion:
        kExp                           1.500000    1.000000
        rExp                           1.000000
      * Coulomb:
        alpha                          2.000000
        third order                    shell-resolved
        anisotropic                    true
        a3                             3.000000
        a5                             4.000000
        cn-shift                       1.200000
        cn-exp                         4.000000
        max-rad                        5.000000

[...]
    43   6 C       52   1 H                                       1.0956989
    42   6 C       53   1 H                                       1.0877104
    42   6 C       54   1 H                                       1.0944328
    42   6 C       55   1 H                                       1.0932353
    34   6 C       56   1 H                                       1.0869798
    34   6 C       57   1 H                                       1.0919570
    34   6 C       58   1 H                                       1.0918366
    59   6 C       60   6 C                                       1.3865228
    60   6 C       61   6 C                                       1.4150544
    62   6 C       63   6 C                                       1.4101046
    59   6 C       64   6 C                                       1.4008947
    63   6 C       64   6 C                                       1.3766133
    61   6 C       65   6 C                                       1.4300779
    65   6 C       66   6 C                                       1.4044810
    66   6 C       67   6 C                                       1.4256311
    62   6 C       68   7 N                                       1.3328905
    67   6 C       68   7 N                                       1.3320545
    65   6 C       69   6 C                                       1.4290058
    69   6 C       70   6 C                                       1.4335449
    70   6 C       71   7 N                                       1.3324567
    66   6 C       72   6 C                                       1.4256251
    71   7 N       72   6 C                                       1.3318925
    72   6 C       73   6 C                                       1.4074461
    73   6 C       74   6 C                                       1.3895348
    67   6 C       75   6 C                                       1.4083787
    74   6 C       75   6 C                                       1.3894716
    69   6 C       76   6 C                                       1.4235056
    76   6 C       77   6 C                                       1.3785869
    77   6 C       78   6 C                                       1.4077447
    70   6 C       79   6 C                                       1.4138887
    78   6 C       79   6 C                                       1.3719317
    76   6 C       80   8 O                                       1.3523067
    60   6 C       81   8 O                                       1.3594428
    63   6 C       84   1 H                                       1.0777819
    59   6 C       85   1 H                                       1.0769385
    75   6 C       86   1 H                                       1.0774820
    73   6 C       87   1 H                                       1.0783474
    79   6 C       88   1 H                                       1.0764102 (min)
    77   6 C       89   1 H                                       1.0777098
    82   6 C       90   8 O                                       1.2058346
    82   6 C       91   8 O                                       1.3400862
    91   8 O       92   6 C                                       1.4193001
    93   6 C       94   8 O                                       1.2043251
    93   6 C       95   8 O                                       1.3433008
    95   8 O       96   6 C                                       1.4210810
    83   6 C       97   8 O                                       1.2075216
    83   6 C       98   8 O                                       1.3376488
    98   8 O       99   6 C                                       1.4193530
    80   8 O      100   6 C                                       1.4080158
    81   8 O      101   6 C                                       1.4134324
    99   6 C      102   1 H                                       1.0868071
    99   6 C      103   1 H                                       1.0921190
    99   6 C      104   1 H                                       1.0920770
    96   6 C      105   1 H                                       1.0871311
    96   6 C      106   1 H                                       1.0920020
    96   6 C      107   1 H                                       1.0916220
   101   6 C      108   1 H                                       1.0905776
   101   6 C      109   1 H                                       1.0927386
   101   6 C      110   1 H                                       1.0920596
   100   6 C      111   1 H                                       1.0887042
   100   6 C      112   1 H                                       1.0940292
   100   6 C      113   1 H                                       1.0936234
    92   6 C      114   1 H                                       1.0881064
    92   6 C      115   1 H                                       1.0924730
    92   6 C      116   1 H                                       1.0921906

 * 4 distinct bonds (by element types)

   Z      Z             #   av. dist./Å        max./Å        min./Å
   1 H    6 C          42     1.0871939     1.0956989     1.0764102
   6 C    6 C          41     1.4068933     1.4361404     1.3719317
   6 C    7 N           8     1.3320584     1.3342792     1.3302571
   6 C    8 O          26     1.3413552     1.4210810     1.2035191


optimized geometry written to: xtbopt.mol


           -------------------------------------------------
          | TOTAL ENERGY             -213.919981978483 Eh   |
          | GRADIENT NORM               0.000320275886 Eh/α |
          | HOMO-LUMO GAP               1.363573124554 eV   |
           -------------------------------------------------
########################################################################
[WARNING] Runtime exception occurred
-3- restart_readRestart: Dimension missmatch in restart file.
-2- restart_readRestart: Multiplicity missmatch in restart file.
-1- restart_readRestart: Number of electron missmatch in restart file.
########################################################################

------------------------------------------------------------------------
Note: The following floating-point exceptions are signalling: IEEE_UNDERFLOW_FLAG
normal termination of xtb
 * finished run on 2024/12/02 at 11:50:51.629     
------------------------------------------------------------------------
 total:
 * wall-time:     0 d,  0 h,  0 min, 18.463 sec
 *  cpu-time:     0 d,  0 h,  0 min, 52.633 sec
 * ratio c/w:     2.851 speedup
 SCF:
 * wall-time:     0 d,  0 h,  0 min,  0.931 sec
 *  cpu-time:     0 d,  0 h,  0 min,  3.009 sec
 * ratio c/w:     3.232 speedup
 ANC optimizer:
 * wall-time:     0 d,  0 h,  0 min, 17.513 sec
 *  cpu-time:     0 d,  0 h,  0 min, 49.589 sec
 * ratio c/w:     2.832 speedup

Running optimization for loose_opt_dimer.mol
      -----------------------------------------------------------      
     |                   =====================                   |     
     |                           x T B                           |     
     |                   =====================                   |     
     |                         S. Grimme                         |     
     |          Mulliken Center for Theoretical Chemistry        |     
     |                    University of Bonn                     |     
      -----------------------------------------------------------      

   * xtb version 6.7.1 (edcfbbe) compiled by 'runner@Mac-1732539442253.local' on 2024-11-25

   xtb is free software: you can redistribute it and/or modify it under
   the terms of the GNU Lesser General Public License as published by
   the Free Software Foundation, either version 3 of the License, or
   (at your option) any later version.
   
   xtb is distributed in the hope that it will be useful,
   but WITHOUT ANY WARRANTY; without even the implied warranty of
   MERCHANTABILITY or FITNESS FOR A PARTICULAR PURPOSE.  See the
   GNU Lesser General Public License for more details.
   
   Cite this work as:
   * C. Bannwarth, E. Caldeweyher, S. Ehlert, A. Hansen, P. Pracht,
     J. Seibert, S. Spicher, S. Grimme, WIREs Comput. Mol. Sci., 2020, 11,
     e01493. DOI: 10.1002/wcms.1493
   
   for GFN2-xTB:
   * C. Bannwarth, S. Ehlert and S. Grimme., J. Chem. Theory Comput., 2019,
     15, 1652-1671. DOI: 10.1021/acs.jctc.8b01176
   for GFN1-xTB:
   * S. Grimme, C. Bannwarth, P. Shushkov, J. Chem. Theory Comput., 2017,
     13, 1989-2009. DOI: 10.1021/acs.jctc.7b00118
   for GFN0-xTB:
   * P. Pracht, E. Caldeweyher, S. Ehlert, S. Grimme, ChemRxiv, 2019, preprint.
     DOI: 10.26434/chemrxiv.8326202.v1
   for GFN-FF:
   * S. Spicher and S. Grimme, Angew. Chem. Int. Ed., 2020, 59, 15665-15673.
     DOI: 10.1002/anie.202004239
   
   for ALPB and GBSA implicit solvation:
   * S. Ehlert, M. Stahn, S. Spicher, S. Grimme, J. Chem. Theory Comput.,
     2021, 17, 4250-4261. DOI: 10.1021/acs.jctc.1c00471
   
   for ddCOSMO and CPCM-X implicit solvation:
   * M. Stahn, S. Ehlert, S. Grimme, J. Phys. Chem. A,
     2023, XX, XXXX-XXXX. DOI: 10.1021/acs.jpca.3c04382
   
   for DFT-D4:
   * E. Caldeweyher, C. Bannwarth and S. Grimme, J. Chem. Phys., 2017,
     147, 034112. DOI: 10.1063/1.4993215
   * E. Caldeweyher, S. Ehlert, A. Hansen, H. Neugebauer, S. Spicher,
     C. Bannwarth and S. Grimme, J. Chem. Phys., 2019, 150, 154122.
     DOI: 10.1063/1.5090222
   * E. Caldeweyher, J.-M. Mewes, S. Ehlert and S. Grimme, Phys. Chem. Chem. Phys.
     2020, 22, 8499-8512. DOI: 10.1039/D0CP00502A
   
   for sTDA-xTB:
   * S. Grimme and C. Bannwarth, J. Chem. Phys., 2016, 145, 054103.
     DOI: 10.1063/1.4959605
   
   in the mass-spec context:
   * V. Asgeirsson, C. Bauer and S. Grimme, Chem. Sci., 2017, 8, 4879.
     DOI: 10.1039/c7sc00601b
   * J. Koopman and S. Grimme, ACS Omega 2019, 4, 12, 15120-15133.
     DOI: 10.1021/acsomega.9b02011
   
   for metadynamics refer to:
   * S. Grimme, J. Chem. Theory Comput., 2019, 155, 2847-2862
     DOI: 10.1021/acs.jctc.9b00143
   
   for SPH calculations refer to:
   * S. Spicher and S. Grimme, J. Chem. Theory Comput., 2021, 17, 1701-1714
     DOI: 10.1021/acs.jctc.0c01306
   
   for ONIOM refer to:
   * C. Plett, A. Katbashev, S. Ehlert, S. Grimme, M. Bursch,
     Phys. Chem. Chem. Phys., 2023, 25, 17860-17868. DOI: 10.1039/D3CP02178E
   
   for DIPRO refer to:
   * J. Kohn, N. Gildemeister, S. Grimme, D. Fazzi, A. Hansen,
     J. Chem. Phys., 2023, just accepted.
   
   for PTB refer to:
   * S. Grimme, M. Mueller, A. Hansen, J. Chem. Phys., 2023, 158, 124111.
     DOI: 10.1063/5.0137838
   
   with help from (in alphabetical order)
   P. Atkinson, C. Bannwarth, F. Bohle, G. Brandenburg, E. Caldeweyher
   M. Checinski, S. Dohm, S. Ehlert, S. Ehrlich, I. Gerasimov, C. Hölzer
   A. Katbashev, J. Kohn, J. Koopman, C. Lavigne, S. Lehtola, F. März, M. Müller,
   F. Musil, H. Neugebauer, J. Pisarek, C. Plett, P. Pracht, F. Pultar,
   J. Seibert, P. Shushkov, S. Spicher, M. Stahn, M. Steiner, T. Strunk,
   J. Stückrath, T. Rose, and J. Unsleber
   
 * started run on 2024/12/02 at 11:50:51.669     
   ID    Z sym.   atoms
    1    6 C      1-9, 11, 12, 14-21, 24, 25, 34, 35, 38, 41-43, 59-67, 69,
                  70, 72-79, 82, 83, 92, 93, 96, 99-101
    2    7 N      10, 13, 68, 71
    3    8 O      22, 23, 32, 33, 36, 37, 39, 40, 80, 81, 90, 91, 94, 95, 97,
                  98
    4    1 H      26-31, 44-58, 84-89, 102-116

           -------------------------------------------------
          |                Calculation Setup                |
           -------------------------------------------------

          program call               : xtb opt_dimer.mol --dipro 0.3 --gfn 2 --chrg 0 --uhf 2
          coordinate file            : opt_dimer.mol
          omp threads                :                     8


molecular fragmentation (1/2 indicates fragments):
111111111111111111111111111111111111111111111111111111111122222222222222
22222222222222222222222222222222222222222222
# atoms in fragment 1/2:    58    58
 fragment masses (1/2) :      501.47      501.47
CMA distance (Bohr)    :  11.224
constraining FC (au)   :  0.0500

           -------------------------------------------------
          |                 G F N 2 - x T B                 |
           -------------------------------------------------

        Reference                      10.1021/acs.jctc.8b01176
      * Hamiltonian:
        H0-scaling (s, p, d)           1.850000    2.230000    2.230000
        zeta-weighting                 0.500000
      * Dispersion:
        s8                             2.700000
        a1                             0.520000
        a2                             5.000000
        s9                             5.000000
      * Repulsion:
        kExp                           1.500000    1.000000
        rExp                           1.000000
      * Coulomb:
        alpha                          2.000000
        third order                    shell-resolved
        anisotropic                    true
        a3                             3.000000
        a5                             4.000000
        cn-shift                       1.200000
        cn-exp                         4.000000
        max-rad                        5.000000

q/qsh data taken from xtbrestart
CAMM data taken from xtbrestart
           -------------------------------------------------
          |                    D I P R O                    |
           -------------------------------------------------
Calculation for dimer 
--------------------- 
  
charge of dimer :   0.
unpaired e- of dimer :  2
repulsion energy          2.7345997200092E+00 Eh
dispersion energy         8.4139054835040E-03 Eh
number of electrons       3.7400000000000E+02 e
integral cutoff           1.7347787504999E+01 bohr

------------------------------------------------------------
  cycle        total energy    energy error   density error
------------------------------------------------------------
      1     -212.3425401073  -2.1508555E+02   1.9878866E-01
      2     -213.7506114924  -1.4080714E+00   8.5482064E-02
      3     -213.7726504428  -2.2038950E-02   5.1350231E-02
      4     -213.7979469933  -2.5296550E-02   2.8216767E-02
      5     -213.9081263191  -1.1017933E-01   9.6171842E-03
      6     -213.9168285718  -8.7022527E-03   5.0152886E-03
      7     -213.9190397872  -2.2112153E-03   2.6247671E-03
      8     -213.9195834549  -5.4366774E-04   1.4333340E-03
      9     -213.9198814931  -2.9803819E-04   6.1508005E-04
     10     -213.9199342417  -5.2748661E-05   2.5474837E-04
     11     -213.9199377251  -3.4833611E-06   1.4990803E-04
     12     -213.9199407987  -3.0735762E-06   5.4710135E-05
     13     -213.9199410654  -2.6674735E-07   2.3812331E-05
     14     -213.9199410951  -2.9697219E-08   1.1692964E-05
------------------------------------------------------------

electronic energy        -2.1666295472062E+02 Eh
total energy             -2.1391994109513E+02 Eh

 total:                                   0.886 sec
 - repulsion                              0.000 sec (  0%)
 - dispersion                             0.003 sec (  0%)
 - coulomb                                0.001 sec (  0%)
 - hamiltonian                            0.005 sec (  0%)
 - scc                                    0.877 sec ( 98%)

Found 2 fragments!
Fragment 1:  1-58
Fragment 2:  59-116

[Info] Fragment spin read from .UHFfrag
Calculation for fragment 1
 ------------------------------
   
charge of fragment :   0.
unpaired e- of fragment :  1
------------------------------------------------------------
  cycle        total energy    energy error   density error
------------------------------------------------------------
      1     -106.1517577332  -1.0752009E+02   2.0005201E-01
      2     -106.8652440442  -7.1348631E-01   8.5940665E-02
      3     -106.8899783864  -2.4734342E-02   5.0565785E-02
      4     -106.9088113139  -1.8832928E-02   2.5008164E-02
      5     -106.9407128267  -3.1901513E-02   7.5010875E-03
      6     -106.9420830548  -1.3702281E-03   3.7633640E-03
      7     -106.9425420042  -4.5894938E-04   2.0421127E-03
      8     -106.9427163511  -1.7434689E-04   1.0210019E-03
      9     -106.9427870920  -7.0740967E-05   3.4192123E-04
     10     -106.9427903734  -3.2813779E-06   1.9467871E-04
     11     -106.9427919187  -1.5452823E-06   7.5316840E-05
     12     -106.9427920890  -1.7031827E-07   2.7421785E-05
     13     -106.9427920998  -1.0783623E-08   1.3952545E-05
------------------------------------------------------------

 total:                                   0.223 sec
Calculation for fragment 2
 ------------------------------
   
charge of fragment :   0.
unpaired e- of fragment :  1
------------------------------------------------------------
  cycle        total energy    energy error   density error
------------------------------------------------------------
      1     -106.1494806033  -1.0751585E+02   1.9762817E-01
      2     -106.8615876983  -7.1210709E-01   8.4384192E-02
      3     -106.8864512860  -2.4863588E-02   4.9682494E-02
      4     -106.9082978982  -2.1846612E-02   2.4881403E-02
      5     -106.9412329771  -3.2935079E-02   7.2274450E-03
      6     -106.9425365766  -1.3035996E-03   3.4030907E-03
      7     -106.9428111013  -2.7452469E-04   1.8679188E-03
      8     -106.9429388049  -1.2770353E-04   1.0582455E-03
      9     -106.9430224687  -8.3663837E-05   3.4009123E-04
     10     -106.9430250336  -2.5648884E-06   1.9854489E-04
     11     -106.9430269221  -1.8885506E-06   7.4712574E-05
     12     -106.9430270926  -1.7049371E-07   2.8847676E-05
     13     -106.9430271052  -1.2590064E-08   1.4226750E-05
------------------------------------------------------------

 total:                                   0.200 sec
   
   ::::::::::::::::::::::::::::::::::::::::::::::
   ::     D I P R O      C O U P L I N G S     ::
   ::::::::::::::::::::::::::::::::::::::::::::::
   
energy threshhold for near-degenerate orbitals near HOMO and LUMO considered for DIPRO:  0.300 eV
no. of orbitals within energy window of frag 1         2
no. of orbitals within energy window of frag 2         2
   
  Fragment 1 SOMO   Fragment 2 SOMO 
--------------------------------------
E_mon(orb) frag1 frag2             -10.186   -10.107 eV
J(AB):                0.007 eV
S(AB):            -0.00034176 Eh
|J(AB,eff)|:            0.004 eV
   
  Fragment 1 SOMO   Fragment 2 LUMO 
--------------------------------------
E_mon(orb) frag1 frag2             -10.186    -9.762 eV
J(AB):                0.001 eV
S(AB):            -0.00004924 Eh
|J(AB,eff)|:            0.000 eV
   
  Fragment 1 LUMO   Fragment 2 SOMO 
--------------------------------------
E_mon(orb) frag1 frag2              -9.860   -10.107 eV
J(AB):               -0.015 eV
S(AB):             0.00064340 Eh
|J(AB,eff)|:            0.009 eV
   
  Fragment 1 LUMO   Fragment 2 LUMO 
--------------------------------------
E_mon(orb) frag1 frag2              -9.860    -9.762 eV
J(AB):                0.011 eV
S(AB):            -0.00032508 Eh
|J(AB,eff)|:            0.008 eV
   
..............................................................................
:  total |J(AB,eff)| for hole transport (occ. MOs) :               0.004 eV  :
:  total |J(AB,eff)| for charge transport (unocc. MOs) :           0.008 eV  :
:  total |J(AB,eff)| for charge transfer (CT) :                    0.009 eV  :
..............................................................................
  
 Please remember, DIPRO is not available for restart!
   
normal termination of dipro
----------------------------------------------------------
 * finished run on 2024/12/02 at 11:50:52.992     
----------------------------------------------------------
 dipro:
 * wall-time:     0 d,  0 h,  0 min,  1.317 sec
 *  cpu-time:     0 d,  0 h,  0 min,  4.000 sec
 * ratio c/w:     3.037 speedup
