Optimization of monomers started
      -----------------------------------------------------------      
     |                   =====================                   |     
     |                           x T B                           |     
     |                   =====================                   |     
     |                         S. Grimme                         |     
     |          Mulliken Center for Theoretical Chemistry        |     
     |                    University of Bonn                     |     
      -----------------------------------------------------------      

   * xtb version 6.7.1 (edcfbbe) compiled by 'runner@Mac-1732539442253.local' on 2024-11-25

   xtb is free software: you can redistribute it and/or modify it under
   the terms of the GNU Lesser General Public License as published by
   the Free Software Foundation, either version 3 of the License, or
   (at your option) any later version.
   
   xtb is distributed in the hope that it will be useful,
   but WITHOUT ANY WARRANTY; without even the implied warranty of
   MERCHANTABILITY or FITNESS FOR A PARTICULAR PURPOSE.  See the
   GNU Lesser General Public License for more details.
   
   Cite this work as:
   * C. Bannwarth, E. Caldeweyher, S. Ehlert, A. Hansen, P. Pracht,
     J. Seibert, S. Spicher, S. Grimme, WIREs Comput. Mol. Sci., 2020, 11,
     e01493. DOI: 10.1002/wcms.1493
   
   for GFN2-xTB:
   * C. Bannwarth, S. Ehlert and S. Grimme., J. Chem. Theory Comput., 2019,
     15, 1652-1671. DOI: 10.1021/acs.jctc.8b01176
   for GFN1-xTB:
   * S. Grimme, C. Bannwarth, P. Shushkov, J. Chem. Theory Comput., 2017,
     13, 1989-2009. DOI: 10.1021/acs.jctc.7b00118
   for GFN0-xTB:
   * P. Pracht, E. Caldeweyher, S. Ehlert, S. Grimme, ChemRxiv, 2019, preprint.
     DOI: 10.26434/chemrxiv.8326202.v1
   for GFN-FF:
   * S. Spicher and S. Grimme, Angew. Chem. Int. Ed., 2020, 59, 15665-15673.
     DOI: 10.1002/anie.202004239
   
   for ALPB and GBSA implicit solvation:
   * S. Ehlert, M. Stahn, S. Spicher, S. Grimme, J. Chem. Theory Comput.,
     2021, 17, 4250-4261. DOI: 10.1021/acs.jctc.1c00471
   
   for ddCOSMO and CPCM-X implicit solvation:
   * M. Stahn, S. Ehlert, S. Grimme, J. Phys. Chem. A,
     2023, XX, XXXX-XXXX. DOI: 10.1021/acs.jpca.3c04382
   
   for DFT-D4:
   * E. Caldeweyher, C. Bannwarth and S. Grimme, J. Chem. Phys., 2017,
     147, 034112. DOI: 10.1063/1.4993215
   * E. Caldeweyher, S. Ehlert, A. Hansen, H. Neugebauer, S. Spicher,
     C. Bannwarth and S. Grimme, J. Chem. Phys., 2019, 150, 154122.
     DOI: 10.1063/1.5090222
   * E. Caldeweyher, J.-M. Mewes, S. Ehlert and S. Grimme, Phys. Chem. Chem. Phys.
     2020, 22, 8499-8512. DOI: 10.1039/D0CP00502A
   
   for sTDA-xTB:
   * S. Grimme and C. Bannwarth, J. Chem. Phys., 2016, 145, 054103.
     DOI: 10.1063/1.4959605
   
   in the mass-spec context:
   * V. Asgeirsson, C. Bauer and S. Grimme, Chem. Sci., 2017, 8, 4879.
     DOI: 10.1039/c7sc00601b
   * J. Koopman and S. Grimme, ACS Omega 2019, 4, 12, 15120-15133.
     DOI: 10.1021/acsomega.9b02011
   
   for metadynamics refer to:
   * S. Grimme, J. Chem. Theory Comput., 2019, 155, 2847-2862
     DOI: 10.1021/acs.jctc.9b00143
   
   for SPH calculations refer to:
   * S. Spicher and S. Grimme, J. Chem. Theory Comput., 2021, 17, 1701-1714
     DOI: 10.1021/acs.jctc.0c01306
   
   for ONIOM refer to:
   * C. Plett, A. Katbashev, S. Ehlert, S. Grimme, M. Bursch,
     Phys. Chem. Chem. Phys., 2023, 25, 17860-17868. DOI: 10.1039/D3CP02178E
   
   for DIPRO refer to:
   * J. Kohn, N. Gildemeister, S. Grimme, D. Fazzi, A. Hansen,
     J. Chem. Phys., 2023, just accepted.
   
   for PTB refer to:
   * S. Grimme, M. Mueller, A. Hansen, J. Chem. Phys., 2023, 158, 124111.
     DOI: 10.1063/5.0137838
   
   with help from (in alphabetical order)
   P. Atkinson, C. Bannwarth, F. Bohle, G. Brandenburg, E. Caldeweyher
   M. Checinski, S. Dohm, S. Ehlert, S. Ehrlich, I. Gerasimov, C. Hölzer
   A. Katbashev, J. Kohn, J. Koopman, C. Lavigne, S. Lehtola, F. März, M. Müller,
   F. Musil, H. Neugebauer, J. Pisarek, C. Plett, P. Pracht, F. Pultar,
   J. Seibert, P. Shushkov, S. Spicher, M. Stahn, M. Steiner, T. Strunk,
   J. Stückrath, T. Rose, and J. Unsleber
   
 * started run on 2025/02/24 at 15:30:59.032     
   ID    Z sym.   atoms
    1    6 C      1-9, 11, 12, 14-21, 24, 25, 34, 35, 38, 41-43
    2    7 N      10, 13
    3    8 O      22, 23, 32, 33, 36, 37, 39, 40
    4    1 H      26-31, 44-58

           -------------------------------------------------
          |                Calculation Setup                |
           -------------------------------------------------

          program call               : xtb Base3CO2Me.mol --opt tight --cycles 500 --chrg 0 --uhf 1 --spinpol --tblite
          coordinate file            : Base3CO2Me.mol
          omp threads                :                     8

repulsion energy          1.2855876210723E+00 Eh
dispersion energy        -1.6980841215837E-04 Eh
interaction energy        0.0000000000000E+00 Eh
number of electrons       1.8700000000000E+02 e
integral cutoff           1.7347787504999E+01 bohr

------------------------------------------------------------
  cycle        total energy    energy error   density error
------------------------------------------------------------
      1     -106.0582431649  -1.0734366E+02   1.4592918E-01
      2     -106.8009081365  -7.4266497E-01   6.4137040E-02
      3     -106.8325209013  -3.1612765E-02   3.9179361E-02
      4     -106.8614487648  -2.8927863E-02   1.9462419E-02
      5     -106.8988972625  -3.7448498E-02   6.1687713E-03
      6     -106.9007702265  -1.8729640E-03   2.9627346E-03
      7     -106.9010360502  -2.6582369E-04   1.9122798E-03
      8     -106.9012609441  -2.2489397E-04   1.1706847E-03
      9     -106.9014115572  -1.5061305E-04   5.1563761E-04
     10     -106.9014150332  -3.4760658E-06   3.3005031E-04
     11     -106.9014205298  -5.4965877E-06   1.5638439E-04
     12     -106.9014213841  -8.5422178E-07   8.8787473E-05
     13     -106.9014216890  -3.0490077E-07   4.1188549E-05
     14     -106.9014217236  -3.4628826E-08   1.9590727E-05
------------------------------------------------------------

electronic energy        -1.0818683953624E+02 Eh
total energy             -1.0690142172358E+02 Eh

 total:                                   0.400 sec
 - repulsion                              0.000 sec (  0%)
 - dispersion                             0.003 sec (  0%)
 - coulomb                                0.001 sec (  0%)
 - hamiltonian                            0.006 sec (  1%)
 - scc                                    0.389 sec ( 97%)

      ----------------------------------------------------------- 
     |                   =====================                   |
     |                        A N C O P T                        |
     |                   =====================                   |
     |               Approximate Normal Coordinate               |
     |                Rational Function Optimizer                |
      ----------------------------------------------------------- 
      ----------------------------------------------------------- 
     |                   =====================                   |
     |                        A N C O P T                        |
     |                   =====================                   |
     |               Approximate Normal Coordinate               |
     |                Rational Function Optimizer                |
      ----------------------------------------------------------- 

          ...................................................
          :                      SETUP                      :
          :.................................................:
          :   optimization level             tight          :
          :   max. optcycles                   500          :
          :   ANC micro-cycles                  20          :
          :   degrees of freedom               168          :
          :.................................................:
          :   RF solver                   davidson          :
          :   write xtbopt.log                true          :
          :   linear?                        false          :
          :   energy convergence         0.1000000E-05 Eh   :
          :   grad. convergence          0.8000000E-03 Eh/α :
          :   maxmium RF displ.          1.0000000          :
          :   Hlow (freq-cutoff)         0.1000000E-01      :
          :   Hmax (freq-cutoff)         5.0000000          :
          :   S6 in model hess.         20.0000000          :
          ...................................................

generating ANC from exact Hessian ...
Using Lindh-Hessian (1995)
 Shifting diagonal of input Hessian by    9.8260030622742810E-003
 Lowest  eigenvalues of input Hessian
    0.000000    0.000000    0.000000    0.000000    0.000000    0.000000
    0.010000    0.010142    0.010269    0.010812    0.010997    0.011311
    0.011612    0.011791    0.012399    0.012536    0.012571    0.012837
 Highest eigenvalues
    2.058862    2.168827    2.174665    2.265378    2.265969    2.266411


........................................................................
.............................. CYCLE    1 ..............................
........................................................................
------------------------------------------------------------
  cycle        total energy    energy error   density error
------------------------------------------------------------
      1     -106.9014214587  -1.0818684E+02   4.3265156E-05
      2     -106.9014215522  -9.3486662E-08   3.5386732E-05
      3     -106.9014217498  -1.9758136E-07   4.6470034E-06
------------------------------------------------------------

 total:                                   0.137 sec
 * total energy  :  -106.9014217 Eh     change       -0.2619241E-07 Eh
   gradient norm :     0.1783481 Eh/α   predicted     0.0000000E+00 (-100.00%)
   displ. norm   :     0.3907381 α      lambda       -0.3651633E-01
   maximum displ.:     0.1865000 α      in ANC's #25, #84, #55, ...

........................................................................
.............................. CYCLE    2 ..............................
........................................................................
------------------------------------------------------------
  cycle        total energy    energy error   density error
------------------------------------------------------------
      1     -106.9278222494  -1.0823853E+02   5.6112039E-03
      2     -106.9281181733  -2.9592388E-04   3.2991200E-03
      3     -106.9279073230   2.1085036E-04   1.8783402E-03
      4     -106.9281441476  -2.3682464E-04   6.8181387E-04
      5     -106.9282070721  -6.2924524E-05   2.4188832E-04
      6     -106.9282128662  -5.7940361E-06   1.2707975E-04
      7     -106.9282134844  -6.1819750E-07   7.4460486E-05
      8     -106.9282137448  -2.6047805E-07   2.9315837E-05
      9     -106.9282137931  -4.8240196E-08   1.4431403E-05
------------------------------------------------------------

 total:                                   0.371 sec
 * total energy  :  -106.9282138 Eh     change       -0.2679204E-01 Eh
   gradient norm :     0.0849703 Eh/α   predicted    -0.2108415E-01 ( -21.30%)
   displ. norm   :     0.4621696 α      lambda       -0.1657323E-01
   maximum displ.:     0.3035398 α      in ANC's #25, #34, #28, ...

........................................................................
.............................. CYCLE    3 ..............................
........................................................................
------------------------------------------------------------
  cycle        total energy    energy error   density error
------------------------------------------------------------
      1     -106.9383129477  -1.0827595E+02   4.4407347E-03
      2     -106.9385200452  -2.0709758E-04   2.6035128E-03
      3     -106.9383766068   1.4343847E-04   1.6325375E-03
      4     -106.9385734615  -1.9685477E-04   4.8847215E-04
      5     -106.9386024732  -2.9011640E-05   1.7713647E-04
      6     -106.9386052702  -2.7970404E-06   9.4014101E-05
      7     -106.9386057655  -4.9527831E-07   5.1817531E-05
      8     -106.9386058854  -1.1985901E-07   2.2690479E-05
      9     -106.9386059119  -2.6536739E-08   1.0961716E-05
------------------------------------------------------------

 total:                                   0.395 sec
 * total energy  :  -106.9386059 Eh     change       -0.1039212E-01 Eh
   gradient norm :     0.0165386 Eh/α   predicted    -0.1005664E-01 (  -3.23%)
   displ. norm   :     0.4031182 α      lambda       -0.3788826E-02
   maximum displ.:     0.2564693 α      in ANC's #25, #19, #24, ...

........................................................................
.............................. CYCLE    4 ..............................
........................................................................
------------------------------------------------------------
  cycle        total energy    energy error   density error
------------------------------------------------------------
      1     -106.9413376009  -1.0829231E+02   2.3382574E-03
      2     -106.9413544567  -1.6855842E-05   1.4020050E-03
      3     -106.9412919568   6.2499947E-05   7.7208263E-04
      4     -106.9413643252  -7.2368494E-05   1.4587949E-04
      5     -106.9413666386  -2.3133090E-06   6.9434828E-05
      6     -106.9413670840  -4.4545251E-07   3.4482315E-05
      7     -106.9413671583  -7.4243601E-08   1.7222146E-05
------------------------------------------------------------

 total:                                   0.294 sec
 * total energy  :  -106.9413672 Eh     change       -0.2761246E-02 Eh
   gradient norm :     0.0136540 Eh/α   predicted    -0.2202733E-02 ( -20.23%)
   displ. norm   :     0.4260423 α      lambda       -0.2135961E-02
   maximum displ.:     0.2130544 α      in ANC's #25, #4, #7, ...

........................................................................
.............................. CYCLE    5 ..............................
........................................................................
------------------------------------------------------------
  cycle        total energy    energy error   density error
------------------------------------------------------------
      1     -106.9428088784  -1.0830366E+02   2.1647803E-03
      2     -106.9428321120  -2.3233646E-05   1.2988307E-03
      3     -106.9428089240   2.3188017E-05   5.2852003E-04
      4     -106.9428332559  -2.4331920E-05   1.7386880E-04
      5     -106.9428372946  -4.0387385E-06   5.6433704E-05
      6     -106.9428375633  -2.6865288E-07   3.0492709E-05
      7     -106.9428376151  -5.1817537E-08   1.5431502E-05
------------------------------------------------------------

 total:                                   0.292 sec
 * total energy  :  -106.9428376 Eh     change       -0.1470457E-02 Eh
   gradient norm :     0.0090241 Eh/α   predicted    -0.1261845E-02 ( -14.19%)
   displ. norm   :     0.3602451 α      lambda       -0.9001621E-03
   maximum displ.:     0.1861789 α      in ANC's #4, #3, #7, ...

........................................................................
.............................. CYCLE    6 ..............................
........................................................................
------------------------------------------------------------
  cycle        total energy    energy error   density error
------------------------------------------------------------
      1     -106.9434955528  -1.0830899E+02   1.5959275E-03
      2     -106.9435067855  -1.1232751E-05   9.4289219E-04
      3     -106.9434991598   7.6257331E-06   3.0896817E-04
      4     -106.9435072309  -8.0711289E-06   1.0919196E-04
      5     -106.9435087253  -1.4943362E-06   3.9492273E-05
      6     -106.9435088209  -9.5657228E-08   2.2954102E-05
      7     -106.9435088554  -3.4466481E-08   1.0372555E-05
------------------------------------------------------------

 total:                                   0.281 sec
 * total energy  :  -106.9435089 Eh     change       -0.6712403E-03 Eh
   gradient norm :     0.0061324 Eh/α   predicted    -0.5085462E-03 ( -24.24%)
   displ. norm   :     0.3894187 α      lambda       -0.7008894E-03
   maximum displ.:     0.2262486 α      in ANC's #4, #3, #7, ...

........................................................................
.............................. CYCLE    7 ..............................
........................................................................
------------------------------------------------------------
  cycle        total energy    energy error   density error
------------------------------------------------------------
      1     -106.9440578255  -1.0831105E+02   1.5645275E-03
      2     -106.9440633603  -5.5347885E-06   9.2031590E-04
      3     -106.9440502672   1.3093120E-05   3.0869430E-04
      4     -106.9440648107  -1.4543524E-05   8.6791307E-05
      5     -106.9440655724  -7.6169270E-07   4.1118009E-05
      6     -106.9440656925  -1.2006939E-07   2.0572175E-05
      7     -106.9440657196  -2.7126831E-08   9.0966825E-06
------------------------------------------------------------

 total:                                   0.339 sec
 * total energy  :  -106.9440657 Eh     change       -0.5568642E-03 Eh
   gradient norm :     0.0066184 Eh/α   predicted    -0.4035887E-03 ( -27.52%)
   displ. norm   :     0.4145030 α      lambda       -0.6303260E-03
   maximum displ.:     0.2519629 α      in ANC's #4, #3, #7, ...

........................................................................
.............................. CYCLE    8 ..............................
........................................................................
------------------------------------------------------------
  cycle        total energy    energy error   density error
------------------------------------------------------------
      1     -106.9445548734  -1.0831055E+02   1.6069260E-03
      2     -106.9445588364  -3.9630406E-06   9.4816037E-04
      3     -106.9445410347   1.7801780E-05   3.3858111E-04
      4     -106.9445611211  -2.0086395E-05   7.3233407E-05
      5     -106.9445614699  -3.4886490E-07   3.8990592E-05
      6     -106.9445616018  -1.3183400E-07   1.5026114E-05
------------------------------------------------------------

 total:                                   0.209 sec
 * total energy  :  -106.9445616 Eh     change       -0.4958822E-03 Eh
   gradient norm :     0.0066471 Eh/α   predicted    -0.3693182E-03 ( -25.52%)
   displ. norm   :     0.3766745 α      lambda       -0.4507266E-03
   maximum displ.:     0.2440082 α      in ANC's #4, #3, #7, ...

........................................................................
.............................. CYCLE    9 ..............................
........................................................................
------------------------------------------------------------
  cycle        total energy    energy error   density error
------------------------------------------------------------
      1     -106.9448959351  -1.0830968E+02   1.3574414E-03
      2     -106.9448998925  -3.9573662E-06   8.1013637E-04
      3     -106.9448835729   1.6319578E-05   3.2101595E-04
      4     -106.9449012861  -1.7713192E-05   8.5872091E-05
      5     -106.9449021499  -8.6383244E-07   3.4871250E-05
      6     -106.9449022369  -8.6944681E-08   1.7689918E-05
------------------------------------------------------------

 total:                                   0.213 sec
 * total energy  :  -106.9449022 Eh     change       -0.3406351E-03 Eh
   gradient norm :     0.0047074 Eh/α   predicted    -0.2573393E-03 ( -24.45%)
   displ. norm   :     0.2889874 α      lambda       -0.2583153E-03
   maximum displ.:     0.1982905 α      in ANC's #4, #3, #15, ...

........................................................................
.............................. CYCLE   10 ..............................
........................................................................
------------------------------------------------------------
  cycle        total energy    energy error   density error
------------------------------------------------------------
      1     -106.9451013089  -1.0830940E+02   9.8047076E-04
      2     -106.9451029747  -1.6657405E-06   5.8593383E-04
      3     -106.9450954105   7.5641914E-06   2.2402598E-04
      4     -106.9451033208  -7.9102899E-06   6.2757788E-05
      5     -106.9451038403  -5.1959209E-07   2.2253572E-05
      6     -106.9451038736  -3.3201715E-08   1.2389537E-05
------------------------------------------------------------

 total:                                   0.218 sec
 * total energy  :  -106.9451039 Eh     change       -0.2016367E-03 Eh
   gradient norm :     0.0037113 Eh/α   predicted    -0.1399489E-03 ( -30.59%)
   displ. norm   :     0.2372378 α      lambda       -0.1902314E-03
   maximum displ.:     0.1668622 α      in ANC's #4, #3, #15, ...

........................................................................
.............................. CYCLE   11 ..............................
........................................................................
------------------------------------------------------------
  cycle        total energy    energy error   density error
------------------------------------------------------------
      1     -106.9452621195  -1.0831006E+02   7.3150515E-04
      2     -106.9452628556  -7.3609036E-07   4.3644772E-04
      3     -106.9452607246   2.1309753E-06   1.2708071E-04
      4     -106.9452630181  -2.2934764E-06   3.2369387E-05
      5     -106.9452631464  -1.2828046E-07   1.4245324E-05
------------------------------------------------------------

 total:                                   0.213 sec
 * total energy  :  -106.9452631 Eh     change       -0.1592728E-03 Eh
   gradient norm :     0.0035749 Eh/α   predicted    -0.1004784E-03 ( -36.91%)
   displ. norm   :     0.2656310 α      lambda       -0.2026023E-03
   maximum displ.:     0.1813292 α      in ANC's #4, #3, #19, ...

........................................................................
.............................. CYCLE   12 ..............................
........................................................................
------------------------------------------------------------
  cycle        total energy    energy error   density error
------------------------------------------------------------
      1     -106.9454321562  -1.0831070E+02   8.1512587E-04
      2     -106.9454324456  -2.8942893E-07   4.8844417E-04
      3     -106.9454227862   9.6594297E-06   2.4908303E-04
      4     -106.9454333022  -1.0515976E-05   3.6203154E-05
      5     -106.9454334206  -1.1844431E-07   1.7107519E-05
------------------------------------------------------------

 total:                                   0.246 sec
 * total energy  :  -106.9454334 Eh     change       -0.1702742E-03 Eh
   gradient norm :     0.0035883 Eh/α   predicted    -0.1084512E-03 ( -36.31%)
   displ. norm   :     0.3240072 α      lambda       -0.2102023E-03
   maximum displ.:     0.2152123 α      in ANC's #4, #3, #19, ...

........................................................................
.............................. CYCLE   13 ..............................
........................................................................
------------------------------------------------------------
  cycle        total energy    energy error   density error
------------------------------------------------------------
      1     -106.9456004113  -1.0831125E+02   9.6948131E-04
      2     -106.9456012135  -8.0223703E-07   5.8372454E-04
      3     -106.9455888233   1.2390279E-05   2.9029840E-04
      4     -106.9456025881  -1.3764811E-05   3.5339923E-05
      5     -106.9456026657  -7.7601797E-08   2.2411202E-05
      6     -106.9456026959  -3.0172629E-08   1.1931155E-05
------------------------------------------------------------

 total:                                   0.248 sec
 * total energy  :  -106.9456027 Eh     change       -0.1692753E-03 Eh
   gradient norm :     0.0035485 Eh/α   predicted    -0.1161369E-03 ( -31.39%)
   displ. norm   :     0.3371385 α      lambda       -0.1642734E-03
   maximum displ.:     0.2220844 α      in ANC's #3, #4, #8, ...

........................................................................
.............................. CYCLE   14 ..............................
........................................................................
------------------------------------------------------------
  cycle        total energy    energy error   density error
------------------------------------------------------------
      1     -106.9457268808  -1.0831142E+02   9.7062255E-04
      2     -106.9457276997  -8.1893585E-07   5.8161089E-04
      3     -106.9457190712   8.6285023E-06   2.3363609E-04
      4     -106.9457284086  -9.3373618E-06   4.0159177E-05
      5     -106.9457285377  -1.2909122E-07   2.2336052E-05
      6     -106.9457285638  -2.6160592E-08   1.2290889E-05
------------------------------------------------------------

 total:                                   0.335 sec
 * total energy  :  -106.9457286 Eh     change       -0.1258680E-03 Eh
   gradient norm :     0.0033512 Eh/α   predicted    -0.9147362E-04 ( -27.33%)
   displ. norm   :     0.2943080 α      lambda       -0.1031181E-03
   maximum displ.:     0.1977289 α      in ANC's #3, #4, #1, ...

........................................................................
.............................. CYCLE   15 ..............................
........................................................................
------------------------------------------------------------
  cycle        total energy    energy error   density error
------------------------------------------------------------
      1     -106.9458037394  -1.0831166E+02   8.0358717E-04
      2     -106.9458042468  -5.0744400E-07   4.8005063E-04
      3     -106.9458002622   3.9845982E-06   1.6088574E-04
      4     -106.9458045280  -4.2657420E-06   3.3599110E-05
      5     -106.9458046363  -1.0827094E-07   1.6305796E-05
------------------------------------------------------------

 total:                                   0.196 sec
 * total energy  :  -106.9458046 Eh     change       -0.7607241E-04 Eh
   gradient norm :     0.0027234 Eh/α   predicted    -0.5602845E-04 ( -26.35%)
   displ. norm   :     0.1983123 α      lambda       -0.5377529E-04
   maximum displ.:     0.1374574 α      in ANC's #3, #4, #18, ...

........................................................................
.............................. CYCLE   16 ..............................
........................................................................
------------------------------------------------------------
  cycle        total energy    energy error   density error
------------------------------------------------------------
      1     -106.9458437902  -1.0831189E+02   5.5285445E-04
      2     -106.9458439979  -2.0773028E-07   3.3401871E-04
      3     -106.9458376942   6.3037851E-06   1.8783314E-04
      4     -106.9458446428  -6.9486480E-06   2.6630244E-05
      5     -106.9458447069  -6.4137197E-08   1.3612240E-05
------------------------------------------------------------

 total:                                   0.232 sec
 * total energy  :  -106.9458447 Eh     change       -0.4007069E-04 Eh
   gradient norm :     0.0018646 Eh/α   predicted    -0.2794924E-04 ( -30.25%)
   displ. norm   :     0.1915966 α      lambda       -0.3123169E-04
   maximum displ.:     0.1358042 α      in ANC's #3, #4, #18, ...

........................................................................
.............................. CYCLE   17 ..............................
........................................................................
------------------------------------------------------------
  cycle        total energy    energy error   density error
------------------------------------------------------------
      1     -106.9458722445  -1.0831222E+02   6.5167197E-04
      2     -106.9458725470  -3.0245741E-07   3.8474045E-04
      3     -106.9458668792   5.6678186E-06   1.8228796E-04
      4     -106.9458731483  -6.2691491E-06   2.6625183E-05
      5     -106.9458731887  -4.0317573E-08   1.5688878E-05
------------------------------------------------------------

 total:                                   0.223 sec
 * total energy  :  -106.9458732 Eh     change       -0.2848171E-04 Eh
   gradient norm :     0.0014816 Eh/α   predicted    -0.1587293E-04 ( -44.27%)
   displ. norm   :     0.0683363 α      lambda       -0.1245237E-04
   maximum displ.:     0.0469109 α      in ANC's #3, #11, #14, ...

........................................................................
.............................. CYCLE   18 ..............................
........................................................................
------------------------------------------------------------
  cycle        total energy    energy error   density error
------------------------------------------------------------
      1     -106.9458847310  -1.0831202E+02   3.7694789E-04
      2     -106.9458847038   2.7205729E-08   2.2751401E-04
      3     -106.9458803283   4.3755102E-06   1.8247849E-04
      4     -106.9458854605  -5.1322038E-06   2.0020574E-05
      5     -106.9458855001  -3.9568505E-08   1.0519142E-05
------------------------------------------------------------

 total:                                   0.186 sec
 * total energy  :  -106.9458855 Eh     change       -0.1231144E-04 Eh
   gradient norm :     0.0014843 Eh/α   predicted    -0.6240706E-05 ( -49.31%)
   displ. norm   :     0.0837945 α      lambda       -0.1450970E-04
   maximum displ.:     0.0427084 α      in ANC's #3, #11, #14, ...

........................................................................
.............................. CYCLE   19 ..............................
........................................................................
------------------------------------------------------------
  cycle        total energy    energy error   density error
------------------------------------------------------------
      1     -106.9458987139  -1.0831204E+02   5.2492307E-04
      2     -106.9458990231  -3.0922179E-07   3.0393325E-04
      3     -106.9458980092   1.0139217E-06   8.7885951E-05
      4     -106.9458991207  -1.1115505E-06   2.5019524E-05
      5     -106.9458991647  -4.3986802E-08   1.2901516E-05
------------------------------------------------------------

 total:                                   0.174 sec
 * total energy  :  -106.9458992 Eh     change       -0.1366462E-04 Eh
   gradient norm :     0.0011734 Eh/α   predicted    -0.7278279E-05 ( -46.74%)
   displ. norm   :     0.0583064 α      lambda       -0.6930272E-05
   maximum displ.:     0.0319203 α      in ANC's #3, #4, #14, ...

........................................................................
.............................. CYCLE   20 ..............................
........................................................................
------------------------------------------------------------
  cycle        total energy    energy error   density error
------------------------------------------------------------
      1     -106.9459072208  -1.0831202E+02   3.3240544E-04
      2     -106.9459071227   9.8091562E-08   2.0193095E-04
      3     -106.9459033985   3.7241758E-06   1.6800733E-04
      4     -106.9459077680  -4.3695154E-06   1.4742014E-05
      5     -106.9459077766  -8.5473317E-09   8.2102397E-06
------------------------------------------------------------

 total:                                   0.189 sec
 * total energy  :  -106.9459078 Eh     change       -0.8611865E-05 Eh
   gradient norm :     0.0009222 Eh/α   predicted    -0.3471520E-05 ( -59.69%)
   displ. norm   :     0.0866305 α      lambda       -0.1021305E-04
   maximum displ.:     0.0462660 α      in ANC's #3, #4, #1, ...
 * RMSD in coord.:     0.5431854 α      energy gain  -0.4448605E-01 Eh

generating ANC from exact Hessian ...
Using Lindh-Hessian (1995)
 Shifting diagonal of input Hessian by    9.8158841468864999E-003
 Lowest  eigenvalues of input Hessian
    0.000000    0.000000    0.000000    0.000000    0.000000    0.000000
    0.010000    0.010128    0.010208    0.010689    0.011097    0.011186
    0.011387    0.011676    0.012338    0.012648    0.012740    0.013042
 Highest eigenvalues
    2.120901    2.200996    2.205988    2.392303    2.393794    2.394842


........................................................................
.............................. CYCLE   21 ..............................
........................................................................
------------------------------------------------------------
  cycle        total energy    energy error   density error
------------------------------------------------------------
      1     -106.9459195677  -1.0831192E+02   4.5868765E-04
      2     -106.9459197788  -2.1118056E-07   2.6728130E-04
      3     -106.9459192591   5.1976856E-07   6.4899794E-05
      4     -106.9459198396  -5.8053106E-07   1.9491774E-05
------------------------------------------------------------

 total:                                   0.147 sec
 * total energy  :  -106.9459198 Eh     change       -0.1206303E-04 Eh
   gradient norm :     0.0008886 Eh/α   predicted     0.0000000E+00 (-100.00%)
   displ. norm   :     0.0232233 α      lambda       -0.3566588E-05
   maximum displ.:     0.0134333 α      in ANC's #3, #4, #7, ...

........................................................................
.............................. CYCLE   22 ..............................
........................................................................
------------------------------------------------------------
  cycle        total energy    energy error   density error
------------------------------------------------------------
      1     -106.9459240455  -1.0831197E+02   1.3891426E-04
      2     -106.9459238740   1.7148963E-07   1.0129546E-04
      3     -106.9459244927  -6.1875366E-07   6.4746084E-05
      4     -106.9459247423  -2.4956029E-07   1.5884050E-05
------------------------------------------------------------

 total:                                   0.335 sec
 * total energy  :  -106.9459247 Eh     change       -0.4902689E-05 Eh
   gradient norm :     0.0003720 Eh/α   predicted    -0.1903447E-05 ( -61.18%)
   displ. norm   :     0.0780571 α      lambda       -0.9122828E-05
   maximum displ.:     0.0436490 α      in ANC's #3, #4, #1, ...

........................................................................
.............................. CYCLE   23 ..............................
........................................................................
------------------------------------------------------------
  cycle        total energy    energy error   density error
------------------------------------------------------------
      1     -106.9459333190  -1.0831196E+02   3.8326554E-04
      2     -106.9459331111   2.0791563E-07   2.3385250E-04
      3     -106.9459285854   4.5256320E-06   1.9627961E-04
      4     -106.9459340650  -5.4796079E-06   1.6676501E-05
      5     -106.9459340963  -3.1237462E-08   7.6519627E-06
------------------------------------------------------------

 total:                                   0.229 sec
 * total energy  :  -106.9459341 Eh     change       -0.9353982E-05 Eh
   gradient norm :     0.0008492 Eh/α   predicted    -0.4573966E-05 ( -51.10%)
   displ. norm   :     0.0665665 α      lambda       -0.4859401E-05
   maximum displ.:     0.0392816 α      in ANC's #3, #4, #1, ...

........................................................................
.............................. CYCLE   24 ..............................
........................................................................
------------------------------------------------------------
  cycle        total energy    energy error   density error
------------------------------------------------------------
      1     -106.9459390690  -1.0831201E+02   3.0678039E-04
      2     -106.9459391298  -6.0805135E-08   1.8027989E-04
      3     -106.9459386282   5.0153471E-07   6.4859180E-05
      4     -106.9459391919  -5.6360652E-07   9.1080256E-06
------------------------------------------------------------

 total:                                   0.154 sec
 * total energy  :  -106.9459392 Eh     change       -0.5095578E-05 Eh
   gradient norm :     0.0010609 Eh/α   predicted    -0.2434653E-05 ( -52.22%)
   displ. norm   :     0.0685518 α      lambda       -0.4766177E-05
   maximum displ.:     0.0420298 α      in ANC's #3, #4, #1, ...

........................................................................
.............................. CYCLE   25 ..............................
........................................................................
------------------------------------------------------------
  cycle        total energy    energy error   density error
------------------------------------------------------------
      1     -106.9459448061  -1.0831209E+02   2.8166862E-04
      2     -106.9459448490  -4.2894939E-08   1.6643970E-04
      3     -106.9459438531   9.9589890E-07   8.3285141E-05
      4     -106.9459449440  -1.0909028E-06   1.0902506E-05
      5     -106.9459449477  -3.6354777E-09   7.9317229E-06
------------------------------------------------------------

 total:                                   0.210 sec
 * total energy  :  -106.9459449 Eh     change       -0.5755831E-05 Eh
   gradient norm :     0.0007138 Eh/α   predicted    -0.2389022E-05 ( -58.49%)
   displ. norm   :     0.0878770 α      lambda       -0.5931008E-05
   maximum displ.:     0.0547674 α      in ANC's #3, #4, #1, ...

........................................................................
.............................. CYCLE   26 ..............................
........................................................................
------------------------------------------------------------
  cycle        total energy    energy error   density error
------------------------------------------------------------
      1     -106.9459518762  -1.0831208E+02   3.6989073E-04
      2     -106.9459519562  -8.0006060E-08   2.1848322E-04
      3     -106.9459499464   2.0098802E-06   1.1656705E-04
      4     -106.9459521453  -2.1989729E-06   1.9173046E-05
      5     -106.9459521748  -2.9457055E-08   9.6622552E-06
------------------------------------------------------------

 total:                                   0.183 sec
 * total energy  :  -106.9459522 Eh     change       -0.7227099E-05 Eh
   gradient norm :     0.0002644 Eh/α   predicted    -0.2979505E-05 ( -58.77%)
   displ. norm   :     0.1077117 α      lambda       -0.5936319E-05
   maximum displ.:     0.0676620 α      in ANC's #3, #4, #1, ...

........................................................................
.............................. CYCLE   27 ..............................
........................................................................
------------------------------------------------------------
  cycle        total energy    energy error   density error
------------------------------------------------------------
      1     -106.9459586430  -1.0831203E+02   4.7429192E-04
      2     -106.9459588089  -1.6592246E-07   2.7969969E-04
      3     -106.9459571196   1.6893422E-06   1.1148647E-04
      4     -106.9459589943  -1.8746823E-06   1.9701539E-05
      5     -106.9459590071  -1.2800555E-08   1.3784452E-05
------------------------------------------------------------

 total:                                   0.178 sec
 * total energy  :  -106.9459590 Eh     change       -0.6832300E-05 Eh
   gradient norm :     0.0006584 Eh/α   predicted    -0.2983905E-05 ( -56.33%)
   displ. norm   :     0.0946973 α      lambda       -0.4084775E-05
   maximum displ.:     0.0603644 α      in ANC's #3, #1, #4, ...

........................................................................
.............................. CYCLE   28 ..............................
........................................................................
------------------------------------------------------------
  cycle        total energy    energy error   density error
------------------------------------------------------------
      1     -106.9459631818  -1.0831199E+02   4.2813786E-04
      2     -106.9459631756   6.1691310E-09   2.5452585E-04
      3     -106.9459584208   4.7548209E-06   1.7597688E-04
      4     -106.9459636941  -5.2733233E-06   1.9987484E-05
      5     -106.9459637179  -2.3832229E-08   1.0952555E-05
------------------------------------------------------------

 total:                                   0.209 sec
 * total energy  :  -106.9459637 Eh     change       -0.4710833E-05 Eh
   gradient norm :     0.0007312 Eh/α   predicted    -0.2052365E-05 ( -56.43%)
   displ. norm   :     0.0765007 α      lambda       -0.2959475E-05
   maximum displ.:     0.0498971 α      in ANC's #3, #1, #4, ...

........................................................................
.............................. CYCLE   29 ..............................
........................................................................
------------------------------------------------------------
  cycle        total energy    energy error   density error
------------------------------------------------------------
      1     -106.9459665494  -1.0831199E+02   3.5588299E-04
      2     -106.9459666507  -1.0136092E-07   2.1053342E-04
      3     -106.9459653027   1.3480629E-06   9.1305609E-05
      4     -106.9459668062  -1.5035436E-06   1.4533663E-05
      5     -106.9459668120  -5.7634679E-09   1.0215289E-05
------------------------------------------------------------

 total:                                   0.208 sec
 * total energy  :  -106.9459668 Eh     change       -0.3094059E-05 Eh
   gradient norm :     0.0005083 Eh/α   predicted    -0.1485087E-05 ( -52.00%)
   displ. norm   :     0.0555020 α      lambda       -0.2140453E-05
   maximum displ.:     0.0373163 α      in ANC's #3, #1, #11, ...

........................................................................
.............................. CYCLE   30 ..............................
........................................................................
------------------------------------------------------------
  cycle        total energy    energy error   density error
------------------------------------------------------------
      1     -106.9459684739  -1.0831204E+02   2.4252338E-04
      2     -106.9459684440   2.9878279E-08   1.4521389E-04
      3     -106.9459666832   1.7607647E-06   1.1558236E-04
      4     -106.9459687147  -2.0314395E-06   1.2392448E-05
      5     -106.9459687274  -1.2710899E-08   6.2078315E-06
------------------------------------------------------------

 total:                                   0.198 sec
 * total energy  :  -106.9459687 Eh     change       -0.1915413E-05 Eh
   gradient norm :     0.0003027 Eh/α   predicted    -0.1075885E-05 ( -43.83%)
   displ. norm   :     0.0256592 α      lambda       -0.9750336E-06
   maximum displ.:     0.0175257 α      in ANC's #3, #1, #15, ...

........................................................................
.............................. CYCLE   31 ..............................
........................................................................
------------------------------------------------------------
  cycle        total energy    energy error   density error
------------------------------------------------------------
      1     -106.9459698572  -1.0831203E+02   1.0494151E-04
      2     -106.9459698707  -1.3562541E-08   6.2572032E-05
      3     -106.9459697001   1.7064146E-07   3.7105990E-05
      4     -106.9459698945  -1.9446973E-07   6.4322569E-06
------------------------------------------------------------

 total:                                   0.137 sec
 * total energy  :  -106.9459699 Eh     change       -0.1167161E-05 Eh
   gradient norm :     0.0002376 Eh/α   predicted    -0.4898695E-06 ( -58.03%)
   displ. norm   :     0.0344644 α      lambda       -0.1180092E-05
   maximum displ.:     0.0223470 α      in ANC's #3, #1, #10, ...

........................................................................
.............................. CYCLE   32 ..............................
........................................................................
------------------------------------------------------------
  cycle        total energy    energy error   density error
------------------------------------------------------------
      1     -106.9459712258  -1.0831202E+02   1.3266617E-04
      2     -106.9459711859   3.9840756E-08   8.2438381E-05
      3     -106.9459705437   6.4227513E-07   7.2363014E-05
      4     -106.9459713331  -7.8945853E-07   4.2124778E-06
------------------------------------------------------------

 total:                                   0.178 sec
 * total energy  :  -106.9459713 Eh     change       -0.1438560E-05 Eh
   gradient norm :     0.0003455 Eh/α   predicted    -0.5923959E-06 ( -58.82%)
   displ. norm   :     0.0386359 α      lambda       -0.1141223E-05
   maximum displ.:     0.0241824 α      in ANC's #3, #1, #4, ...

........................................................................
.............................. CYCLE   33 ..............................
........................................................................
------------------------------------------------------------
  cycle        total energy    energy error   density error
------------------------------------------------------------
      1     -106.9459726985  -1.0831202E+02   1.3645431E-04
      2     -106.9459727101  -1.1635294E-08   8.0674759E-05
      3     -106.9459726654   4.4753563E-08   1.9272701E-05
------------------------------------------------------------

 total:                                   0.117 sec
 * total energy  :  -106.9459727 Eh     change       -0.1332264E-05 Eh
   gradient norm :     0.0003166 Eh/α   predicted    -0.5727000E-06 ( -57.01%)
   displ. norm   :     0.0395058 α      lambda       -0.1018501E-05
   maximum displ.:     0.0246564 α      in ANC's #3, #1, #4, ...

........................................................................
.............................. CYCLE   34 ..............................
........................................................................
------------------------------------------------------------
  cycle        total energy    energy error   density error
------------------------------------------------------------
      1     -106.9459732309  -1.0831203E+02   1.3916977E-04
      2     -106.9459732893  -5.8374198E-08   9.5609211E-05
      3     -106.9459736531  -3.6382690E-07   6.2703286E-05
      4     -106.9459738146  -1.6146463E-07   2.5592907E-05
      5     -106.9459739134  -9.8796718E-08   3.0076354E-06
------------------------------------------------------------

 total:                                   0.331 sec
 * total energy  :  -106.9459739 Eh     change       -0.1248034E-05 Eh
   gradient norm :     0.0001869 Eh/α   predicted    -0.5131190E-06 ( -58.89%)
   displ. norm   :     0.0410165 α      lambda       -0.9116253E-06
   maximum displ.:     0.0254754 α      in ANC's #3, #1, #4, ...

........................................................................
.............................. CYCLE   35 ..............................
........................................................................
------------------------------------------------------------
  cycle        total energy    energy error   density error
------------------------------------------------------------
      1     -106.9459748515  -1.0831204E+02   1.2168802E-04
      2     -106.9459748644  -1.2930741E-08   7.2662826E-05
      3     -106.9459747661   9.8350029E-08   2.4866125E-05
      4     -106.9459748758  -1.0970963E-07   4.1515015E-06
------------------------------------------------------------

 total:                                   0.178 sec
 * total energy  :  -106.9459749 Eh     change       -0.9623536E-06 Eh
   gradient norm :     0.0001995 Eh/α   predicted    -0.4574575E-06 ( -52.46%)
   displ. norm   :     0.0416950 α      lambda       -0.7597057E-06
   maximum displ.:     0.0256858 α      in ANC's #3, #1, #4, ...

   *** GEOMETRY OPTIMIZATION CONVERGED AFTER 35 ITERATIONS ***

------------------------------------------------------------------------
 total energy gain   :        -0.0445532 Eh      -27.9575 kcal/mol
 total RMSD          :         0.5803379 a0        0.3071 Å
 total power (kW/mol):        -3.3421224 (step)  -14.5538 (real)
------------------------------------------------------------------------

 ANCopt (total)                0 d,  0 h,  0 min,  8.037 sec
 optimizer setup                ...        0 min,  0.001 sec (  0.008%)
 model hessian                  ...        0 min,  0.020 sec (  0.245%)
 ANC generation                 ...        0 min,  0.014 sec (  0.170%)
 coordinate transformation      ...        0 min,  0.001 sec (  0.012%)
 single point calculation       ...        0 min,  7.991 sec ( 99.422%)
 optimization log               ...        0 min,  0.004 sec (  0.049%)
 hessian update                 ...        0 min,  0.002 sec (  0.023%)
 rational function              ...        0 min,  0.004 sec (  0.055%)

================
 final structure:
================
 xtb: 6.7.1 (edcfbbe)
          02242515313D

 58 62  0     0  0            999 V2000
   -2.5729    2.4710   -2.0927 C   0  0  0  0  0  0  0  0  0  0  0  0
   -2.2950    1.3183   -1.3916 C   0  0  0  0  0  0  0  0  0  0  0  0
   -1.2599    1.3095   -0.4283 C   0  0  0  0  0  0  0  0  0  0  0  0
   -0.3457    2.4142   -0.4094 C   0  0  0  0  0  0  0  0  0  0  0  0
   -0.6707    3.5863   -1.1256 C   0  0  0  0  0  0  0  0  0  0  0  0
   -1.7938    3.6279   -1.9170 C   0  0  0  0  0  0  0  0  0  0  0  0
   -0.9964    0.2501    0.4960 C   0  0  0  0  0  0  0  0  0  0  0  0
    0.3115    0.1601    0.9943 C   0  0  0  0  0  0  0  0  0  0  0  0
    1.2119    1.2530    0.8176 C   0  0  0  0  0  0  0  0  0  0  0  0
    0.8291    2.3804    0.2237 N   0  0  0  0  0  0  0  0  0  0  0  0
   -1.9259   -0.7317    0.9547 C   0  0  0  0  0  0  0  0  0  0  0  0
   -1.3743   -1.9346    1.5028 C   0  0  0  0  0  0  0  0  0  0  0  0
   -0.0825   -2.0689    1.8121 N   0  0  0  0  0  0  0  0  0  0  0  0
    0.7279   -1.0224    1.6765 C   0  0  0  0  0  0  0  0  0  0  0  0
    2.0533   -1.0916    2.1505 C   0  0  0  0  0  0  0  0  0  0  0  0
    2.9176   -0.0140    1.9931 C   0  0  0  0  0  0  0  0  0  0  0  0
    2.5141    1.1494    1.3490 C   0  0  0  0  0  0  0  0  0  0  0  0
   -3.3355   -0.5594    0.9581 C   0  0  0  0  0  0  0  0  0  0  0  0
   -4.1401   -1.6494    1.2226 C   0  0  0  0  0  0  0  0  0  0  0  0
   -3.5828   -2.8897    1.5827 C   0  0  0  0  0  0  0  0  0  0  0  0
   -2.2287   -3.0283    1.7653 C   0  0  0  0  0  0  0  0  0  0  0  0
   -3.7862    0.6998    0.7785 O   0  0  0  0  0  0  0  0  0  0  0  0
   -3.0421    0.1974   -1.6871 O   0  0  0  0  0  0  0  0  0  0  0  0
   -2.1113    4.8872   -2.6384 C   0  0  0  0  0  0  0  0  0  0  0  0
   -4.5313   -4.0076    1.8242 C   0  0  0  0  0  0  0  0  0  0  0  0
   -0.0080    4.4347   -1.0656 H   0  0  0  0  0  0  0  0  0  0  0  0
   -3.3884    2.4719   -2.7978 H   0  0  0  0  0  0  0  0  0  0  0  0
    3.1843    1.9856    1.2392 H   0  0  0  0  0  0  0  0  0  0  0  0
    2.3920   -1.9869    2.6472 H   0  0  0  0  0  0  0  0  0  0  0  0
   -1.7954   -3.9413    2.1361 H   0  0  0  0  0  0  0  0  0  0  0  0
   -5.2153   -1.5878    1.1792 H   0  0  0  0  0  0  0  0  0  0  0  0
   -1.4422    5.8886   -2.5859 O   0  0  0  0  0  0  0  0  0  0  0  0
   -3.2376    4.7947   -3.3605 O   0  0  0  0  0  0  0  0  0  0  0  0
   -3.6097    5.9636   -4.0750 C   0  0  0  0  0  0  0  0  0  0  0  0
    4.2959   -0.1528    2.5415 C   0  0  0  0  0  0  0  0  0  0  0  0
    4.7063   -1.1403    3.0981 O   0  0  0  0  0  0  0  0  0  0  0  0
    5.0367    0.9450    2.3495 O   0  0  0  0  0  0  0  0  0  0  0  0
    6.3654    0.8897    2.8469 C   0  0  0  0  0  0  0  0  0  0  0  0
   -5.7300   -3.9136    1.7148 O   0  0  0  0  0  0  0  0  0  0  0  0
   -3.9124   -5.1407    2.1748 O   0  0  0  0  0  0  0  0  0  0  0  0
   -4.7550   -6.2552    2.4256 C   0  0  0  0  0  0  0  0  0  0  0  0
   -5.1743    0.9157    0.6767 C   0  0  0  0  0  0  0  0  0  0  0  0
   -2.3224   -0.8755   -2.2578 C   0  0  0  0  0  0  0  0  0  0  0  0
   -4.1003   -7.0703    2.7225 H   0  0  0  0  0  0  0  0  0  0  0  0
   -5.3134   -6.5194    1.5250 H   0  0  0  0  0  0  0  0  0  0  0  0
   -5.4655   -6.0225    3.2217 H   0  0  0  0  0  0  0  0  0  0  0  0
    6.8155    1.8523    2.6186 H   0  0  0  0  0  0  0  0  0  0  0  0
    6.9181    0.0819    2.3629 H   0  0  0  0  0  0  0  0  0  0  0  0
    6.3600    0.7130    3.9244 H   0  0  0  0  0  0  0  0  0  0  0  0
   -3.0415   -1.6825   -2.3868 H   0  0  0  0  0  0  0  0  0  0  0  0
   -1.5063   -1.2217   -1.6167 H   0  0  0  0  0  0  0  0  0  0  0  0
   -1.9125   -0.5915   -3.2336 H   0  0  0  0  0  0  0  0  0  0  0  0
   -5.2894    1.9838    0.5005 H   0  0  0  0  0  0  0  0  0  0  0  0
   -5.6915    0.6397    1.6007 H   0  0  0  0  0  0  0  0  0  0  0  0
   -5.5966    0.3604   -0.1647 H   0  0  0  0  0  0  0  0  0  0  0  0
   -4.5219    5.7153   -4.6113 H   0  0  0  0  0  0  0  0  0  0  0  0
   -2.8191    6.2501   -4.7716 H   0  0  0  0  0  0  0  0  0  0  0  0
   -3.7830    6.7912   -3.3841 H   0  0  0  0  0  0  0  0  0  0  0  0
  1  6  2  0  0  0  0
  1  2  1  0  0  0  0
  2  3  2  0  0  0  0
  3  7  1  0  0  0  0
  4  3  1  0  0  0  0
  4 10  1  0  0  0  0
  5  4  2  0  0  0  0
  6  5  1  0  0  0  0
  7 11  2  0  0  0  0
  7  8  1  0  0  0  0
  8 14  1  0  0  0  0
  9  8  2  0  0  0  0
  9 17  1  0  0  0  0
 10  9  1  0  0  0  0
 11 12  1  0  0  0  0
 12 21  1  0  0  0  0
 12 13  2  0  0  0  0
 14 13  1  0  0  0  0
 14 15  2  0  0  0  0
 15 29  1  0  0  0  0
 16 15  1  0  0  0  0
 16 35  1  0  0  0  0
 17 16  2  0  0  0  0
 18 11  1  0  0  0  0
 18 19  2  0  0  0  0
 19 20  1  0  0  0  0
 20 21  2  0  0  0  0
 20 25  1  0  0  0  0
 21 30  1  0  0  0  0
 22 18  1  0  0  0  0
 23  2  1  0  0  0  0
 24  6  1  0  0  0  0
 25 40  1  0  0  0  0
 26  5  1  0  0  0  0
 27  1  1  0  0  0  0
 28 17  1  0  0  0  0
 31 19  1  0  0  0  0
 32 24  2  0  0  0  0
 33 34  1  0  0  0  0
 33 24  1  0  0  0  0
 34 57  1  0  0  0  0
 34 58  1  0  0  0  0
 35 36  2  0  0  0  0
 37 35  1  0  0  0  0
 38 37  1  0  0  0  0
 39 25  2  0  0  0  0
 41 44  1  0  0  0  0
 41 40  1  0  0  0  0
 42 54  1  0  0  0  0
 42 22  1  0  0  0  0
 43 23  1  0  0  0  0
 45 41  1  0  0  0  0
 46 41  1  0  0  0  0
 47 38  1  0  0  0  0
 48 38  1  0  0  0  0
 49 38  1  0  0  0  0
 50 43  1  0  0  0  0
 51 43  1  0  0  0  0
 52 43  1  0  0  0  0
 53 42  1  0  0  0  0
 55 42  1  0  0  0  0
 56 34  1  0  0  0  0
M  END

 Bond Distances (Angstroems)
 ---------------------------
C1-C2=1.3775         C1-C6=1.4058         C1-H27=1.0781        C2-C1=1.3775         C2-C3=1.4140         C2-O23=1.3791        
C3-C2=1.4140         C3-C4=1.4340         C3-C7=1.4305         C4-C3=1.4340         C4-C5=1.4115         C4-N10=1.3349        
C5-C4=1.4115         C5-C6=1.3745         C5-H26=1.0782        C6-C1=1.4058         C6-C5=1.3745         C6-C24=1.4856        
C7-C3=1.4305         C7-C8=1.4025         C7-C11=1.4276        C8-C7=1.4025         C8-C9=1.4270         C8-C14=1.4272        
C9-C8=1.4270         C9-N10=1.3306        C9-C17=1.4103        N10-C4=1.3349        N10-C9=1.3306        C11-C7=1.4276        
C11-C12=1.4324       C11-C18=1.4201       C12-C11=1.4324       C12-N13=1.3351       C12-C21=1.4125       N13-C12=1.3351       
N13-C14=1.3306       C14-C8=1.4272        C14-N13=1.3306       C14-C15=1.4093       C15-C14=1.4093       C15-C16=1.3903       
C15-H29=1.0784       C16-C15=1.3903       C16-C17=1.3896       C16-C35=1.4899       C17-C9=1.4103        C17-C16=1.3896       
C17-H28=1.0772       C18-C11=1.4201       C18-C19=1.3803       C18-O22=1.3494       C19-C18=1.3803       C19-C20=1.4066       
C19-H31=1.0779       C20-C19=1.4066       C20-C21=1.3733       C20-C25=1.4858       C21-C12=1.4125       C21-C20=1.3733       
C21-H30=1.0765       O22-C18=1.3494       O22-C42=1.4084       O23-C2=1.3791        O23-C43=1.4123       C24-C6=1.4856        
C24-O32=1.2055       C24-O33=1.3411       C25-C20=1.4858       C25-O39=1.2073       C25-O40=1.3379       H26-C5=1.0782        
H27-C1=1.0781        H28-C17=1.0772       H29-C15=1.0784       H30-C21=1.0765       H31-C19=1.0779       O32-C24=1.2055       
O33-C24=1.3411       O33-C34=1.4196       C34-O33=1.4196       C34-H56=1.0869       C34-H57=1.0920       C34-H58=1.0920       
C35-C16=1.4899       C35-O36=1.2055       C35-O37=1.3382       O36-C35=1.2055       O37-C35=1.3382       O37-C38=1.4199       
C38-O37=1.4199       C38-H47=1.0868       C38-H48=1.0920       C38-H49=1.0919       O39-C25=1.2073       O40-C25=1.3379       
O40-C41=1.4195       C41-O40=1.4195       C41-H44=1.0868       C41-H45=1.0921       C41-H46=1.0921       C42-O22=1.4084       
C42-H53=1.0886       C42-H54=1.0942       C42-H55=1.0931       C43-O23=1.4123       C43-H50=1.0885       C43-H51=1.0940       
C43-H52=1.0959       H44-C41=1.0868       H45-C41=1.0921       H46-C41=1.0921       H47-C38=1.0868       H48-C38=1.0920       
H49-C38=1.0919       H50-C43=1.0885       H51-C43=1.0940       H52-C43=1.0959       H53-C42=1.0886       H54-C42=1.0942       
H55-C42=1.0931       H56-C34=1.0869       H57-C34=1.0920       H58-C34=1.0920       
 C  H  Rav=1.0873 sigma=0.0065  Rmin=1.0765  Rmax=1.0959    21
 C  C  Rav=1.4174 sigma=0.0319  Rmin=1.3733  Rmax=1.4899    24
 N  C  Rav=1.3328 sigma=0.0022  Rmin=1.3306  Rmax=1.3351     4
 O  C  Rav=1.3418 sigma=0.0805  Rmin=1.2055  Rmax=1.4199    13

 selected bond angles (degree)
 --------------------
C6-C1-C2=120.88                H27-C1-C2=119.09               H27-C1-C6=120.02               C3-C2-C1=119.97                
O23-C2-C1=117.50               O23-C2-C3=122.51               C4-C3-C2=118.09                C7-C3-C2=125.43                
C7-C3-C4=116.40                C5-C4-C3=119.09                N10-C4-C3=123.22               N10-C4-C5=117.66               
C6-C5-C4=120.36                H26-C5-C4=118.92               H26-C5-C6=120.69               C5-C6-C1=119.99                
C24-C6-C1=121.23               C24-C6-C5=118.68               C8-C7-C3=116.67                C11-C7-C3=126.65               
C11-C7-C8=116.67               C9-C8-C7=119.69                C14-C8-C7=119.67               C14-C8-C9=120.64               
N10-C9-C8=121.51               C17-C9-C8=118.67               C17-C9-N10=119.74              C9-N10-C4=119.10               

 selected dihedral angles (degree)
 ---------------------------------
C3-C2-C1-C6=  3.41            C3-C2-C1-H27=182.22           O23-C2-C1-C6=184.53           O23-C2-C1-H27=  3.34          
C4-C3-C2-C1=346.97            C4-C3-C2-O23=165.80           C7-C3-C2-C1=170.51            C7-C3-C2-O23=349.33           
C5-C4-C3-C2= 13.92            C5-C4-C3-C7=190.70            N10-C4-C3-C2=195.99           N10-C4-C3-C7= 12.78           
C6-C5-C4-C3=354.75            C6-C5-C4-N10=172.79           H26-C5-C4-C3=176.67           H26-C5-C4-N10=354.71          
C5-C6-C1-C2=  5.62            C5-C6-C1-H27=186.83           C24-C6-C1-C2=181.86           C24-C6-C1-H27=  3.06          
C1-C6-C5-C4=355.44            C1-C6-C5-H26=173.48           C24-C6-C5-C4=179.11           C24-C6-C5-H26=357.15          
C8-C7-C3-C2=155.94            C8-C7-C3-C4=339.42            C11-C7-C3-C2=336.49           C11-C7-C3-C4=159.97           
C9-C8-C7-C3= 13.97            C9-C8-C7-C11=193.48           C14-C8-C7-C3=193.80           C14-C8-C7-C11= 13.31          
N10-C9-C8-C7=  2.08           N10-C9-C8-C14=182.25          C17-C9-C8-C7=178.83           C17-C9-C8-C14=359.00          
C9-N10-C4-C3=  3.28           C9-N10-C4-C5=185.32           C4-N10-C9-C8=349.05           C4-N10-C9-C17=172.33          
           -------------------------------------------------
          |                Final Singlepoint                |
           -------------------------------------------------
repulsion energy          1.3660178817112E+00 Eh
dispersion energy         5.1830788948395E-05 Eh
interaction energy        0.0000000000000E+00 Eh
number of electrons       1.8700000000000E+02 e
integral cutoff           1.7347787504999E+01 bohr

------------------------------------------------------------
  cycle        total energy    energy error   density error
------------------------------------------------------------
      1     -106.9459748523  -1.0831204E+02   1.1054845E-05
      2     -106.9459748470   5.3230593E-09   1.2257311E-05
------------------------------------------------------------

electronic energy        -1.0831204455947E+02 Eh
total energy             -1.0694597484697E+02 Eh

 total:                                   0.068 sec
 - repulsion                              0.000 sec (  0%)
 - dispersion                             0.003 sec (  4%)
 - coulomb                                0.001 sec (  1%)
 - hamiltonian                            0.005 sec (  8%)
 - scc                                    0.058 sec ( 85%)

           -------------------------------------------------
          |                Property Printout                |
           -------------------------------------------------
           -------------------------------------------------
          |                Geometry Summary                 |
           -------------------------------------------------

      molecular mass/u    :      501.4652708
   center of mass at/Å    :       -1.0966826       0.2317254       0.4134232
  moments of inertia/u·Å² :        0.5494254E+04   0.5824984E+04   0.1085316E+05
rotational constants/cm⁻¹ :        0.3068230E-02   0.2894022E-02   0.1553247E-02

 * 59 selected distances

     #   Z          #   Z                                           value/Å
     1   6 C        2   6 C                                       1.3774767
     2   6 C        3   6 C                                       1.4139562
     3   6 C        4   6 C                                       1.4340499 (max)
     4   6 C        5   6 C                                       1.4115265
     1   6 C        6   6 C                                       1.4058198
     5   6 C        6   6 C                                       1.3745262
     3   6 C        7   6 C                                       1.4305029
     7   6 C        8   6 C                                       1.4025076
     8   6 C        9   6 C                                       1.4269843
     4   6 C       10   7 N                                       1.3349434
     9   6 C       10   7 N                                       1.3306024
     7   6 C       11   6 C                                       1.4276297
    11   6 C       12   6 C                                       1.4323704
    12   6 C       13   7 N                                       1.3350565
     8   6 C       14   6 C                                       1.4272362
    13   7 N       14   6 C                                       1.3306224
    14   6 C       15   6 C                                       1.4093060
    15   6 C       16   6 C                                       1.3903444
     9   6 C       17   6 C                                       1.4102635
    16   6 C       17   6 C                                       1.3896379
    11   6 C       18   6 C                                       1.4200929
    18   6 C       19   6 C                                       1.3803212
    19   6 C       20   6 C                                       1.4066267
    12   6 C       21   6 C                                       1.4124789
    20   6 C       21   6 C                                       1.3733100
    18   6 C       22   8 O                                       1.3494394
     2   6 C       23   8 O                                       1.3790865
     5   6 C       26   1 H                                       1.0782242
     1   6 C       27   1 H                                       1.0780840
    17   6 C       28   1 H                                       1.0771884
    15   6 C       29   1 H                                       1.0784110
    21   6 C       30   1 H                                       1.0764839 (min)
    19   6 C       31   1 H                                       1.0778805
    24   6 C       32   8 O                                       1.2055198
    24   6 C       33   8 O                                       1.3411013
    33   8 O       34   6 C                                       1.4195672
    35   6 C       36   8 O                                       1.2055155
    35   6 C       37   8 O                                       1.3382303
    37   8 O       38   6 C                                       1.4198635
    25   6 C       39   8 O                                       1.2073357
    25   6 C       40   8 O                                       1.3378690
    40   8 O       41   6 C                                       1.4195172
    22   8 O       42   6 C                                       1.4084040
    23   8 O       43   6 C                                       1.4123272
    41   6 C       44   1 H                                       1.0868355
    41   6 C       45   1 H                                       1.0921289
    41   6 C       46   1 H                                       1.0920625
    38   6 C       47   1 H                                       1.0868110
    38   6 C       48   1 H                                       1.0919809
    38   6 C       49   1 H                                       1.0919443
    43   6 C       50   1 H                                       1.0885089
    43   6 C       51   1 H                                       1.0940489
    43   6 C       52   1 H                                       1.0958566
    42   6 C       53   1 H                                       1.0886061
    42   6 C       54   1 H                                       1.0942483
    42   6 C       55   1 H                                       1.0930647
    34   6 C       56   1 H                                       1.0869374
    34   6 C       57   1 H                                       1.0919756
    34   6 C       58   1 H                                       1.0919544

 * 4 distinct bonds (by element types)

   Z      Z             #   av. dist./Å        max./Å        min./Å
   1 H    6 C          21     1.0872970     1.0958566     1.0764839
   6 C    6 C          21     1.4074747     1.4340499     1.3733100
   6 C    7 N           4     1.3328062     1.3350565     1.3306024
   6 C    8 O          13     1.3418290     1.4198635     1.2055155


optimized geometry written to: xtbopt.mol


           -------------------------------------------------
          | TOTAL ENERGY             -106.945974846975 Eh   |
          | GRADIENT NORM               0.000201644940 Eh/α |
           -------------------------------------------------

------------------------------------------------------------------------
Note: The following floating-point exceptions are signalling: IEEE_UNDERFLOW_FLAG
normal termination of xtb
 * finished run on 2025/02/24 at 15:31:07.561     
------------------------------------------------------------------------
 total:
 * wall-time:     0 d,  0 h,  0 min,  8.528 sec
 *  cpu-time:     0 d,  0 h,  0 min, 23.788 sec
 * ratio c/w:     2.789 speedup
 SCF:
 * wall-time:     0 d,  0 h,  0 min,  0.400 sec
 *  cpu-time:     0 d,  0 h,  0 min,  0.757 sec
 * ratio c/w:     1.891 speedup
 ANC optimizer:
 * wall-time:     0 d,  0 h,  0 min,  8.109 sec
 *  cpu-time:     0 d,  0 h,  0 min, 23.026 sec
 * ratio c/w:     2.840 speedup

      -----------------------------------------------------------      
     |                   =====================                   |     
     |                           x T B                           |     
     |                   =====================                   |     
     |                         S. Grimme                         |     
     |          Mulliken Center for Theoretical Chemistry        |     
     |                    University of Bonn                     |     
      -----------------------------------------------------------      

   * xtb version 6.7.1 (edcfbbe) compiled by 'runner@Mac-1732539442253.local' on 2024-11-25

   xtb is free software: you can redistribute it and/or modify it under
   the terms of the GNU Lesser General Public License as published by
   the Free Software Foundation, either version 3 of the License, or
   (at your option) any later version.
   
   xtb is distributed in the hope that it will be useful,
   but WITHOUT ANY WARRANTY; without even the implied warranty of
   MERCHANTABILITY or FITNESS FOR A PARTICULAR PURPOSE.  See the
   GNU Lesser General Public License for more details.
   
   Cite this work as:
   * C. Bannwarth, E. Caldeweyher, S. Ehlert, A. Hansen, P. Pracht,
     J. Seibert, S. Spicher, S. Grimme, WIREs Comput. Mol. Sci., 2020, 11,
     e01493. DOI: 10.1002/wcms.1493
   
   for GFN2-xTB:
   * C. Bannwarth, S. Ehlert and S. Grimme., J. Chem. Theory Comput., 2019,
     15, 1652-1671. DOI: 10.1021/acs.jctc.8b01176
   for GFN1-xTB:
   * S. Grimme, C. Bannwarth, P. Shushkov, J. Chem. Theory Comput., 2017,
     13, 1989-2009. DOI: 10.1021/acs.jctc.7b00118
   for GFN0-xTB:
   * P. Pracht, E. Caldeweyher, S. Ehlert, S. Grimme, ChemRxiv, 2019, preprint.
     DOI: 10.26434/chemrxiv.8326202.v1
   for GFN-FF:
   * S. Spicher and S. Grimme, Angew. Chem. Int. Ed., 2020, 59, 15665-15673.
     DOI: 10.1002/anie.202004239
   
   for ALPB and GBSA implicit solvation:
   * S. Ehlert, M. Stahn, S. Spicher, S. Grimme, J. Chem. Theory Comput.,
     2021, 17, 4250-4261. DOI: 10.1021/acs.jctc.1c00471
   
   for ddCOSMO and CPCM-X implicit solvation:
   * M. Stahn, S. Ehlert, S. Grimme, J. Phys. Chem. A,
     2023, XX, XXXX-XXXX. DOI: 10.1021/acs.jpca.3c04382
   
   for DFT-D4:
   * E. Caldeweyher, C. Bannwarth and S. Grimme, J. Chem. Phys., 2017,
     147, 034112. DOI: 10.1063/1.4993215
   * E. Caldeweyher, S. Ehlert, A. Hansen, H. Neugebauer, S. Spicher,
     C. Bannwarth and S. Grimme, J. Chem. Phys., 2019, 150, 154122.
     DOI: 10.1063/1.5090222
   * E. Caldeweyher, J.-M. Mewes, S. Ehlert and S. Grimme, Phys. Chem. Chem. Phys.
     2020, 22, 8499-8512. DOI: 10.1039/D0CP00502A
   
   for sTDA-xTB:
   * S. Grimme and C. Bannwarth, J. Chem. Phys., 2016, 145, 054103.
     DOI: 10.1063/1.4959605
   
   in the mass-spec context:
   * V. Asgeirsson, C. Bauer and S. Grimme, Chem. Sci., 2017, 8, 4879.
     DOI: 10.1039/c7sc00601b
   * J. Koopman and S. Grimme, ACS Omega 2019, 4, 12, 15120-15133.
     DOI: 10.1021/acsomega.9b02011
   
   for metadynamics refer to:
   * S. Grimme, J. Chem. Theory Comput., 2019, 155, 2847-2862
     DOI: 10.1021/acs.jctc.9b00143
   
   for SPH calculations refer to:
   * S. Spicher and S. Grimme, J. Chem. Theory Comput., 2021, 17, 1701-1714
     DOI: 10.1021/acs.jctc.0c01306
   
   for ONIOM refer to:
   * C. Plett, A. Katbashev, S. Ehlert, S. Grimme, M. Bursch,
     Phys. Chem. Chem. Phys., 2023, 25, 17860-17868. DOI: 10.1039/D3CP02178E
   
   for DIPRO refer to:
   * J. Kohn, N. Gildemeister, S. Grimme, D. Fazzi, A. Hansen,
     J. Chem. Phys., 2023, just accepted.
   
   for PTB refer to:
   * S. Grimme, M. Mueller, A. Hansen, J. Chem. Phys., 2023, 158, 124111.
     DOI: 10.1063/5.0137838
   
   with help from (in alphabetical order)
   P. Atkinson, C. Bannwarth, F. Bohle, G. Brandenburg, E. Caldeweyher
   M. Checinski, S. Dohm, S. Ehlert, S. Ehrlich, I. Gerasimov, C. Hölzer
   A. Katbashev, J. Kohn, J. Koopman, C. Lavigne, S. Lehtola, F. März, M. Müller,
   F. Musil, H. Neugebauer, J. Pisarek, C. Plett, P. Pracht, F. Pultar,
   J. Seibert, P. Shushkov, S. Spicher, M. Stahn, M. Steiner, T. Strunk,
   J. Stückrath, T. Rose, and J. Unsleber
   
 * started run on 2025/02/24 at 15:31:07.582     
   ID    Z sym.   atoms
    1    6 C      1-9, 11, 12, 14-21, 24, 25, 34, 35, 38, 41-43
    2    7 N      10, 13
    3    8 O      22, 23, 32, 33, 36, 37, 39, 40
    4    1 H      26-31, 44-58

           -------------------------------------------------
          |                Calculation Setup                |
           -------------------------------------------------

          program call               : xtb Base3CO2Me.mol --opt tight --cycles 500 --chrg -1 --uhf 0 --spinpol --tblite
          coordinate file            : Base3CO2Me.mol
          omp threads                :                     8

Wavefunction read from restart file
repulsion energy          1.2855876210723E+00 Eh
dispersion energy        -1.6980841215837E-04 Eh
interaction energy        0.0000000000000E+00 Eh
number of electrons       1.8800000000000E+02 e
integral cutoff           1.7347787504999E+01 bohr

------------------------------------------------------------
  cycle        total energy    energy error   density error
------------------------------------------------------------
      1     -107.1612041404  -1.0844662E+02   2.5229081E-02
      2     -107.1830161494  -2.1812009E-02   1.5911982E-02
      3     -107.1855091463  -2.4929969E-03   1.1299556E-02
      4     -107.1892589643  -3.7498180E-03   5.2576127E-03
      5     -107.1911896158  -1.9306515E-03   2.5355836E-03
      6     -107.1915907949  -4.0117910E-04   1.4551223E-03
      7     -107.1915937055  -2.9106266E-06   1.1518671E-03
      8     -107.1917212278  -1.2752227E-04   5.7331759E-04
      9     -107.1917344762  -1.3248444E-05   3.3248646E-04
     10     -107.1917399871  -5.5108920E-06   1.4166704E-04
     11     -107.1917407991  -8.1200400E-07   6.6617381E-05
     12     -107.1917410063  -2.0713995E-07   3.1014800E-05
     13     -107.1917410148  -8.5705238E-09   1.5908004E-05
------------------------------------------------------------

electronic energy        -1.0847715882749E+02 Eh
total energy             -1.0719174101483E+02 Eh

 total:                                   0.475 sec
 - repulsion                              0.000 sec (  0%)
 - dispersion                             0.003 sec (  0%)
 - coulomb                                0.001 sec (  0%)
 - hamiltonian                            0.006 sec (  1%)
 - scc                                    0.465 sec ( 97%)

      ----------------------------------------------------------- 
     |                   =====================                   |
     |                        A N C O P T                        |
     |                   =====================                   |
     |               Approximate Normal Coordinate               |
     |                Rational Function Optimizer                |
      ----------------------------------------------------------- 
      ----------------------------------------------------------- 
     |                   =====================                   |
     |                        A N C O P T                        |
     |                   =====================                   |
     |               Approximate Normal Coordinate               |
     |                Rational Function Optimizer                |
      ----------------------------------------------------------- 

          ...................................................
          :                      SETUP                      :
          :.................................................:
          :   optimization level             tight          :
          :   max. optcycles                   500          :
          :   ANC micro-cycles                  20          :
          :   degrees of freedom               168          :
          :.................................................:
          :   RF solver                   davidson          :
          :   write xtbopt.log                true          :
          :   linear?                        false          :
          :   energy convergence         0.1000000E-05 Eh   :
          :   grad. convergence          0.8000000E-03 Eh/α :
          :   maxmium RF displ.          1.0000000          :
          :   Hlow (freq-cutoff)         0.1000000E-01      :
          :   Hmax (freq-cutoff)         5.0000000          :
          :   S6 in model hess.         20.0000000          :
          ...................................................

generating ANC from exact Hessian ...
Using Lindh-Hessian (1995)
 Shifting diagonal of input Hessian by    9.8260030622742810E-003
 Lowest  eigenvalues of input Hessian
    0.000000    0.000000    0.000000    0.000000    0.000000    0.000000
    0.010000    0.010142    0.010269    0.010812    0.010997    0.011311
    0.011612    0.011791    0.012399    0.012536    0.012571    0.012837
 Highest eigenvalues
    2.058862    2.168827    2.174665    2.265378    2.265969    2.266411


........................................................................
.............................. CYCLE    1 ..............................
........................................................................
------------------------------------------------------------
  cycle        total energy    energy error   density error
------------------------------------------------------------
      1     -107.1917408310  -1.0847716E+02   3.7285153E-05
      2     -107.1917408600  -2.8997761E-08   3.3473769E-05
      3     -107.1917410272  -1.6718661E-07   5.6761252E-06
------------------------------------------------------------

 total:                                   0.112 sec
 * total energy  :  -107.1917410 Eh     change       -0.1235991E-07 Eh
   gradient norm :     0.1650212 Eh/α   predicted     0.0000000E+00 (-100.00%)
   displ. norm   :     0.4006854 α      lambda       -0.3562392E-01
   maximum displ.:     0.1908540 α      in ANC's #25, #84, #55, ...

........................................................................
.............................. CYCLE    2 ..............................
........................................................................
------------------------------------------------------------
  cycle        total energy    energy error   density error
------------------------------------------------------------
      1     -107.2173721221  -1.0852181E+02   5.6949571E-03
      2     -107.2176222808  -2.5015864E-04   3.3691474E-03
      3     -107.2172291979   3.9308281E-04   2.4658763E-03
      4     -107.2178081549  -5.7895698E-04   6.2348476E-04
      5     -107.2178625080  -5.4353112E-05   1.7718411E-04
      6     -107.2178645135  -2.0054214E-06   9.9693526E-05
      7     -107.2178644568   5.6687540E-08   7.2345535E-05
      8     -107.2178648858  -4.2905641E-07   3.3660448E-05
      9     -107.2178650232  -1.3734861E-07   1.0690348E-05
------------------------------------------------------------

 total:                                   0.369 sec
 * total energy  :  -107.2178650 Eh     change       -0.2612400E-01 Eh
   gradient norm :     0.0787791 Eh/α   predicted    -0.2070892E-01 ( -20.73%)
   displ. norm   :     0.4824449 α      lambda       -0.1641282E-01
[...]
    19   6 C       31   1 H                                       1.0777266
    24   6 C       32   8 O                                       1.2039418
    24   6 C       33   8 O                                       1.3436652
    33   8 O       34   6 C                                       1.4197211
    35   6 C       36   8 O                                       1.2070467
    35   6 C       37   8 O                                       1.3339139
    37   8 O       38   6 C                                       1.4210620
    25   6 C       39   8 O                                       1.2070895
    25   6 C       40   8 O                                       1.3389875
    40   8 O       41   6 C                                       1.4196073
    22   8 O       42   6 C                                       1.4076421
    23   8 O       43   6 C                                       1.4123470
    41   6 C       44   1 H                                       1.0868185
    41   6 C       45   1 H                                       1.0919741
    41   6 C       46   1 H                                       1.0920489
    38   6 C       47   1 H                                       1.0870483
    38   6 C       48   1 H                                       1.0921887
    38   6 C       49   1 H                                       1.0909334
    43   6 C       50   1 H                                       1.0885400
    43   6 C       51   1 H                                       1.0941443
    43   6 C       52   1 H                                       1.0958043
    42   6 C       53   1 H                                       1.0881595
    42   6 C       54   1 H                                       1.0944318
    42   6 C       55   1 H                                       1.0933687
    34   6 C       56   1 H                                       1.0869547
    34   6 C       57   1 H                                       1.0919280
    34   6 C       58   1 H                                       1.0918646
    59   6 C       60   6 C                                       1.3866533
    60   6 C       61   6 C                                       1.4145277
    62   6 C       63   6 C                                       1.4092054
    59   6 C       64   6 C                                       1.4004979
    63   6 C       64   6 C                                       1.3770777
    61   6 C       65   6 C                                       1.4307534
    65   6 C       66   6 C                                       1.4043679
    66   6 C       67   6 C                                       1.4259044
    62   6 C       68   7 N                                       1.3343195
    67   6 C       68   7 N                                       1.3311578
    65   6 C       69   6 C                                       1.4292372
    69   6 C       70   6 C                                       1.4327857
    70   6 C       71   7 N                                       1.3343216
    66   6 C       72   6 C                                       1.4255171
    71   7 N       72   6 C                                       1.3303158
    72   6 C       73   6 C                                       1.4092652
    73   6 C       74   6 C                                       1.3892364
    67   6 C       75   6 C                                       1.4091300
    74   6 C       75   6 C                                       1.3897970
    69   6 C       76   6 C                                       1.4239297
    76   6 C       77   6 C                                       1.3783383
    77   6 C       78   6 C                                       1.4071862
    70   6 C       79   6 C                                       1.4131166
    78   6 C       79   6 C                                       1.3720821
    76   6 C       80   8 O                                       1.3525573
    60   6 C       81   8 O                                       1.3593556
Note: The following floating-point exceptions are signalling: IEEE_UNDERFLOW_FLAG
normal termination of xtb
    63   6 C       84   1 H                                       1.0776248
    59   6 C       85   1 H                                       1.0768409
    75   6 C       86   1 H                                       1.0771681
    73   6 C       87   1 H                                       1.0783993
    79   6 C       88   1 H                                       1.0764330 (min)
    77   6 C       89   1 H                                       1.0777126
    82   6 C       90   8 O                                       1.2049984
    82   6 C       91   8 O                                       1.3412391
    91   8 O       92   6 C                                       1.4197803
    93   6 C       94   8 O                                       1.2044485
    93   6 C       95   8 O                                       1.3423205
    95   8 O       96   6 C                                       1.4211731
    83   6 C       97   8 O                                       1.2075932
    83   6 C       98   8 O                                       1.3374866
    98   8 O       99   6 C                                       1.4194008
    80   8 O      100   6 C                                       1.4078993
    81   8 O      101   6 C                                       1.4125107
    99   6 C      102   1 H                                       1.0867770
    99   6 C      103   1 H                                       1.0921139
    99   6 C      104   1 H                                       1.0920785
    96   6 C      105   1 H                                       1.0871577
    96   6 C      106   1 H                                       1.0919629
    96   6 C      107   1 H                                       1.0916354
   101   6 C      108   1 H                                       1.0907572
   101   6 C      109   1 H                                       1.0928464
   101   6 C      110   1 H                                       1.0923093
   100   6 C      111   1 H                                       1.0887303
   100   6 C      112   1 H                                       1.0940133
   100   6 C      113   1 H                                       1.0936733
    92   6 C      114   1 H                                       1.0901836
    92   6 C      115   1 H                                       1.0919757
    92   6 C      116   1 H                                       1.0911124

 * 4 distinct bonds (by element types)

   Z      Z             #   av. dist./Å        max./Å        min./Å
   1 H    6 C          42     1.0872427     1.0958043     1.0764330
   6 C    6 C          41     1.4068724     1.4346284     1.3720821
   6 C    7 N           8     1.3323295     1.3356399     1.3292824
   6 C    8 O          26     1.3412980     1.4211731     1.2039418


optimized geometry written to: xtbopt.mol


           -------------------------------------------------
          | TOTAL ENERGY             -213.923852945185 Eh   |
          | GRADIENT NORM               0.000109624022 Eh/α |
           -------------------------------------------------

------------------------------------------------------------------------
 * finished run on 2025/02/24 at 15:32:44.133     
------------------------------------------------------------------------
 total:
 * wall-time:     0 d,  0 h,  1 min, 16.021 sec
 *  cpu-time:     0 d,  0 h,  3 min,  5.737 sec
 * ratio c/w:     2.443 speedup
 SCF:
 * wall-time:     0 d,  0 h,  0 min,  1.473 sec
 *  cpu-time:     0 d,  0 h,  0 min,  3.976 sec
 * ratio c/w:     2.699 speedup
 ANC optimizer:
 * wall-time:     0 d,  0 h,  1 min, 14.540 sec
 *  cpu-time:     0 d,  0 h,  3 min,  1.756 sec
 * ratio c/w:     2.438 speedup

      -----------------------------------------------------------      
     |                   =====================                   |     
     |                           x T B                           |     
     |                   =====================                   |     
     |                         S. Grimme                         |     
     |          Mulliken Center for Theoretical Chemistry        |     
     |                    University of Bonn                     |     
      -----------------------------------------------------------      

   * xtb version 6.7.1 (edcfbbe) compiled by 'runner@Mac-1732539442253.local' on 2024-11-25

   xtb is free software: you can redistribute it and/or modify it under
   the terms of the GNU Lesser General Public License as published by
   the Free Software Foundation, either version 3 of the License, or
   (at your option) any later version.
   
   xtb is distributed in the hope that it will be useful,
   but WITHOUT ANY WARRANTY; without even the implied warranty of
   MERCHANTABILITY or FITNESS FOR A PARTICULAR PURPOSE.  See the
   GNU Lesser General Public License for more details.
   
   Cite this work as:
   * C. Bannwarth, E. Caldeweyher, S. Ehlert, A. Hansen, P. Pracht,
     J. Seibert, S. Spicher, S. Grimme, WIREs Comput. Mol. Sci., 2020, 11,
     e01493. DOI: 10.1002/wcms.1493
   
   for GFN2-xTB:
   * C. Bannwarth, S. Ehlert and S. Grimme., J. Chem. Theory Comput., 2019,
     15, 1652-1671. DOI: 10.1021/acs.jctc.8b01176
   for GFN1-xTB:
   * S. Grimme, C. Bannwarth, P. Shushkov, J. Chem. Theory Comput., 2017,
     13, 1989-2009. DOI: 10.1021/acs.jctc.7b00118
   for GFN0-xTB:
   * P. Pracht, E. Caldeweyher, S. Ehlert, S. Grimme, ChemRxiv, 2019, preprint.
     DOI: 10.26434/chemrxiv.8326202.v1
   for GFN-FF:
   * S. Spicher and S. Grimme, Angew. Chem. Int. Ed., 2020, 59, 15665-15673.
     DOI: 10.1002/anie.202004239
   
   for ALPB and GBSA implicit solvation:
   * S. Ehlert, M. Stahn, S. Spicher, S. Grimme, J. Chem. Theory Comput.,
     2021, 17, 4250-4261. DOI: 10.1021/acs.jctc.1c00471
   
   for ddCOSMO and CPCM-X implicit solvation:
   * M. Stahn, S. Ehlert, S. Grimme, J. Phys. Chem. A,
     2023, XX, XXXX-XXXX. DOI: 10.1021/acs.jpca.3c04382
   
   for DFT-D4:
   * E. Caldeweyher, C. Bannwarth and S. Grimme, J. Chem. Phys., 2017,
     147, 034112. DOI: 10.1063/1.4993215
   * E. Caldeweyher, S. Ehlert, A. Hansen, H. Neugebauer, S. Spicher,
     C. Bannwarth and S. Grimme, J. Chem. Phys., 2019, 150, 154122.
     DOI: 10.1063/1.5090222
   * E. Caldeweyher, J.-M. Mewes, S. Ehlert and S. Grimme, Phys. Chem. Chem. Phys.
     2020, 22, 8499-8512. DOI: 10.1039/D0CP00502A
   
   for sTDA-xTB:
   * S. Grimme and C. Bannwarth, J. Chem. Phys., 2016, 145, 054103.
     DOI: 10.1063/1.4959605
   
   in the mass-spec context:
   * V. Asgeirsson, C. Bauer and S. Grimme, Chem. Sci., 2017, 8, 4879.
     DOI: 10.1039/c7sc00601b
   * J. Koopman and S. Grimme, ACS Omega 2019, 4, 12, 15120-15133.
     DOI: 10.1021/acsomega.9b02011
   
   for metadynamics refer to:
   * S. Grimme, J. Chem. Theory Comput., 2019, 155, 2847-2862
     DOI: 10.1021/acs.jctc.9b00143
   
   for SPH calculations refer to:
   * S. Spicher and S. Grimme, J. Chem. Theory Comput., 2021, 17, 1701-1714
     DOI: 10.1021/acs.jctc.0c01306
   
   for ONIOM refer to:
   * C. Plett, A. Katbashev, S. Ehlert, S. Grimme, M. Bursch,
     Phys. Chem. Chem. Phys., 2023, 25, 17860-17868. DOI: 10.1039/D3CP02178E
   
   for DIPRO refer to:
   * J. Kohn, N. Gildemeister, S. Grimme, D. Fazzi, A. Hansen,
     J. Chem. Phys., 2023, just accepted.
   
   for PTB refer to:
   * S. Grimme, M. Mueller, A. Hansen, J. Chem. Phys., 2023, 158, 124111.
     DOI: 10.1063/5.0137838
   
   with help from (in alphabetical order)
   P. Atkinson, C. Bannwarth, F. Bohle, G. Brandenburg, E. Caldeweyher
   M. Checinski, S. Dohm, S. Ehlert, S. Ehrlich, I. Gerasimov, C. Hölzer
   A. Katbashev, J. Kohn, J. Koopman, C. Lavigne, S. Lehtola, F. März, M. Müller,
   F. Musil, H. Neugebauer, J. Pisarek, C. Plett, P. Pracht, F. Pultar,
   J. Seibert, P. Shushkov, S. Spicher, M. Stahn, M. Steiner, T. Strunk,
   J. Stückrath, T. Rose, and J. Unsleber
   
 * started run on 2025/02/24 at 15:32:44.167     
   ID    Z sym.   atoms
    1    6 C      1-9, 11, 12, 14-21, 24, 25, 34, 35, 38, 41-43, 59-67, 69,
                  70, 72-79, 82, 83, 92, 93, 96, 99-101
    2    7 N      10, 13, 68, 71
    3    8 O      22, 23, 32, 33, 36, 37, 39, 40, 80, 81, 90, 91, 94, 95, 97,
                  98
    4    1 H      26-31, 44-58, 84-89, 102-116

           -------------------------------------------------
          |                Calculation Setup                |
           -------------------------------------------------

          program call               : xtb opt_dimer.mol --dipro 0.3 --chrg 0 --uhf 2 --spinpol --tblite
          coordinate file            : opt_dimer.mol
          omp threads                :                     8


molecular fragmentation (1/2 indicates fragments):
111111111111111111111111111111111111111111111111111111111122222222222222
22222222222222222222222222222222222222222222
# atoms in fragment 1/2:    58    58
 fragment masses (1/2) :      501.47      501.47
CMA distance (Bohr)    :  11.200
constraining FC (au)   :  0.0500
Wavefunction read from restart file
           -------------------------------------------------
          |                    D I P R O                    |
           -------------------------------------------------
Calculation for dimer 
--------------------- 
  
charge of dimer :   0.
unpaired e- of dimer :  2
repulsion energy          2.7339968033979E+00 Eh
dispersion energy         8.3981126059323E-03 Eh
number of electrons       3.7400000000000E+02 e
integral cutoff           1.7347787504999E+01 bohr

------------------------------------------------------------
  cycle        total energy    energy error   density error
------------------------------------------------------------
      1     -212.3427092216  -2.1508510E+02   1.9912688E-01
      2     -213.7552393662  -1.4125301E+00   8.5528868E-02
      3     -213.7812229699  -2.5983604E-02   5.0945600E-02
      4     -213.8043214854  -2.3098515E-02   2.7637412E-02
      5     -213.9092794050  -1.0495792E-01   9.2270762E-03
      6     -213.9172590661  -7.9796611E-03   4.7229798E-03
      7     -213.9191690448  -1.9099787E-03   2.3643147E-03
      8     -213.9195245320  -3.5548720E-04   1.2364279E-03
      9     -213.9197153340  -1.9080197E-04   5.9077190E-04
     10     -213.9197687479  -5.3413940E-05   2.6300353E-04
     11     -213.9197735422  -4.7943349E-06   1.4879567E-04
     12     -213.9197766542  -3.1120008E-06   5.5643266E-05
     13     -213.9197769559  -3.0170372E-07   2.4527936E-05
     14     -213.9197769892  -3.3242600E-08   1.1839531E-05
------------------------------------------------------------

electronic energy        -2.1666217190519E+02 Eh
total energy             -2.1391977698919E+02 Eh

 total:                                   0.743 sec
 - repulsion                              0.000 sec (  0%)
 - dispersion                             0.003 sec (  0%)
 - coulomb                                0.001 sec (  0%)
 - hamiltonian                            0.005 sec (  0%)
 - scc                                    0.732 sec ( 98%)

Found 2 fragments!
Fragment 1:  1-58
Fragment 2:  59-116

[Info] Fragment spin read from .UHFfrag
Calculation for fragment 1
 ------------------------------
   
charge of fragment :   0.
unpaired e- of fragment :  1
------------------------------------------------------------
  cycle        total energy    energy error   density error
------------------------------------------------------------
      1     -106.1521684003  -1.0752014E+02   2.0026024E-01
      2     -106.8655669402  -7.1339854E-01   8.6042775E-02
      3     -106.8903942225  -2.4827282E-02   5.0522326E-02
      4     -106.9092682697  -1.8874047E-02   2.4988779E-02
      5     -106.9410056577  -3.1737388E-02   7.5261607E-03
      6     -106.9423547883  -1.3491305E-03   3.8254319E-03
      7     -106.9428388602  -4.8407195E-04   2.0789766E-03
      8     -106.9430257065  -1.8684631E-04   1.0207491E-03
      9     -106.9430958143  -7.0107741E-05   3.4180199E-04
     10     -106.9430990581  -3.2438707E-06   1.9485531E-04
     11     -106.9431006010  -1.5428662E-06   7.5696164E-05
     12     -106.9431007711  -1.7011823E-07   2.7563215E-05
     13     -106.9431007822  -1.1091416E-08   1.3941191E-05
------------------------------------------------------------

 total:                                   0.195 sec
Calculation for fragment 2
 ------------------------------
   
charge of fragment :   0.
unpaired e- of fragment :  1
------------------------------------------------------------
  cycle        total energy    energy error   density error
------------------------------------------------------------
      1     -106.1501122358  -1.0751625E+02   1.9808292E-01
      2     -106.8616155081  -7.1150327E-01   8.4593081E-02
      3     -106.8863622823  -2.4746774E-02   4.9719136E-02
      4     -106.9084217535  -2.2059471E-02   2.4773725E-02
      5     -106.9410671636  -3.2645410E-02   7.2020485E-03
      6     -106.9423368568  -1.2696932E-03   3.4396971E-03
      7     -106.9426030527  -2.6619592E-04   1.9646799E-03
      8     -106.9427653027  -1.6224995E-04   1.0735564E-03
      9     -106.9428498768  -8.4574120E-05   3.3671280E-04
     10     -106.9428521051  -2.2283063E-06   1.9668190E-04
     11     -106.9428539407  -1.8356111E-06   7.4474277E-05
     12     -106.9428541077  -1.6700614E-07   2.9087170E-05
     13     -106.9428541208  -1.3075450E-08   1.4280336E-05
------------------------------------------------------------

 total:                                   0.278 sec
   
   ::::::::::::::::::::::::::::::::::::::::::::::
   ::     D I P R O      C O U P L I N G S     ::
   ::::::::::::::::::::::::::::::::::::::::::::::
   
energy threshhold for near-degenerate orbitals near HOMO and LUMO considered for DIPRO:  0.300 eV
no. of orbitals within energy window of frag 1         2
no. of orbitals within energy window of frag 2         2
   
  Fragment 1 SOMO   Fragment 2 SOMO 
--------------------------------------
E_mon(orb) frag1 frag2             -10.203   -10.118 eV
J(AB):                0.007 eV
S(AB):            -0.00031809 Eh
|J(AB,eff)|:            0.003 eV
   
  Fragment 1 SOMO   Fragment 2 LUMO 
--------------------------------------
E_mon(orb) frag1 frag2             -10.203    -9.768 eV
J(AB):               -0.000 eV
S(AB):             0.00002105 Eh
|J(AB,eff)|:            0.000 eV
   
  Fragment 1 LUMO   Fragment 2 SOMO 
--------------------------------------
E_mon(orb) frag1 frag2              -9.880   -10.118 eV
J(AB):               -0.015 eV
S(AB):             0.00062309 Eh
|J(AB,eff)|:            0.009 eV
   
  Fragment 1 LUMO   Fragment 2 LUMO 
--------------------------------------
E_mon(orb) frag1 frag2              -9.880    -9.768 eV
J(AB):               -0.004 eV
S(AB):             0.00002906 Eh
|J(AB,eff)|:            0.004 eV
   
..............................................................................
:  total |J(AB,eff)| for hole transport (occ. MOs) :               0.003 eV  :
:  total |J(AB,eff)| for charge transport (unocc. MOs) :           0.004 eV  :
:  total |J(AB,eff)| for charge transfer (CT) :                    0.009 eV  :
..............................................................................
  
 Please remember, DIPRO is not available for restart!
   
normal termination of dipro
----------------------------------------------------------
 * finished run on 2025/02/24 at 15:32:45.399     
----------------------------------------------------------
 dipro:
 * wall-time:     0 d,  0 h,  0 min,  1.229 sec
 *  cpu-time:     0 d,  0 h,  0 min,  3.414 sec
 * ratio c/w:     2.779 speedup
Reorganization energy (electron): 0.13774232897008187 eV
Reorganization energy (hole): 0.13889493440377906 eV
Electron Transfer integral J: 0.004 eV
Hole Transfer integral J: 0.003 eV
