116
 energy: -213.865431860264 gnorm: 0.154219992528 xtb: 6.7.1 (edcfbbe)
C           -2.24250000000000        2.74450000000000       -0.99270000000000
C           -2.00710000000000        1.51590000000000       -0.38820000000000
C           -1.13240000000000        1.46940000000000        0.75160000000000
C           -0.29350000000000        2.59170000000000        1.00860000000000
C           -0.55430000000000        3.79320000000000        0.33190000000000
C           -1.53770000000000        3.88270000000000       -0.62370000000000
C           -0.98930000000000        0.32760000000000        1.60080000000000
C            0.19460000000000        0.23780000000000        2.33730000000000
C            1.05520000000000        1.36810000000000        2.42060000000000
N            0.77260000000000        2.54870000000000        1.83780000000000
C           -1.92930000000000       -0.73470000000000        1.78140000000000
C           -1.44780000000000       -1.96260000000000        2.31710000000000
N           -0.23920000000000       -2.08780000000000        2.91370000000000
C            0.52310000000000       -0.97890000000000        3.00180000000000
C            1.70850000000000       -1.02230000000000        3.74180000000000
C            2.54510000000000        0.07440000000000        3.82690000000000
C            2.22120000000000        1.25080000000000        3.17930000000000
C           -3.33920000000000       -0.57010000000000        1.57420000000000
C           -4.15020000000000       -1.69480000000000        1.63380000000000
C           -3.64310000000000       -2.93610000000000        1.99680000000000
C           -2.32090000000000       -3.06030000000000        2.35190000000000
O           -3.83020000000000        0.71930000000000        1.42410000000000
O           -2.59020000000000        0.37840000000000       -0.97980000000000
C           -1.79000000000000        5.17140000000000       -1.30350000000000
C           -4.55510000000000       -4.09340000000000        2.11560000000000
H            0.01600000000000        4.67140000000000        0.57830000000000
H           -2.94380000000000        2.79950000000000       -1.80460000000000
H            2.88040000000000        2.09530000000000        3.26450000000000
H            1.97640000000000       -1.92410000000000        4.26150000000000
H           -1.96350000000000       -4.00440000000000        2.72010000000000
H           -5.20430000000000       -1.62370000000000        1.44360000000000
O           -1.03910000000000        6.10920000000000       -1.11770000000000
O           -2.88130000000000        5.22270000000000       -2.12170000000000
C           -2.95880000000000        6.48070000000000       -2.70820000000000
C            3.78520000000000        0.00120000000000        4.62490000000000
O            3.96790000000000       -0.93730000000000        5.37590000000000
O            4.66070000000000        1.03700000000000        4.46320000000000
C            5.72370000000000        0.88490000000000        5.34110000000000
O           -5.71480000000000       -3.98700000000000        1.76560000000000
O           -4.01830000000000       -5.23230000000000        2.64390000000000
C           -5.00120000000000       -6.21230000000000        2.72240000000000
C           -5.20320000000000        0.81680000000000        1.14680000000000
C           -1.66410000000000       -0.62130000000000       -1.35270000000000
H           -4.56970000000000       -7.11790000000000        3.15400000000000
H           -5.37880000000000       -6.41380000000000        1.71680000000000
H           -5.81530000000000       -5.84440000000000        3.35200000000000
H            6.47860000000000        1.64480000000000        5.12790000000000
H            6.14290000000000       -0.11830000000000        5.22530000000000
H            5.33300000000000        1.01130000000000        6.35250000000000
H           -2.21380000000000       -1.45970000000000       -1.78200000000000
H           -1.10120000000000       -0.96420000000000       -0.48580000000000
H           -0.97930000000000       -0.21370000000000       -2.09730000000000
H           -5.44390000000000        1.87320000000000        1.02150000000000
H           -5.78090000000000        0.41560000000000        1.98050000000000
H           -5.42580000000000        0.28470000000000        0.22060000000000
H           -3.83080000000000        6.51750000000000       -3.36450000000000
H           -2.04590000000000        6.65690000000000       -3.28300000000000
H           -3.04450000000000        7.23310000000000       -1.92010000000000
C           -2.98840000000000        1.61680000000000        4.37320000000000
C           -2.56310000000000        0.64960000000000        5.27670000000000
C           -1.36810000000000        0.89840000000000        6.03960000000000
C           -0.49940000000000        1.94470000000000        5.61250000000000
C           -0.97420000000000        2.86250000000000        4.66330000000000
C           -2.21560000000000        2.73400000000000        4.08760000000000
C           -0.95400000000000        0.12010000000000        7.16770000000000
C            0.40370000000000        0.17900000000000        7.50500000000000
C            1.23320000000000        1.18750000000000        6.93750000000000
N            0.76970000000000        2.09480000000000        6.05650000000000
C           -1.77660000000000       -0.69570000000000        8.00970000000000
C           -1.13290000000000       -1.68830000000000        8.80270000000000
N            0.20380000000000       -1.73680000000000        8.99310000000000
C            0.93830000000000       -0.75140000000000        8.44110000000000
C            2.28560000000000       -0.63400000000000        8.79260000000000
C            3.08430000000000        0.37260000000000        8.28520000000000
C            2.56310000000000        1.26840000000000        7.36750000000000
C           -3.19400000000000       -0.51100000000000        8.15040000000000
C           -3.92280000000000       -1.48800000000000        8.81780000000000
C           -3.29900000000000       -2.55820000000000        9.44660000000000
C           -1.92740000000000       -2.63160000000000        9.46930000000000
O           -3.75880000000000        0.66990000000000        7.68470000000000
O           -3.30390000000000       -0.54570000000000        5.33160000000000
C           -2.68580000000000        3.76280000000000        3.13350000000000
C           -4.10770000000000       -3.57850000000000       10.14790000000000
H           -0.35090000000000        3.68900000000000        4.37230000000000
H           -3.90200000000000        1.45860000000000        3.83050000000000
H            3.19020000000000        2.04910000000000        6.97850000000000
H            2.70860000000000       -1.32380000000000        9.50070000000000
H           -1.45260000000000       -3.41900000000000       10.02590000000000
H           -4.99130000000000       -1.42050000000000        8.89620000000000
O           -1.94790000000000        4.68550000000000        2.84600000000000
O           -3.94760000000000        3.62020000000000        2.63170000000000
C           -4.21820000000000        4.66960000000000        1.76040000000000
C            4.47810000000000        0.48920000000000        8.77250000000000
O            4.88340000000000       -0.29740000000000        9.60700000000000
O            5.23760000000000        1.50140000000000        8.26050000000000
C            6.48710000000000        1.49280000000000        8.87190000000000
O           -5.32080000000000       -3.49420000000000       10.14720000000000
O           -3.41240000000000       -4.57790000000000       10.76640000000000
C           -4.30200000000000       -5.45190000000000       11.38070000000000
C           -5.16380000000000        0.68900000000000        7.65300000000000
C           -2.52110000000000       -1.71050000000000        5.21860000000000
H           -3.73910000000000       -6.25280000000000       11.86480000000000
H           -4.97110000000000       -5.86520000000000       10.62190000000000
H           -4.88480000000000       -4.89830000000000       12.12100000000000
H            7.09780000000000        2.29740000000000        8.45700000000000
H            6.96220000000000        0.52470000000000        8.69390000000000
H            6.35180000000000        1.63860000000000        9.94650000000000
H           -3.13610000000000       -2.50020000000000        4.78590000000000
H           -2.16460000000000       -2.03100000000000        6.19570000000000
H           -1.67790000000000       -1.49190000000000        4.56410000000000
H           -5.47950000000000        1.61510000000000        7.17100000000000
H           -5.55890000000000        0.66170000000000        8.66950000000000
H           -5.52430000000000       -0.15850000000000        7.06750000000000
H           -5.25160000000000        4.59640000000000        1.41550000000000
H           -3.53250000000000        4.60790000000000        0.91260000000000
H           -4.06170000000000        5.61430000000000        2.28760000000000
116
 energy: -213.894520494734 gnorm: 0.068724868359 xtb: 6.7.1 (edcfbbe)
C           -2.24324806595027        2.72841836527566       -0.99969047896069
C           -2.00521204753339        1.51329587019839       -0.38926457127930
C           -1.14156769161710        1.46283941759898        0.74032493980493
C           -0.30057842855866        2.58786004752386        1.00659884274077
C           -0.55546952589024        3.79915349963912        0.33845267812864
C           -1.54427822032827        3.87882286320106       -0.61364937134315
C           -0.99809542896063        0.33202493451601        1.59901760315922
C            0.18847014488345        0.24266869727705        2.33476541300784
C            1.05067181439190        1.37435196160798        2.41433065054799
N            0.75280057645369        2.54067439023292        1.83470286422225
C           -1.94179837746381       -0.72355135290252        1.78426903412584
C           -1.44649555410606       -1.95533253204030        2.31115588724073
N           -0.23440947160794       -2.07629736665701        2.88172384601737
C            0.51991691982231       -0.97582334872725        2.99765997238300
C            1.70778973512296       -1.02654705352478        3.74308212165403
C            2.54214851333658        0.07915669601584        3.81993398559443
C            2.22385829872195        1.26466120597712        3.17433004576040
C           -3.34022459025418       -0.57316251746224        1.56998135062091
C           -4.14955875543264       -1.69086239538101        1.63556442081599
C           -3.62840823196846       -2.93750931080685        1.99631210782452
C           -2.30605150169823       -3.06899579699191        2.34891988597254
O           -3.82161464546790        0.69767387918701        1.41257632982859
O           -2.58715289677898        0.38622666618566       -0.95995346457391
C           -1.77252441098016        5.17548248849172       -1.28731940236807
C           -4.56364180108110       -4.07727402478779        2.10104230632666
H            0.02996605886282        4.67168105060424        0.57826162906128
H           -2.94707647182296        2.78237087033731       -1.81374825037423
H            2.87910206619874        2.11371912030592        3.26091409441651
H            1.97623992195865       -1.93391495602994        4.25979208509314
H           -1.94110073897394       -4.00964232391717        2.72336264821031
H           -5.20710280682079       -1.62893127288909        1.44355539965863
O           -1.03596178019801        6.11773113967822       -1.11975074573804
O           -2.85167707700276        5.22390416866847       -2.10108746874459
C           -2.96180688101518        6.48636880978278       -2.71240397131344
C            3.77188437613015       -0.01571504317217        4.63177444880399
O            3.96928517166058       -0.93904219578655        5.38770381554350
O            4.63923857091213        1.00267849108721        4.46120810857915
C            5.73647523846785        0.88298756931409        5.33172012982935
O           -5.72110764160678       -3.98610299103804        1.76188575214992
O           -4.03703959787607       -5.20427819209338        2.62745006016488
C           -5.00619071164629       -6.21931845807422        2.72255550479079
C           -5.19862676152510        0.81417208626992        1.14380983265669
C           -1.66200747345903       -0.61155211858102       -1.34871172887260
H           -4.54868356585955       -7.10758321485623        3.15534838644739
H           -5.39720033655689       -6.44092948242487        1.72588644610182
H           -5.83109397555688       -5.87381056037549        3.35183412863528
H            6.46966299414376        1.65245653785670        5.09674847278021
H            6.17670368822702       -0.11289596485843        5.23413559305783
H            5.37503756017006        1.00967215938717        6.35147380743438
H           -2.23088128443759       -1.43737434249943       -1.77456339805181
H           -1.08742767751936       -0.98084677496273       -0.49761984786546
H           -0.97614942303204       -0.21717697676996       -2.10426262936563
H           -5.41504412888989        1.87518917754700        1.02487111224874
H           -5.79117311686938        0.42099989609447        1.97474442687503
H           -5.44483640951109        0.28956464145228        0.21754817737379
H           -3.83781759292956        6.49416444281669       -3.35907474432574
H           -2.05847008955895        6.68453341845457       -3.29598885539391
H           -3.05183657217942        7.25598980532444       -1.94093660622411
C           -2.99108145903169        1.60201228521755        4.37363339991083
C           -2.56342662019010        0.65013325257833        5.27820980677580
C           -1.37784192899463        0.88494902275063        6.03200767280218
C           -0.50353309701157        1.93599516322416        5.60931522170335
C           -0.97024532764610        2.86624137599294        4.66277128161379
C           -2.21630614705390        2.73180358327348        4.09525753693035
C           -0.96130284640623        0.12225038471113        7.16670160036486
C            0.39821399294513        0.18062144550100        7.50311547930918
C            1.23023159823952        1.18408304813121        6.92547569096713
N            0.75337864444556        2.08494600338895        6.05959184189155
C           -1.78606917441702       -0.68337731546188        8.01231170276546
C           -1.13124341588500       -1.67888051276307        8.80400514431384
N            0.19679033154731       -1.72488265215553        8.98060418618033
C            0.93347615471027       -0.74650126621181        8.44446329851014
C            2.28636355177293       -0.63887348298536        8.79556082301399
C            3.07924881228430        0.37680379143276        8.28216411117049
C            2.56544828531035        1.27667723851255        7.35664281232902
C           -3.19449730539193       -0.51254032794995        8.15363019424909
C           -3.92016903342214       -1.48188825021570        8.82078028906189
C           -3.28393303242870       -2.56030531410239        9.44509758921845
C           -1.91264516576393       -2.63895217209293        9.47196558188456
O           -3.75146822774945        0.64742395009731        7.68350313071380
O           -3.29719308995603       -0.52706628838371        5.33744280812473
C           -2.66342781603268        3.76759139879367        3.13908559279489
C           -4.11944448251002       -3.56472515628120       10.13652533787645
H           -0.33844014095536        3.68935567780447        4.37036043946128
H           -3.91125282874071        1.44727512240208        3.83701594957155
H            3.18647250932844        2.06715768314839        6.97005708103523
H            2.70850104599533       -1.33329392649963        9.50368908593457
H           -1.42946171147622       -3.42103802490653       10.03112559693779
H           -4.99243461516770       -1.42445317010267        8.89902411973226
O           -1.94715044693656        4.69355287601018        2.83779932878186
O           -3.91364230685397        3.62472514831968        2.64587895507407
C           -4.22287258497167        4.67181291313343        1.75773827895990
C            4.46515241228812        0.47204518940824        8.79419424723420
O            4.88753890760525       -0.30232837180120        9.61892377052886
O            5.21271014463448        1.48531244338654        8.30008850474381
C            6.49457099362878        1.49764453842016        8.88095117151201
O           -5.32717117903556       -3.49401386202071       10.14665114911010
O           -3.43463262130986       -4.55400610730859       10.75000383118675
C           -4.30520945520798       -5.45810866260067       11.38445974022336
C           -5.15940280347366        0.68733103053385        7.65266858105904
C           -2.52250258500290       -1.70425681447725        5.23714868023957
H           -3.71757974220599       -6.24337853681409       11.85767138590781
H           -4.98409813046674       -5.88789482389489       10.64284185888860
H           -4.89796256447897       -4.92561533071737       12.13319788484190
H            7.07714730049539        2.30744042476476        8.44400912099421
H            6.98652947119322        0.53749067488162        8.70246123376045
H            6.39074520818100        1.64196751528423        9.95903560950283
H           -3.14823744048189       -2.47892233213727        4.79443206821905
H           -2.16900470758978       -2.04798314475463        6.20976876002575
H           -1.66558006470727       -1.52090489117771        4.59265201298106
H           -5.44953713445933        1.61961838240967        7.16890440429356
H           -5.57055141916770        0.66737046307140        8.66565929117948
H           -5.54219035255650       -0.15279819549180        7.06794593229963
H           -5.25733739938526        4.57370322997014        1.43112920556375
H           -3.54958413541682        4.62787003907891        0.89772295810612
H           -4.07656471360511        5.63035983737700        2.26382481673899
116
 energy: -213.906190020224 gnorm: 0.017380967437 xtb: 6.7.1 (edcfbbe)
C           -2.24141045258763        2.72227868196494       -1.00741673857488
C           -2.00253081015258        1.51436199046747       -0.39149943103139
C           -1.15009921717096        1.46020910216243        0.73436629987201
C           -0.30733989551088        2.58738473938786        1.00933100112873
C           -0.55606215143402        3.80464730415756        0.34306826189555
C           -1.54628145093126        3.87908943494791       -0.60761209414287
C           -1.00438587022495        0.33617666927718        1.59974755093993
C            0.18419111071376        0.24708007638474        2.33493627528010
C            1.04809444468512        1.37955991760025        2.41340201927402
N            0.73658186785490        2.53411902115812        1.83433958933747
C           -1.95312778336566       -0.71463503301522        1.78641601121272
C           -1.44669447952051       -1.95068237594414        2.30315349522200
N           -0.23201515184295       -2.06734783391568        2.85122885563064
C            0.51897753085880       -0.97506662171558        2.99003575823600
C            1.70744002975468       -1.02911392757976        3.74117251813563
C            2.53731717414715        0.08341929460338        3.81781204564539
C            2.22650515701575        1.27486685440864        3.17523798876602
C           -3.34489205655476       -0.57551490859989        1.56785554281669
C           -4.14849542033324       -1.69390012856024        1.63427072319975
C           -3.61585708481332       -2.94282800009315        1.99367516920693
C           -2.29440631513182       -3.07903427456630        2.34281255150114
O           -3.81918117117586        0.67791054322789        1.39938769810144
O           -2.58027332567320        0.39256109807355       -0.94332432251126
C           -1.75008275220335        5.18601833103288       -1.27422609229602
C           -4.57927056320472       -4.06298192703249        2.08871598835030
H            0.04066665570687        4.67023436287310        0.58051420590119
H           -2.94060117143283        2.77384838442643       -1.82730293539546
H            2.87678722811246        2.12830281404267        3.26094781220400
H            1.97437870594198       -1.93886620365423        4.25615741012557
H           -1.91609904069801       -4.01446851012318        2.71840292353097
H           -5.20767897907178       -1.64597277047229        1.44251246007561
O           -1.02127049085256        6.13196905794701       -1.11743950899263
O           -2.82198721754624        5.23384346857967       -2.08246880572239
C           -2.96781802515518        6.49531254861637       -2.71904512753622
C            3.75993993087100       -0.03595805219355        4.64500283033834
O            3.96196834012753       -0.94927207334816        5.40815048516874
O            4.62288571243734        0.96673926266645        4.46812754565442
C            5.75681891698085        0.88149904590360        5.32067491196206
O           -5.73464277236168       -3.97876726422545        1.74927536817363
O           -4.06311253580814       -5.18309048920921        2.61009355226644
C           -5.01358325620767       -6.23161150552593        2.72229989746671
C           -5.19744473271661        0.81853262012386        1.13824463340419
C           -1.66271436779282       -0.60584063047147       -1.34960266212476
H           -4.51488715465816       -7.09461804115279        3.15737646018972
H           -5.41197557836306       -6.47286663067794        1.73319359801879
H           -5.84365931105026       -5.90626887489192        3.35569358463176
H            6.45739391225266        1.66582018652506        5.04293543971537
H            6.21625193434136       -0.10587494239919        5.22903279709873
H            5.42646174215496        1.01488889479917        6.35012496591413
H           -2.25373478977582       -1.41676749685945       -1.77338011912474
H           -1.07476157453649       -0.99716038226694       -0.51472465997926
H           -0.97952144392919       -0.21665783663157       -2.11262618462918
H           -5.38116829045535        1.88581028800651        1.02690502955952
H           -5.80010726384114        0.43352342197195        1.96790606655843
H           -5.46667390568888        0.30091098889067        0.21288959276199
H           -3.85177639797836        6.45713543641775       -3.35146238931844
H           -2.07572047186770        6.70873559711530       -3.31445522797031
H           -3.06639329199016        7.27809909657019       -1.96201962856222
C           -2.99137871676161        1.59540103972867        4.37069572846296
C           -2.55866531637525        0.64733653817472        5.27254512204689
C           -1.38290583928283        0.87360689622648        6.02534559246242
C           -0.50380156190173        1.92903597567677        5.60718459106786
C           -0.96449665451651        2.86699587202993        4.66027440703205
C           -2.21376742896744        2.73216781247826        4.09889170225926
C           -0.96455768396802        0.12348436174389        7.16711983710580
C            0.39645768202624        0.18141096363360        7.50266645994751
C            1.23132586886283        1.18082768647365        6.91866141826775
N            0.74347507660660        2.07349146145026        6.06081167450493
C           -1.79432349844296       -0.67230536571540        8.01701077696395
C           -1.13208321337626       -1.67210978375695        8.80684459555184
N            0.18812723626079       -1.71402484989639        8.97279686631756
C            0.93023930567470       -0.74375142564764        8.44739135855719
C            2.28630102586564       -0.64126243656039        8.79873547000570
C            3.07457407764026        0.38098563657106        8.28347571263590
C            2.57064021249301        1.28209359407357        7.35180804987855
C           -3.19771516382334       -0.51239681796923        8.15955062237085
C           -3.91777564277154       -1.48170709234864        8.82544668730019
C           -3.27194845778479       -2.56457310323880        9.44700903277996
C           -1.90266331709980       -2.64633017473716        9.47737638540102
O           -3.74871903141601        0.62762547282768        7.68292833560725
O           -3.28536848785509       -0.51565017283005        5.33556106939407
C           -2.63905279705918        3.77965538677594        3.14358262350830
C           -4.13770171405315       -3.55278438039973       10.12850674306958
H           -0.32515963526472        3.68549694842142        4.36962711030508
H           -3.91588346006412        1.44357285068306        3.83922250942992
H            3.18420355262328        2.07949414456396        6.96447202970048
H            2.70678798215562       -1.33920694648284        9.50514659054413
H           -1.40670250271685       -3.42229945799725       10.03441932943062
H           -4.99116173405195       -1.43704439415889        8.90777549599915
O           -1.93382253583962        4.70624800819679        2.82948352838384
O           -3.87993908747434        3.63522520088905        2.65534848543629
C           -4.23183966462846        4.67493667251856        1.75297133581501
C            4.45423704566214        0.45371787675016        8.82252413853146
O            4.88838022479217       -0.31732317914105        9.63906899653217
O            5.19293415933073        1.46882490858665        8.34326627098365
C            6.50381062335143        1.50562448556810        8.89206288571602
O           -5.34342731220431       -3.48810228430319       10.14095132518467
O           -3.46413651989103       -4.53600655085339       10.73763221802709
C           -4.31045698622102       -5.46925553840520       11.39087495250481
C           -5.15756405300357        0.69318434856137        7.64973643690565
C           -2.52702615702759       -1.70838231410243        5.25984694553497
H           -3.68331531007955       -6.23157140473171       11.84768760188936
H           -4.99354875993223       -5.91613930025828       10.66321540787105
H           -4.90676527851810       -4.95507410839952       12.14962945187979
H            7.04531570546179        2.32492635097766        8.42349797075727
H            7.00965112006532        0.55425102262875        8.70627845135084
H            6.43363954976021        1.65278766805125        9.97277532029520
H           -3.16847177748464       -2.46290054600354        4.80479614602694
H           -2.19530092719699       -2.06750206563379        6.23666323676418
H           -1.64808220619197       -1.55853670547305        4.63395581861231
H           -5.41393121494600        1.63323192123012        7.16298235606097
H           -5.58043658619455        0.68163261092447        8.65947315335622
H           -5.56240734865648       -0.13974422085953        7.06699359204308
H           -5.26945667132895        4.53672920105629        1.45546294818658
H           -3.57346928062281        4.64174144184636        0.88074545766455
H           -4.09889329198536        5.64411846138450        2.24257065321692
116
 energy: -213.909979038154 gnorm: 0.015722823473 xtb: 6.7.1 (edcfbbe)
C           -2.23160646751706        2.72960970389422       -1.01322407729917
C           -1.99860974725025        1.52137122934661       -0.39319456024717
C           -1.15273394746911        1.46480355551561        0.73708193080795
C           -0.30842543487451        2.59124909838015        1.01593067418292
C           -0.55196728185049        3.80944748940814        0.34784251413062
C           -1.53687023724193        3.88597657930196       -0.60759214292560
C           -1.00734418190288        0.33909626884545        1.60112712297567
C            0.18132311315703        0.24875373631485        2.33693284570793
C            1.04614393489194        1.38088438039527        2.42026497885702
N            0.73205471010557        2.53427141010255        1.84187307240849
C           -1.95735277229980       -0.71279063001163        1.78340535762172
C           -1.44809487024188       -1.95174827958565        2.29206072019978
N           -0.23110433703485       -2.06885075617482        2.83052574511877
C            0.51794752718414       -0.97751984044004        2.98292045109468
C            1.70418381676223       -1.03224240232796        3.73858640424726
C            2.53065753816872        0.08229493248055        3.82562288904306
C            2.22449494404324        1.27563371482580        3.18457074495859
C           -3.34927085452106       -0.57681308231202        1.56216139877570
C           -4.14911237487846       -1.69851656642354        1.62952788749861
C           -3.61415776209218       -2.94799015175367        1.98671399783452
C           -2.29181942327058       -3.08528833839728        2.33089049224978
O           -3.82086616710641        0.67273739856366        1.38627387215938
O           -2.57797747848450        0.39959427008734       -0.93889166059615
C           -1.73228640398638        5.19879114503188       -1.26968659515474
C           -4.58997127740712       -4.06147731291985        2.07235872183540
H            0.04921452960187        4.67071663451406        0.58761228758814
H           -2.92336957723099        2.77825269608708       -1.83970495512149
H            2.87091844507348        2.13228069437542        3.27085384221110
H            1.97042263507017       -1.94373978413518        4.25012591191684
H           -1.90127022879944       -4.01800471398147        2.70125763262041
H           -5.20834527336011       -1.65841043839258        1.43749598105421
O           -1.00328515539313        6.14524800317669       -1.11434376535993