116
 energy: -213.862182839142 gnorm: 0.154915304234 xtb: 6.7.1 (43a0e4e5b5d943adc66b4aa6563d39c792f6153b)
C           -2.48450000000000        2.62370000000000       -1.91660000000000
C           -2.18400000000000        1.39930000000000       -1.33470000000000
C           -1.33900000000000        1.38590000000000       -0.17210000000000
C           -0.57530000000000        2.55060000000000        0.12710000000000
C           -0.92110000000000        3.75550000000000       -0.50520000000000
C           -1.88800000000000        3.80060000000000       -1.48320000000000
C           -1.15450000000000        0.24320000000000        0.66770000000000
C            0.02880000000000        0.19660000000000        1.40890000000000
C            0.84230000000000        1.36070000000000        1.50370000000000
N            0.49490000000000        2.54110000000000        0.95380000000000
C           -2.05560000000000       -0.85310000000000        0.83410000000000
C           -1.53760000000000       -2.06030000000000        1.38260000000000
N           -0.32380000000000       -2.14390000000000        1.97570000000000
C            0.40790000000000       -1.01410000000000        2.05520000000000
C            1.61200000000000       -1.02800000000000        2.76450000000000
C            2.41500000000000        0.09420000000000        2.84420000000000
C            2.02920000000000        1.27310000000000        2.23470000000000
C           -3.46650000000000       -0.73860000000000        0.60170000000000
C           -4.23630000000000       -1.89280000000000        0.65380000000000
C           -3.69170000000000       -3.11240000000000        1.03680000000000
C           -2.37360000000000       -3.18600000000000        1.41990000000000
O           -4.00200000000000        0.53180000000000        0.43350000000000
O           -2.67900000000000        0.24010000000000       -1.96160000000000
C           -2.25990000000000        5.09130000000000       -2.10600000000000
C           -4.56060000000000       -4.30460000000000        1.13130000000000
H           -0.43510000000000        4.66530000000000       -0.19820000000000
H           -3.15950000000000        2.65140000000000       -2.75200000000000
H            2.65920000000000        2.13930000000000        2.32190000000000
H            1.92790000000000       -1.93030000000000        3.25570000000000
H           -1.98810000000000       -4.11450000000000        1.79950000000000
H           -5.28820000000000       -1.86220000000000        0.44200000000000
O           -2.05630000000000        6.12930000000000       -1.50640000000000
O           -2.83240000000000        5.02730000000000       -3.34400000000000
C           -3.08290000000000        6.31360000000000       -3.80850000000000
C            3.69530000000000        0.02920000000000        3.57730000000000
O            3.96710000000000       -0.96060000000000        4.22890000000000
O            4.50910000000000        1.12030000000000        3.46870000000000
C            5.64500000000000        0.92680000000000        4.24170000000000
O           -5.72420000000000       -4.23220000000000        0.78570000000000
O           -3.98170000000000       -5.43670000000000        1.62820000000000
C           -4.92710000000000       -6.45470000000000        1.68000000000000
C           -5.37040000000000        0.57320000000000        0.12060000000000
C           -1.68710000000000       -0.70830000000000       -2.29690000000000
H           -4.46110000000000       -7.35490000000000        2.08650000000000
H           -5.29780000000000       -6.64260000000000        0.66930000000000
H           -5.75360000000000       -6.13470000000000        2.31970000000000
H            6.31730000000000        1.77780000000000        4.11320000000000
H            6.13330000000000       -0.00040000000000        3.93090000000000
H            5.32840000000000        0.84630000000000        5.28300000000000
H           -2.16490000000000       -1.53870000000000       -2.81770000000000
H           -1.19550000000000       -1.08090000000000       -1.39970000000000
H           -0.95180000000000       -0.24080000000000       -2.95270000000000
H           -5.64870000000000        1.61610000000000       -0.03740000000000
H           -5.95240000000000        0.16940000000000        0.95020000000000
H           -5.55070000000000        0.01200000000000       -0.79760000000000
H           -3.52310000000000        6.25360000000000       -4.80610000000000
H           -2.13910000000000        6.86370000000000       -3.84520000000000
H           -3.77020000000000        6.81120000000000       -3.12030000000000
C           -2.72980000000000        2.13380000000000        3.53260000000000
C           -2.40290000000000        1.06860000000000        4.36460000000000
C           -1.19370000000000        1.14240000000000        5.14150000000000
C           -0.24330000000000        2.15330000000000        4.81600000000000
C           -0.62860000000000        3.18310000000000        3.94580000000000
C           -1.86170000000000        3.20020000000000        3.34210000000000
C           -0.83680000000000        0.21710000000000        6.17490000000000
C            0.52320000000000        0.13240000000000        6.49920000000000
C            1.42350000000000        1.13570000000000        6.04390000000000
N            1.02960000000000        2.16590000000000        5.27240000000000
C           -1.71370000000000       -0.62260000000000        6.93430000000000
C           -1.14450000000000       -1.74820000000000        7.59600000000000
N            0.18600000000000       -1.92480000000000        7.75340000000000
C            0.99170000000000       -0.93960000000000        7.31120000000000
C            2.34760000000000       -0.96800000000000        7.65000000000000
C            3.21720000000000        0.02950000000000        7.25220000000000
C            2.75670000000000        1.06810000000000        6.46260000000000
C           -3.10750000000000       -0.33740000000000        7.12910000000000
C           -3.90710000000000       -1.32000000000000        7.70010000000000
C           -3.36750000000000       -2.50400000000000        8.18760000000000
C           -2.00690000000000       -2.69330000000000        8.16900000000000
O           -3.57330000000000        0.93220000000000        6.81080000000000
O           -3.26270000000000       -0.04530000000000        4.33330000000000
C           -2.20990000000000        4.32660000000000        2.44850000000000
C           -4.24900000000000       -3.52720000000000        8.78990000000000
H            0.06460000000000        3.97600000000000        3.72930000000000
H           -3.64740000000000        2.09560000000000        2.97500000000000
H            3.43530000000000        1.84380000000000        6.16020000000000
H            2.72320000000000       -1.77010000000000        8.25960000000000
H           -1.59310000000000       -3.57550000000000        8.62230000000000
H           -4.96440000000000       -1.17280000000000        7.81220000000000
O           -1.38700000000000        5.19900000000000        2.24600000000000
O           -3.45560000000000        4.32020000000000        1.89050000000000
C           -3.61600000000000        5.45880000000000        1.10830000000000
C            4.62700000000000       -0.02400000000000        7.70280000000000
O            4.97800000000000       -0.91230000000000        8.45570000000000
O            5.46460000000000        0.95320000000000        7.24670000000000
C            6.72960000000000        0.76530000000000        7.79380000000000
O           -5.45020000000000       -3.34370000000000        8.83010000000000
O           -3.63080000000000       -4.64450000000000        9.27450000000000
C           -4.58040000000000       -5.50420000000000        9.81490000000000
C           -4.97110000000000        1.07630000000000        6.82270000000000
C           -2.61490000000000       -1.27300000000000        4.09800000000000
H           -4.07970000000000       -6.39930000000000       10.19010000000000
H           -5.29870000000000       -5.77110000000000        9.03590000000000
H           -5.09690000000000       -4.99080000000000       10.62960000000000
H            7.40050000000000        1.54660000000000        7.43080000000000
H            7.09930000000000       -0.21990000000000        7.49850000000000
H            6.65090000000000        0.81260000000000        8.88280000000000
H           -3.28670000000000       -1.90800000000000        3.52090000000000
H           -2.37510000000000       -1.76650000000000        5.03810000000000
H           -1.70670000000000       -1.08380000000000        3.52770000000000
H           -5.21190000000000        2.07640000000000        6.46010000000000
H           -5.34790000000000        0.96420000000000        7.84020000000000
H           -5.41660000000000        0.33760000000000        6.15420000000000
H           -4.58450000000000        5.41830000000000        0.60580000000000
H           -2.80890000000000        5.49430000000000        0.37210000000000
H           -3.55760000000000        6.33990000000000        1.75180000000000
116
 energy: -213.891399129374 gnorm: 0.069309699449 xtb: 6.7.1 (43a0e4e5b5d943adc66b4aa6563d39c792f6153b)
C           -2.47999474206711        2.60659093895659       -1.92901044516433
C           -2.18288395320776        1.39670456894611       -1.33562133461428
C           -1.34759681062399        1.37891036863976       -0.18434757512791
C           -0.58280450273456        2.54608809610129        0.12429565110711
C           -0.92239297673031        3.76037512756895       -0.50229242949086
C           -1.88756090924040        3.79352659781257       -1.48327733186993
C           -1.16241741450744        0.24678049686529        0.66425577527962
C            0.02289179751185        0.20096947406908        1.40565891777748
C            0.83702557628569        1.36737325130605        1.49730340362912
N            0.47390355042976        2.53277510189614        0.95103466460562
C           -2.06676295345527       -0.84369082628483        0.83572790542966
C           -1.53402420513199       -2.05536315125242        1.37554517820374
N           -0.31700019978986       -2.13569044892305        1.94134433408311
C            0.40465336991561       -1.01239747138850        2.05091608410219
C            1.61193926041779       -1.03216725714311        2.76568137203472
C            2.41087729545037        0.10009148898360        2.83826000698767
C            2.03043303604128        1.28803491930934        2.23025531987836
C           -3.46654143597952       -0.74225300010469        0.59951346108571
C           -4.23512261699710       -1.88926533549767        0.65636293774721
C           -3.67595369026254       -3.11421080084164        1.03620964222653
C           -2.35706285229565       -3.19565552573938        1.41702798403603
O           -3.99166346439121        0.50958909503206        0.42571259242345
O           -2.67689301899651        0.24828256144679       -1.94270188716980
C           -2.24664327497860        5.09343474037794       -2.09278354929176
C           -4.56947133918106       -4.28890825809463        1.11860208098269
H           -0.41559896581342        4.66522723341839       -0.20488840904814
H           -3.16024140267166        2.63390818174034       -2.76385818023724
H            2.65660655873595        2.15849633186996        2.31942686969526
H            1.92833433142154       -1.93934339617716        3.25483302024098
H           -1.96563818529343       -4.11995584910110        1.80441492102149
H           -5.29018721000801       -1.86788072543312        0.44253769955748
O           -2.04461420033608        6.13898789266938       -1.51975332782309
O           -2.81520265877061        5.02875196479809       -3.31563328534330
C           -3.08529616910236        6.31687124486641       -3.81423771496366
C            3.68257619059489        0.01330188954336        3.58500847189418
O            3.97137491317300       -0.96191189709354        4.24022463849770
O            4.48840917865863        1.08701303142715        3.46358705500359
C            5.65622305884598        0.92764166934121        4.23042748761373
O           -5.73015848629454       -4.23154059707848        0.78267203164984
O           -4.00064776380125       -5.40935706336889        1.61266417540881
C           -4.93115243519851       -6.46204445366454        1.68031597584247
C           -5.36483211715518        0.57088143112673        0.11974373664648
C           -1.68566225255118       -0.69937245868906       -2.29210772425936
H           -4.43998235311704       -7.34402170959395        2.08836399987656
H           -5.31476415334667       -6.67072466617106        0.67798906668894
H           -5.76755008658636       -6.16486500988153        2.31904046563270
H            6.30493767318933        1.78917677544781        4.08328915523338
H            6.16561339467377        0.00615202604128        3.93650627709862
H            5.37113480996656        0.84849383361947        5.27897365904194
H           -2.18406714787644       -1.51745659660896       -2.81093639136792
H           -1.18070579167078       -1.09744038122598       -1.41039075943167
H           -0.94717474395736       -0.24544718829068       -2.95917378793775
H           -5.61846037657757        1.61997655615053       -0.03176519369741
H           -5.96291912456468        0.17470516038364        0.94509478199290
H           -5.56895160006201        0.01715647644901       -0.79997251505532
H           -3.52341735212894        6.22860108715953       -4.80703479600096
H           -2.15380278728241        6.88774153469946       -3.86172823055418
H           -3.77398438300734        6.83278181112048       -3.13962574134033
C           -2.73328617282212        2.11887137518122        3.52933442692620
C           -2.40433721785520        1.07029174466870        4.36673291280608
C           -1.20514133637486        1.13042388761817        5.13287909818388
C           -0.24821578987175        2.14492081811911        4.81160593285138
C           -0.62457187042346        3.18643498637640        3.94582763476038
C           -1.86188841332098        3.19625825899732        3.34732793103696
C           -0.84446295852602        0.21906751237778        6.17415525960544
C            0.51732736591903        0.13405012534217        6.49724437090161
C            1.41986426572142        1.13389308856102        6.03213076990240
N            1.01232586571884        2.15665636967210        5.27445713681315
C           -1.72215964701003       -0.60955010575445        6.93953404498304
C           -1.14220642000063       -1.73876484623493        7.59900586373601
N            0.17956445852106       -1.91074337557475        7.74332591321692
C            0.98705258560269       -0.93507226590777        7.31495491142047
C            2.34785519507650       -0.97360690134231        7.65191303339535
C            3.21269477210239        0.03354932035720        7.24930934634192
C            2.75941374943781        1.07740682497392        6.45321881635253
C           -3.10835434724273       -0.33884359227347        7.13289723760747
C           -3.90448475884386       -1.31421625391358        7.70404199535951
C           -3.35312979209074       -2.50673159698547        8.18576083565053
C           -1.99316780727635       -2.70178664398988        8.17058127249181
O           -3.56827921743561        0.90961881737494        6.80791699190584
O           -3.25542140112061       -0.02673982398936        4.34108372564138
C           -2.18800470064577        4.32947739391552        2.45497277138107
C           -4.26003390681303       -3.51089258385710        8.78081047378382
H            0.07638662724100        3.97550164712998        3.72770885198522
H           -3.65578053350407        2.08145931847566        2.97406838618163
H            3.43217248972531        1.86390962435975        6.15598785071371
H            2.72195797088167       -1.77981166472160        8.26172035410763
H           -1.57064593016722       -3.57991656414884        8.62671724362870
H           -4.96649844759643       -1.17670169028282        7.81486998973026
O           -1.38976405105530        5.21320151612867        2.25025991707835
O           -3.42229582369037        4.31775473701060        1.90688446721287
C           -3.62407975824211        5.46305516363719        1.11204636194213
C            4.61297125936075       -0.04292564353391        7.72401520018329
O            4.98120290130526       -0.92043687618378        8.46714977335092
O            5.44021950743165        0.93359678790686        7.28614129541595
C            6.73809157061568        0.76745115812736        7.80357127089910
O           -5.45699019293551       -3.34247702732694        8.83012270895888
O           -3.65156252444152       -4.61670308115152        9.26205626641807
C           -4.58450721766102       -5.51000187234608        9.81837350452360
C           -4.96716206544937        1.07452950990298        6.82218506867561
C           -2.61761972284637       -1.26545223641966        4.11521336227030
H           -4.05805440481381       -6.39051613289575       10.18373693719795
H           -5.31358572483723       -5.79430885517592        9.05475975184705
H           -5.11265222209097       -5.01743305264204       10.63930194036570
H            7.38016756203775        1.55912257777376        7.41982815674861
H            7.12551003204670       -0.21139119293610        7.50828129854464
H            6.69048993306388        0.81065876973858        8.89432669300019
H           -3.29634313826154       -1.88855760775251        3.53253744745605
H           -2.37925007354175       -1.77998085170856        5.04688608206443
H           -1.70056163855105       -1.10506441604131        3.55319892256798
H           -5.18190597650005        2.07859380107288        6.45739060327439
H           -5.35956730694060        0.97157828807581        7.83754410555579
H           -5.43404195411128        0.34491151603905        6.15589893777532
H           -4.59475255537920        5.39510069203931        0.62324923165698
H           -2.82818509811745        5.53064233563425        0.36858673926914
H           -3.57614788096883        6.35650989696688        1.73897838187656
116
 energy: -213.903235094649 gnorm: 0.017438917365 xtb: 6.7.1 (43a0e4e5b5d943adc66b4aa6563d39c792f6153b)
C           -2.47482309743946        2.59842165098332       -1.94156143617486
C           -2.17892142608438        1.39624582149640       -1.33972811245767
C           -1.35475541457885        1.37496783932629       -0.19279647760731
C           -0.58837192903785        2.54396308350747        0.12351438875791
C           -0.92201625698324        3.76408730440037       -0.50311922836762
C           -1.88594239529767        3.79091440789559       -1.48493491040472
C           -1.16770108850086        0.24994420351954        0.66312323275386
C            0.01920551278243        0.20480027763039        1.40451331903813
C            0.83344235502153        1.37328852042709        1.49646626556169
N            0.45668222487953        2.52594326349559        0.95012164624041
C           -2.07629178188476       -0.83678378271968        0.83631984899829
C           -1.53108181400735       -2.05337545209820        1.36497442860639
N           -0.31116040449391       -2.12976052042553        1.90637010251075
C            0.40468460268568       -1.01282328628685        2.04148527305302
C            1.61194162433275       -1.03407120771359        2.76377731746079
C            2.40501100148337        0.10560791098720        2.83694356509000
C            2.03162635557083        1.29959634145684        2.23175507798121
C           -3.46952586736901       -0.74587124072912        0.59864453972197
C           -4.23266948561835       -1.89300038917080        0.65647132858466
C           -3.66176750838600       -3.12011807182431        1.03423928514825
C           -2.34302816528167       -3.20705930251320        1.41020193082899
O           -3.98645788132260        0.48887104351996        0.41690640067110
O           -2.67131712952316        0.25337715154086       -1.92633950908788
C           -2.22889779572375        5.10195926137109       -2.08243263676098
C           -4.58455418110898       -4.27586092883174        1.10755870496503
H           -0.39988080150232        4.66201269381583       -0.20993940474302
H           -3.15137243754038        2.62402731106294       -2.78091059436670
H            2.65297412151249        2.17406397905812        2.32050579935906
H            1.92706876584386       -1.94318340202496        3.25195985761832
H           -1.93982593922296       -4.12545664057535        1.80043513516441
H           -5.28905999092542       -1.88539815577911        0.44371370750706
O           -2.01913292798693        6.15431217403705       -1.52867251574508
O           -2.79930817181943        5.03771228447836       -3.29115479558190
C           -3.08994646889003        6.32186039633029       -3.82569471234832
C            3.67321017395511       -0.00733921978618        3.59511393027205
O            3.96651951979022       -0.97187347878692        4.25992608280519
O            4.47421884958568        1.05140620845054        3.46570761940826
C            5.67479621770061        0.93047406230026        4.21729877344006
O           -5.74323447416367       -4.22424209728239        0.77229982457237
O           -4.02638257429822       -5.38945728869394        1.59627263536143
C           -4.93725876284775       -6.47501685058513        1.68050191405699
C           -5.36185432591703        0.57573439265065        0.11725849376259
C           -1.68703143928106       -0.69591878152212       -2.29282052994761
H           -4.40619408213088       -7.33042506094016        2.09143794145735
H           -5.32774664741401       -6.70371228154273        0.68519332756133
H           -5.77796999375205       -6.19803070702412        2.32269054274922
H            6.28716857144730        1.81012280266358        4.03273143417763
H            6.20224945051478        0.01806639623673        3.92762662827396
H            5.42255071888487        0.85800015950604        5.27514023487547
H           -2.20924074390711       -1.49929829549473       -2.81076322232875
H           -1.16712243975319       -1.11479450108996       -1.42674012253058
H           -0.94945340614975       -0.24794945647069       -2.96760542871773
H           -5.58219294961318        1.63301611562921       -0.02601195653573
H           -5.97154758599991        0.18762530768014        0.93992950808792
H           -5.58915485384229        0.02927538884856       -0.80303662420160
H           -3.52599020849896        6.18792432105603       -4.81250682008746
H           -2.16862797162814        6.90790572472974       -3.88685727690970
H           -3.78288258540086        6.84869023874197       -3.16383646897613
C           -2.73303219219007        2.11115928138407        3.52178057591295
C           -2.40157605836205        1.06884595014747        4.36147792798537
C           -1.21257685411969        1.12032266841933        5.12568171174259
C           -0.24950003888336        2.13752428025778        4.80830715058036
C           -0.61867476152064        3.18591360642928        3.94269811909834
C           -1.85816601931043        3.19418797036089        3.34774389685794
C           -0.84863356107597        0.22017522116349        6.17515560719205
C            0.51491043747922        0.13417803514571        6.49634536083820
C            1.42036957017407        1.13065807608854        6.02504411448155
N            1.00112622608175        2.14487098555583        5.27416738690688
C           -1.72996996545189       -0.59805214758460        6.94676629623074
C           -1.14297855442699       -1.73191934705969        7.60355449298057
N            0.17107880717334       -1.89819804093683        7.73785591464603
C            0.98359542672177       -0.93297407590149        7.31783411438528
C            2.34717899492687       -0.97679836654263        7.65453356882179
C            3.20820935953095        0.03716985441734        7.25133516936814
C            2.76452928106448        1.08295731114854        6.44986053655652
C           -3.11219060704508       -0.33864518910155        7.13981804963893
C           -3.90293271132885       -1.31426822561088        7.70947070798655
C           -3.34226438444313       -2.51157129301612        8.18757509935558
C           -1.98452349321572       -2.71011822528504        8.17546141189422
O           -3.56785274966638        0.89010817033997        6.80637919792758
O           -3.24572051924476       -0.01438033937003        4.34216609553233
C           -2.16552823203224        4.34343073626805        2.46571714044846
C           -4.27791203156961       -3.49604092947789        8.77541904259377
H            0.08824747491467        3.97091047127530        3.72751458373090
H           -3.65712295812049        2.07338415620964        2.96701487614740
H            3.42981921789116        1.87800817822000        6.15449915137996
H            2.71901714157688       -1.78581986168164        8.26292558234107
H           -1.54898646645141       -3.58333943463725        8.62953200963779
H           -4.96717051252750       -1.18989186362997        7.82272145266916
O           -1.38176110231775        5.23580957525763        2.26150876693547
O           -3.38851286949660        4.32351594300338        1.91984781212226
C           -3.63837657267926        5.47192590493411        1.11724622575935
C            4.60088300415449       -0.06473751195900        7.75105425334050
O            4.98004412497579       -0.93931869060697        8.48640417355601
O            5.42050215312008        0.91230331021923        7.32862193272399
C            6.74817855155868        0.77182585095143        7.81574720331982
O           -5.47340984483765       -3.33407379987675        8.82629140394397
O           -3.68026144444597       -4.59429191298917        9.25357601796300
C           -4.59135510729587       -5.52057898707544        9.82427388514090
C           -4.96544084715518        1.08081636414280        6.82018326225176
C           -2.62376903033056       -1.26625390666094        4.13577979909883
H           -4.02400425458118       -6.37988695047642       10.17474885665112
H           -5.32570549223138       -5.82295820806558        9.07256311002482
H           -5.12463524439117       -5.04685348131973       10.65304649569350
H            7.34877366884497        1.58011747931116        7.40295090073808
H            7.15064221001957       -0.19884709700916        7.51422398090402
H            6.73427924811884        0.81520392613097        8.90774196328117
H           -3.31160275970498       -1.87218075151929        3.54525107426043
H           -2.40325324513009       -1.79309701906192        5.06720513649307
H           -1.69121773997620       -1.13555607760183        3.58947069030410
H           -5.14575281136633        2.08977330815707        6.45172419672239
H           -5.36934662366655        0.98783278254105        7.83351121717376
H           -5.45321358923052        0.35981318648333        6.15728031521186
H           -4.61355390748310        5.35738137732180        0.64883681578057
H           -2.85314369214183        5.57139115139182        0.36653042817351
H           -3.61211070974324        6.37003898245976        1.73865647396131
116
 energy: -213.907253835417 gnorm: 0.016012740945 xtb: 6.7.1 (43a0e4e5b5d943adc66b4aa6563d39c792f6153b)
C           -2.46515077743184        2.60287027770511       -1.95018748942701
C           -2.17488403483975        1.40041121397398       -1.34346663574603
C           -1.35664876715178        1.37722165940752       -0.19289386178271
C           -0.58870964906154        2.54568292411617        0.12626704256038
C           -0.91721459838217        3.76643835774397       -0.50353988404047
C           -1.87744274414221        3.79533132928112       -1.48826600897729
C           -1.16913701452572        0.25095668311654        0.66217762077045
C            0.01780273526635        0.20531484413440        1.40422634641027
C            0.83133342356130        1.37455846864659        1.50214847940997
N            0.45153003555892        2.52533943055984        0.95567330567174
C           -2.07811605323226       -0.83723834032676        0.83173682351030
C           -1.52894611524961       -2.05705444593104        1.35067299615240
N           -0.30587476382334       -2.13331749165022        1.88066773547466
C            0.40620000135437       -1.01642003861266        2.03112674656631
C            1.61071422349981       -1.03715306322349        2.75903708079149
C            2.39941554922971        0.10499019580852        2.84309821424766
C            2.02937223476696        1.30112201851612        2.24025893570796
C           -3.47151723489108       -0.74878869714626        0.59418902670923
C           -4.23116343522557       -1.89875172292375        0.65342413924262
C           -3.65770650805401       -3.12658993713305        1.02790677279060
C           -2.33719678338355       -3.21555359657700        1.39617000810320
O           -3.98460076029512        0.48291800125649        0.40825477774315
O           -2.67028050444203        0.25687909984014       -1.92201970558495
C           -2.20938277410202        5.11192207427864       -2.08390005319727
C           -4.59400692859597       -4.27515527440920        1.09405190437053
H           -0.38822630692560        4.65979013643458       -0.21065574345540
H           -3.13321022542483        2.62564929624531       -2.79657026200775
H            2.64593265207105        2.17916135099325        2.33068148216248
H            1.92513750061162       -1.94723321533402        3.24512156294094
H           -1.92223798902747       -4.13090947154075        1.78187543340637
H           -5.28772295496182       -1.89839413837446        0.44261389706445