116
 energy: -22.928061455056 gnorm: 0.329736929581 xtb: 6.6.1 (8d0f1dd)
C           -3.31122850772930        0.79849766164622       -0.92477639677520
C           -2.44380812530352       -0.12270372891954       -0.27661132624697
C           -1.41337090092821        0.39579727573559        0.56335275196199
C           -0.89266158675590        1.65801491088749        0.27377586709581
C           -1.72665675402493        2.51431363229076       -0.49448366572522
C           -2.95444148494349        2.13954154133227       -1.01494489940871
C           -0.74098268209890       -0.43411532818871        1.49825021926784
C            0.56872586496315        0.03782116815119        1.86248088067890
C            1.03782416582094        1.29402317993033        1.50887470833621
N            0.31238977034758        2.07067427098208        0.65193736800696
C           -1.29695700510141       -1.39996043042223        2.41574187746061
C           -0.38243517664656       -2.18060797534842        3.13232615520648
N            0.91308504082021       -1.90366887689689        3.30325166013478
C            1.37712470144904       -0.74872102533751        2.81811050966982
C            2.52149331701875       -0.17739833758153        3.39379298866852
C            2.95849061756259        1.02681208890480        2.95105897606587
C            2.24288949469137        1.78498308775960        2.03503020483770
C           -2.74860936222260       -1.74497937691422        2.38401158947411
C           -3.09416315450955       -2.91614440870436        3.00571134491758
C           -2.16786021984049       -3.77788778654213        3.63251872101904
C           -0.85708937311598       -3.40495313382985        3.68547234358092
O           -3.71994433332149       -0.94984598373544        1.67726658385724
O           -2.55702603277562       -1.47241711578389       -0.57241635275616
C           -3.84297843593025        3.13357444054366       -1.60938954875544
C           -2.68769581069131       -5.03867041417370        4.30484659386931
H           -1.39666850744143        3.51251503834900       -0.76806311868865
H           -4.27662633836220        0.55105838579656       -1.33106614114542
H            2.66329581305412        2.73912661909249        1.72562431984580
H            3.05775395548473       -0.69369546277216        4.16536137542516
H           -0.24710966264510       -4.12034095424229        4.22946223699121
H           -4.11477991332403       -3.04712728052358        3.03244694615357
O           -4.21824883374556        4.03433712717988       -0.87713382485991
O           -4.44510595673734        2.90643496899600       -2.81853501752979
C           -5.44216520282800        3.83300025693726       -3.02488532025093
C            4.23586651889298        1.50004220933226        3.59165660008449
O            5.05927614697201        0.66079890002952        3.91714215179376
O            4.47001334453535        2.86385149488593        3.72605651435371
C            5.79457498613219        3.08584475587818        4.15829123132174
O           -3.82227255313510       -5.27347675879771        4.16636005494405
O           -1.85023202017753       -5.79767454267276        5.06656077253571
C           -2.55119635829503       -6.86252441382958        5.62930343183426
C           -5.07197156564436       -1.42399175670916        1.58830531863830
C           -1.33089900128490       -2.23622472573986       -0.99264499351172
H           -2.54510546830388       -7.76426885143998        4.99136022291012
H           -3.57194749219491       -6.44405511486021        5.74196173723541
H           -2.09133598235598       -7.02043774843818        6.64022264233588
H            5.72707967266424        3.46798026205549        5.10135971236643
H            6.34060091246885        3.78468702308830        3.50069950143490
H            6.17933064298187        2.03010500085905        4.19342358084693
H           -0.91862729772622       -2.57650129080332       -0.01361370304871
H           -0.49769766914251       -1.60651221708571       -1.34094446550576
H           -1.52632419730509       -2.94569707152159       -1.75361447637286
H           -5.11788846557077       -2.41810833635233        1.17520213188926
H           -5.67929807973498       -0.69619639428435        1.04301666067831
H           -5.57598832326623       -1.42383358739762        2.57928294206544
H           -6.13050215934830        3.76035386975488       -2.23272855695873
H           -5.86615610071888        3.45938329385866       -4.02668959924245
H           -5.13479557532099        4.87790991548477       -2.98314551356402
C           -1.38192942069774        3.73616555005018        2.91232598411686
C           -1.84821468128685        2.59982427735607        3.49755545445181
C           -1.05946531454833        2.05730632010638        4.60922730982276
C            0.19893954712228        2.69376791964407        4.86302140881997
C            0.50425395911860        3.94630308659851        4.28768785650746
C           -0.26031777722226        4.46998310053134        3.25072669343212
C           -1.20488993561782        0.74454293276906        5.14851520323437
C           -0.06287609782692        0.02744069315890        5.60930570802864
C            1.19208754369866        0.71421540266195        5.78882868583885
N            1.19428660993148        2.06344359410476        5.62744624321596
C           -2.41361422770794        0.07928500213936        5.25249410304426
C           -2.45851584031083       -1.32662100968547        5.60237876023992
N           -1.29466212405906       -1.98318595734370        5.89916817085159
C           -0.14475655767527       -1.32117560077092        5.98824682881008
C            0.97209270935794       -1.98958449505532        6.53157704134458
C            2.21982707914082       -1.36973967291181        6.68703967237737
C            2.30561929262884       -0.09745313075593        6.26436900324455
C           -3.73018485967715        0.71367583494582        5.25810242262992
C           -4.89964478833448       -0.06184623426677        5.21204641615509
C           -4.82617965800088       -1.39228978090841        5.46901303780036
C           -3.67144193418464       -1.98914944386360        5.67265433266067
O           -3.75568638935321        2.07705011038914        5.52067969627343
O           -2.94192434743730        1.91263938797883        3.01658762327703
C            0.21273512614467        5.50086066357994        2.34765104514621
C           -6.06660304520411       -2.17604633098929        5.80641622556876
H            1.41756699010566        4.38133362238595        4.66974005703471
H           -1.82880610647429        4.11982501512100        2.06992133318584
H            3.26888037378556        0.32655662585251        6.31721410015598
H            0.87146188387207       -3.08471526305024        6.57830423410869
H           -3.67716811065157       -3.05999292755990        5.83019634570050
H           -5.77379677507622        0.43595144608221        4.71017130754348
O            1.34459852619901        5.82615848916894        2.44941456579099
O           -0.74718748219123        6.07961784856304        1.59848183464284
C           -0.21473095568964        7.24015934882472        1.05753806029483
C            3.53228080814219       -2.00967610361154        7.02506769044485
O            3.64093082622715       -3.14437803815732        7.50071391725347
O            4.56565258381079       -1.22937033368332        6.69086985080897
C            5.72579357310716       -1.80692399125161        7.22246151275881
O           -7.04801223588612       -1.95726935745904        5.14194115322235
O           -6.01514389321278       -2.93743591896022        6.94765316328794
C           -7.21292732384718       -3.62681918543340        7.15115816329978
C           -4.95459780685163        2.65960679932188        5.86868674392943
C           -3.68284113682406        2.59129188358641        2.05479246020704
H           -7.43119628931628       -4.22607794725959        6.20622607140901
H           -8.06548455146707       -2.91765848248592        7.29781126410398
H           -7.07314693247270       -4.33087306029711        7.91223421050944
H            6.57332189837178       -1.29353136199234        6.78341268688262
H            5.74663761932316       -2.84282155125561        6.88089468184451
H            5.69426191474290       -1.72781984964892        8.29460302186842
H           -4.10481209541493        3.44288266176275        2.60483747673152
H           -4.49244774344916        1.87419893016926        1.82433103764650
H           -3.18901540870812        2.85154642679373        1.06781919454921
H           -5.55414326821421        2.76698137191684        4.93950725322359
H           -4.78658370641210        3.62090640967288        6.25983200635257
H           -5.43485580473958        1.97242995129449        6.65265772412460
H            0.89164886030839        7.38838561720231        1.13776105146914
H           -0.62894889903848        8.04195665205089        1.64837664327952
H           -0.59282546386754        7.45699159724320        0.03719083132488
116
 energy: -22.562949854624 gnorm: 0.534621207758 xtb: 6.6.1 (8d0f1dd)
C           -3.12044536331383       -0.31279399421554       -2.47679602012122
C           -2.44567381345966       -1.09963161773638       -1.48501595979456
C           -1.70242050111373       -0.40254963215593       -0.47971596814877
C           -1.51524029641238        1.04247231927137       -0.59521522162177
C           -2.32793917461879        1.75754078724226       -1.58183657631949
C           -3.05909207982701        1.11424112016606       -2.57847451314370
C           -1.08958403693377       -1.03798691281249        0.74394911635236
C            0.23033875057910       -0.52717891931071        0.92707016754344
C            0.48314669031739        0.91368206952473        0.74790421293114
N           -0.56334772064872        1.61738369010260        0.10128384300570
C           -1.40438486355668       -2.15868908211216        1.43522577074881
C           -0.53136232788482       -2.92553723885020        2.20972745483871
N            0.80515146800816       -2.41063016549875        2.25544406904469
C            1.15671761844647       -1.24875772295001        1.73848940151058
C            2.39287341598262       -0.84211337945370        2.00582328173242
C            2.67124502615499        0.44335855272985        1.66758231051986
C            1.82773447429184        1.33601208670722        1.11023928690225
C           -2.73345652933244       -2.43527853777702        1.64260459522417
C           -3.13778682453267       -3.69987529543090        2.16511028625980
C           -2.22977578124845       -4.47032490359412        2.78296229517589
C           -0.90179705211928       -4.06547157888423        2.93773199864319
O           -3.84511693096050       -1.46598678977824        1.67577830291196
O           -2.36550658467353       -2.57759264993163       -1.53244518619347
C           -3.92211584618940        1.88508727203464       -3.64492742495660
C           -2.80312395038353       -5.66004576992191        3.49959921615690
H           -2.29768287423120        2.81932528968287       -1.56957306432260
H           -3.78451483964455       -0.87854701861355       -3.17126940717562
H            2.18466172126320        2.24465353003838        0.78946924197667
H            3.29146209082469       -1.55175333724457        2.09376001056861
H           -0.10962561633126       -4.43605583589011        3.55241863317084
H           -4.14748573642656       -4.23512071220630        2.25319046228447
O           -3.14706980515378        2.31274309468480       -4.49210862034289
O           -5.21528327073616        2.12067577336496       -3.26603878786325
C           -5.87150973586109        3.03035863111746       -4.16937907032472
C            4.11012369570548        0.80315306261415        1.56218569453232
O            4.96386219164147        0.00091570951467        1.40213906925825
O            4.24106866561799        2.12136401732207        1.39014088372043
C            5.57160175893907        2.73157543985442        1.40156378897289
O           -3.93048023500656       -6.10918316851122        3.57705052539701
O           -1.81092026189165       -6.58712924579697        4.04065163065585
C           -2.39164147829369       -7.85368324804219        4.42696170715157
C           -3.84473586415718       -0.47859269020047        2.75929704213671
C           -1.31089023182127       -3.00965389054806       -2.25190489317179
H           -2.83153813869706       -7.76331540972266        5.41981761099757
H           -1.78223533565933       -8.73329446815211        4.59549099780042
H           -3.04741912353496       -8.03213132394786        3.55606687443383
H            6.39704983023732        2.66791517004228        0.55880020377269
H            6.28321114220525        2.41226404842248        2.25914580609090
H            5.31478593976078        3.68635982986518        1.85013180529470
H           -1.36107351137639       -4.11342787935977       -2.90838186934767
H           -0.42819075820757       -2.92479172829453       -1.55833829992671
H           -1.14552030272618       -2.39501193500177       -3.04361173444635
H           -5.00988186009464       -0.38993976757669        2.70376001676169
H           -3.29334894414549        0.37900247602376        2.40711716570509
H           -3.12862066768712       -0.76083731784255        3.49538642695583
H           -5.93808575317895        3.83436332028895       -3.45478929766930
H           -6.62359761719306        2.38474515569028       -4.50632642098228
H           -5.40810514309410        3.33925313248021       -5.06660556856367
C           -1.19598605078070        4.57535812756394        4.07586711131889
C           -1.62158846970148        3.28550745332327        4.41899393062614
C           -1.01537974690266        2.67071539993784        5.70724602371403
C            0.16691248805391        3.36083374013136        6.11056593799043
C            0.24547500832410        4.77191994435500        6.04633413712694
C           -0.36298709945867        5.33950879415922        4.87906790907176
C           -1.04562644499202        1.38556561471519        6.27494845496268
C            0.09021241137240        0.79873848730854        6.86868948880965
C            1.27995184086165        1.47471011780128        7.12588474755731
N            1.21479560187328        2.79215736878092        6.93035353283909
C           -2.28320923938573        0.70671022161594        6.32931831206820
C           -2.20580762588633       -0.68213104605111        6.62689949393338
N           -1.17258270333255       -1.32303689832503        7.12186372744288
C           -0.16436961988492       -0.54020716144703        7.33404074176131
C            1.01923789180020       -1.12881967870760        7.99181905254330
C            2.31474259749508       -0.67498202027824        7.77933532152350
C            2.44829301871386        0.68874811355162        7.52680843752779
C           -3.49886851858512        1.36576703121998        6.21212052892998
C           -4.57891000935253        0.56069788201553        5.92249159594019
C           -4.59449217074574       -0.76299878712135        6.18321493948856
C           -3.39863544025905       -1.45219968049484        6.49283015940894
O           -3.57889863922101        2.79333830849538        6.48351728366326
O           -2.42617210194169        2.35104687539223        3.77055849585737
C           -0.12257366137107        6.77341931524649        4.63948712080344
C           -5.86333510389199       -1.38552321035690        5.88722724753428
H            0.71410226728470        5.36207871588025        6.85319952231572
H           -1.38345444607376        5.00485670820378        3.08763038113489
H            3.27701556179420        1.43379853405861        7.89011580652170
H            1.06062155363876       -2.14555474215559        8.34646784060470
H           -3.35987351794237       -2.51754677734964        6.79486922286804
H           -5.52548269492814        1.14599030044149        5.86200356219775
O           -0.31831013114759        7.63608961518026        5.48964023257084
O            0.25459557375011        7.06363286287339        3.36991185085137
C           -0.14460894675515        8.29406271174842        2.84227992012224
C            3.54085591599403       -1.46273175464719        8.25470197237738
O            3.63884750138425       -2.63320709771299        8.12211648148420
O            4.40581806891418       -0.71965623232742        8.95616231310411
C            5.27710348235848       -1.63180486561535        9.62853375355184
O           -6.92006510602611       -0.84411333783297        5.67718981580475
O           -5.91920854239697       -2.82530888519671        5.99682848364287
C           -6.84855912076299       -3.34090289460086        5.23144070347195
C           -4.39651706604246        3.02504969748618        7.55722878896258
C           -3.72943647239874        2.81122409026079        3.45259519359763
H           -6.66566003964833       -2.85127063685495        4.33200629615166
H           -7.79831940849063       -3.21315558132687        5.92709897137888
H           -6.60487834965425       -4.39813051936521        5.16612701577005
H            5.56210402578499       -2.56857062577174        9.24723359943999
H            4.69146871892910       -1.77236998999906       10.53861235404676
H            6.00928648708474       -0.88230072308545        9.80791522961919
H           -3.87356390796056        2.87156439050308        2.35467323239410
H           -4.02319470073631        3.86560132438546        3.89470843980346
H           -4.52209413318729        2.08268023705640        3.74109926046832
H           -4.42607047531091        4.11322907721104        7.80052875706015
H           -3.87565955537800        2.54133142095959        8.36192364266182
H           -5.21972982508323        2.54962256128697        7.83572907675713
H            0.46311527933656        8.88956968039751        3.60464940985847
H           -1.13652096747677        8.50089053190118        3.32287732829854
H            0.44917424324811        8.65450899565939        1.84076400117114
116
 energy: -22.525859255039 gnorm: 0.527896392635 xtb: 6.6.1 (8d0f1dd)
C           -3.84707083765181       -0.69879310198669       -2.22230206130773
C           -3.03786366033311       -1.45442586705244       -1.21509536778348
C           -1.91654384668835       -0.72757142630505       -0.74972499128233
C           -1.52800415784001        0.40658220164172       -1.46442676939082
C           -2.26273435447945        0.94682310855476       -2.43380818208705
C           -3.42012599599598        0.41677518247815       -2.96678084402530
C           -1.09996982009483       -1.12093854272854        0.35021276161092
C            0.15761477419098       -0.80309161398625        0.36981529031150
C            0.58095708939710        0.28599991405180       -0.35450243369151
N           -0.19315833432059        0.57638826138642       -1.40578437691985
C           -1.37953459676422       -2.05065736550245        1.33817366927285
C           -0.41158553317822       -2.75972053234702        2.07790269046224
N            0.89836410537104       -2.60272146508346        1.94079786954847
C            1.11124947814921       -1.48440271311636        1.24005195921338
C            2.40349449419974       -1.03883460635549        1.22029507148882
C            2.85035865453666        0.15549405387920        0.65753150809281
C            1.80897034460652        0.88650414638214       -0.02505567086651
C           -2.68503214027684       -2.06490875493854        2.00449748702937
C           -3.21116277987444       -3.19860762752765        2.52083933887592
C           -2.29010994667887       -4.10439545090807        3.03854034478262
C           -0.89714386169717       -3.66355765587517        3.07286241714937
O           -3.34999215770797       -0.85318975443458        1.84591939512295
O           -3.51423782268815       -2.58851037496074       -0.65957113498413
C           -4.40537421352380        1.20932393241827       -3.71147345962410
C           -2.59449384450048       -5.54666944994976        3.31726450246620
H           -2.07448662755355        1.96411893326784       -2.59590797291100
H           -4.97126291953572       -0.81137063112112       -2.22181090860206
H            2.21448712318285        1.72816819575613       -0.49041656659599
H            3.04813363298925       -1.40748614135224        2.08151565204742
H           -0.05320181561849       -4.20901016768750        3.52556002474512
H           -4.30240546308838       -3.28932739160211        2.50774617350628
O           -4.46199079371514        2.40742541521754       -3.79141794331712
O           -5.36278628596731        0.42553861933187       -4.26748263000504
C           -6.31159551145504        1.13611253031913       -4.97366506223911
C            4.07256278248765        0.79431195102548        0.59504443369627
O            4.11411572522853        1.89129401124515        1.18011014570342
O            5.10126176982300        0.11502912372774       -0.12459270406297
C            6.12164866384868        0.93399476762102       -0.53894158506339
O           -3.56702160524848       -5.79596062851674        4.02113873031746
O           -1.53912249289714       -6.36306043614351        2.84408336006459
C           -1.71007876079340       -7.76728821617242        2.99947485649631
C           -2.70017527275295        0.32725695433052        2.15684086653016
C           -4.49231088995944       -3.18369779746107       -1.53435768263447
H           -1.96894938415892       -8.20796715680108        2.04780585550258
H           -2.41604125862721       -8.07544298241470        3.70184285230342
H           -0.85242578448588       -8.32534872042297        3.45992457837748
H            5.83506686442562        2.00405212175105       -0.72580035738980
H            7.18125300011723        0.66377419085648       -0.76714338050383
H            6.46378583971743        1.10009873323970        0.48410954154586
H           -5.29971130823843       -3.34899946244408       -0.89495843249605
H           -4.10705776962914       -4.35889488032107       -1.70219800728566
H           -4.82784144322755       -2.53343685697667       -2.42525012530942
H           -2.91474487557466        0.91083477516096        1.29426366924124
H           -1.57497934771365        0.30655789099685        2.05218245936739
H           -3.16623609169519        0.63783051180142        3.16054902173790
H           -7.14019353682814        0.36418148850661       -5.18052627370293
H           -5.89275607120807        1.46298960445871       -6.06411249688027
H           -6.76554578059029        1.88009881514910       -4.28373039957158
C           -1.31340269460072        5.24447404694535        5.14480160247716
C           -1.55744560783941        3.86310594888801        5.14531681479071
C           -0.81363693310609        3.16873179884378        6.17847020755138
C            0.17483224630630        3.72961683112321        6.96290406935643
C            0.26964383788948        5.16369510459728        6.98925178030011
C           -0.31302420830576        5.94289694678989        6.02218463121574
C           -0.81714300942331        1.76185940740733        6.13629356804681
C            0.18940590350204        1.02366777660971        6.96280232485364
C            0.84937374437739        1.77040391111971        7.91609300275781
N            0.80179310045620        3.06076357114917        8.02026299384500
C           -1.97917767615391        0.95794364076018        5.97013726268196
C           -1.70103169492454       -0.45631847670802        5.80431680105600
N           -0.55455526647974       -1.19400095662228        6.09248976682262
C            0.08295532380415       -0.39763413301213        7.07066753227818
C            0.67694772708436       -0.93609955323548        8.25539131636406
C            1.52888065817378       -0.21760716258029        9.09377358578239
C            1.72814494436937        1.12999010400216        8.83034506892219
C           -3.33584843852676        1.21690192319790        6.46607403611923
C           -4.43355813487162        0.40271258231769        6.14594202474527
C           -4.15577188408383       -0.76373577218738        5.34767793183329
C           -2.82282039750463       -1.22808595767295        5.22709556342516
O           -3.39571657490369        2.27334384070295        7.29978307957782
O           -2.23169082458083        3.07460812148011        4.19980628259702
C            0.27985821180079        7.30137026834687        5.97957943143151
C           -5.26114673026875       -1.59354294721098        4.84319184200715
H            0.27720938268929        5.71115097399258        7.94471720898959
H           -1.37430616586264        5.74412660277079        4.19546114024459
H            2.77369977207763        1.46185288537963        9.15327120143066
H            0.32325519061323       -1.94459415148829        8.40498259389884
H           -2.75038437624523       -2.29130806146579        5.02231535885228
H           -5.42744598845392        0.65469588595811        6.29616807128964
O            1.20519754336482        7.61455996526618        6.64987352471218
O           -0.30438231507047        8.22365063377850        5.27217571586526
C           -0.06136818992287        9.54899875137653        5.71469885281726
C            2.56948306683714       -0.98629342616141        9.80049187585990
O            2.35567732975657       -2.03202894287977       10.40499461885955
O            3.77512535547879       -0.23387984128396        9.62155938094753
C            4.83275508104134       -1.10401588170763       10.24849009526381
O           -6.31599112114138       -1.40117310351311        4.27973182760681
O           -5.05944357853197       -2.87450712080529        5.17081224203589
C           -6.04143006025846       -3.75308375960782        4.62278952621784
C           -4.36878031662664        2.46894661776431        8.37659810008441
C           -1.86650994591010        3.34146713923709        2.88387106450772
H           -6.73550053639807       -3.06587661926238        3.98561999776842
H           -6.58635361163410       -3.88839203259631        5.50900946341029
H           -5.61980633014024       -4.51330694345455        4.07186079055461
H            5.44739048961860       -0.60791388327337       11.12269817691518
H            5.47583668022572       -1.62242099584855        9.51841308261882
H            4.39046359859052       -1.87859975868383       10.66456075273069
H           -1.21060221547797        4.24122410733566        2.89695208813861
H           -2.79081965483417        3.45678984853890        2.19818755183255
H           -1.26183845804141        2.40016644045316        2.50851546097953
H           -4.74538695040421        1.53656581151020        8.52190504615125
H           -5.06369242960930        3.05960884587828        7.72591419151318
H           -3.84455909755426        3.05289900629046        9.12882652938828
H           -0.22304998465366        9.44747133689337        6.74244989030568
H           -0.79219370203587       10.24040024492373        5.24174985510047
H            0.74191287272231       10.18273889281324        5.05238439690399
116
 energy: -22.524966372663 gnorm: 0.524628535087 xtb: 6.6.1 (8d0f1dd)
C           -4.12076417309815       -0.59574501816519       -2.83421987678353
C           -3.43936760821161       -1.22365117070498       -1.79042663772664
C           -2.03398111995794       -0.77039841509069       -1.34019797364736
C           -1.56660069061486        0.24621259784985       -2.14240349779224
C           -2.18836903114654        0.67439792800618       -3.36876767121717
C           -3.54585878788125        0.44939995931565       -3.58662159422588
C           -1.15628061259702       -1.15801903098251       -0.36674008861411
C            0.21703457099869       -0.94124514630494       -0.44664254512361
C            0.62594145754567        0.08966972928123       -1.34369018586953
N           -0.32400391080337        0.77163540361830       -1.99082579503571
C           -1.66599361396780       -2.08127551760201        0.56473347845228
C           -0.61370580527133       -2.34674535158877        1.52416386139223
N            0.63778892213945       -1.86652457959176        1.60092113318678
C            1.21858708541109       -1.55988538444528        0.41439241243435
C            2.47245363886161       -1.09228192967481        0.27877558783874
C            2.90950928786914       -0.05039373537583       -0.62793400253868
C            1.87801614766678        0.61386782632794       -1.44946413418305
C           -2.99331435853832       -2.39112007601731        0.90454892929422
C           -3.29298895620861       -3.36213527851568        1.96523764910156
C           -2.19937464134969       -3.70746759784014        2.76732546436904
C           -1.00776918562763       -3.20468492994143        2.56177283536646
O           -4.09239706995297       -1.70804788231974        0.48939414235866
O           -3.82059751666337       -2.59282741087058       -1.45440342975532
C           -4.50941462067229        1.39776212207681       -4.13761863847437
C           -2.36220934330885       -4.63691757333468        3.87871973384905
H           -1.61642180469885        1.33540396468932       -3.94796689898737
H           -4.92003187802485       -1.06849452248052       -3.30929944269362
H            2.21077920438467        0.99984637258414       -2.29365723500028
H            3.03021836248758       -1.45088152818162        1.11197932159387
H           -0.25060664137026       -3.44200608400637        3.32035098103369
H           -4.22638643547896       -3.21559662554607        2.62631252745815
O           -4.29926409772841        2.55252649716811       -4.42393296789445