Optimization of monomers started
      -----------------------------------------------------------      
     |                   =====================                   |     
     |                           x T B                           |     
     |                   =====================                   |     
     |                         S. Grimme                         |     
     |          Mulliken Center for Theoretical Chemistry        |     
     |                    University of Bonn                     |     
      -----------------------------------------------------------      

   * xtb version 6.7.1 (edcfbbe) compiled by 'runner@Mac-1732539442253.local' on 2024-11-25

   xtb is free software: you can redistribute it and/or modify it under
   the terms of the GNU Lesser General Public License as published by
   the Free Software Foundation, either version 3 of the License, or
   (at your option) any later version.
   
   xtb is distributed in the hope that it will be useful,
   but WITHOUT ANY WARRANTY; without even the implied warranty of
   MERCHANTABILITY or FITNESS FOR A PARTICULAR PURPOSE.  See the
   GNU Lesser General Public License for more details.
   
   Cite this work as:
   * C. Bannwarth, E. Caldeweyher, S. Ehlert, A. Hansen, P. Pracht,
     J. Seibert, S. Spicher, S. Grimme, WIREs Comput. Mol. Sci., 2020, 11,
     e01493. DOI: 10.1002/wcms.1493
   
   for GFN2-xTB:
   * C. Bannwarth, S. Ehlert and S. Grimme., J. Chem. Theory Comput., 2019,
     15, 1652-1671. DOI: 10.1021/acs.jctc.8b01176
   for GFN1-xTB:
   * S. Grimme, C. Bannwarth, P. Shushkov, J. Chem. Theory Comput., 2017,
     13, 1989-2009. DOI: 10.1021/acs.jctc.7b00118
   for GFN0-xTB:
   * P. Pracht, E. Caldeweyher, S. Ehlert, S. Grimme, ChemRxiv, 2019, preprint.
     DOI: 10.26434/chemrxiv.8326202.v1
   for GFN-FF:
   * S. Spicher and S. Grimme, Angew. Chem. Int. Ed., 2020, 59, 15665-15673.
     DOI: 10.1002/anie.202004239
   
   for ALPB and GBSA implicit solvation:
   * S. Ehlert, M. Stahn, S. Spicher, S. Grimme, J. Chem. Theory Comput.,
     2021, 17, 4250-4261. DOI: 10.1021/acs.jctc.1c00471
   
   for ddCOSMO and CPCM-X implicit solvation:
   * M. Stahn, S. Ehlert, S. Grimme, J. Phys. Chem. A,
     2023, XX, XXXX-XXXX. DOI: 10.1021/acs.jpca.3c04382
   
   for DFT-D4:
   * E. Caldeweyher, C. Bannwarth and S. Grimme, J. Chem. Phys., 2017,
     147, 034112. DOI: 10.1063/1.4993215
   * E. Caldeweyher, S. Ehlert, A. Hansen, H. Neugebauer, S. Spicher,
     C. Bannwarth and S. Grimme, J. Chem. Phys., 2019, 150, 154122.
     DOI: 10.1063/1.5090222
   * E. Caldeweyher, J.-M. Mewes, S. Ehlert and S. Grimme, Phys. Chem. Chem. Phys.
     2020, 22, 8499-8512. DOI: 10.1039/D0CP00502A
   
   for sTDA-xTB:
   * S. Grimme and C. Bannwarth, J. Chem. Phys., 2016, 145, 054103.
     DOI: 10.1063/1.4959605
   
   in the mass-spec context:
   * V. Asgeirsson, C. Bauer and S. Grimme, Chem. Sci., 2017, 8, 4879.
     DOI: 10.1039/c7sc00601b
   * J. Koopman and S. Grimme, ACS Omega 2019, 4, 12, 15120-15133.
     DOI: 10.1021/acsomega.9b02011
   
   for metadynamics refer to:
   * S. Grimme, J. Chem. Theory Comput., 2019, 155, 2847-2862
     DOI: 10.1021/acs.jctc.9b00143
   
   for SPH calculations refer to:
   * S. Spicher and S. Grimme, J. Chem. Theory Comput., 2021, 17, 1701-1714
     DOI: 10.1021/acs.jctc.0c01306
   
   for ONIOM refer to:
   * C. Plett, A. Katbashev, S. Ehlert, S. Grimme, M. Bursch,
     Phys. Chem. Chem. Phys., 2023, 25, 17860-17868. DOI: 10.1039/D3CP02178E
   
   for DIPRO refer to:
   * J. Kohn, N. Gildemeister, S. Grimme, D. Fazzi, A. Hansen,
     J. Chem. Phys., 2023, just accepted.
   
   for PTB refer to:
   * S. Grimme, M. Mueller, A. Hansen, J. Chem. Phys., 2023, 158, 124111.
     DOI: 10.1063/5.0137838
   
   with help from (in alphabetical order)
   P. Atkinson, C. Bannwarth, F. Bohle, G. Brandenburg, E. Caldeweyher
   M. Checinski, S. Dohm, S. Ehlert, S. Ehrlich, I. Gerasimov, C. Hölzer
   A. Katbashev, J. Kohn, J. Koopman, C. Lavigne, S. Lehtola, F. März, M. Müller,
   F. Musil, H. Neugebauer, J. Pisarek, C. Plett, P. Pracht, F. Pultar,
   J. Seibert, P. Shushkov, S. Spicher, M. Stahn, M. Steiner, T. Strunk,
   J. Stückrath, T. Rose, and J. Unsleber
   
 * started run on 2025/03/21 at 10:37:58.468     
   ID    Z sym.   atoms
    1    6 C      1-9, 11, 12, 14-21, 27-35, 37, 38, 40-47, 56, 58, 62, 65,
                  68, 71
    2    7 N      10, 13, 36, 39
    3    8 O      22, 23, 48, 49, 54, 55, 57, 59-61, 63, 64, 66, 67, 69, 70
    4   16 S      24-26, 50-52
    5    5 B      53
    6    1 H      72-101

           -------------------------------------------------
          |                Calculation Setup                |
           -------------------------------------------------

          program call               : xtb Base1SO2Me.mol --opt --chrg 0 --uhf 1 --tight --spinpol --tblite
          coordinate file            : Base1SO2Me.mol
          omp threads                :                     8


molecular fragmentation (1/2 indicates fragments):
111111111111111111111111112222222222222222222222222211111112222222221112
22222111222111111222222112211
# atoms in fragment 1/2:    49    52
 fragment masses (1/2) :      540.35      533.57
CMA distance (Bohr)    :  15.103
constraining FC (au)   :  0.0500
########################################################################
[WARNING] Please study the warnings concerning your input carefully
-1- prog_main_parseArguments: Unknown option '--tight' provided
########################################################################
repulsion energy          1.6369179641628E+00 Eh
dispersion energy         1.1753499983671E-03 Eh
interaction energy        0.0000000000000E+00 Eh
number of electrons       3.6100000000000E+02 e
integral cutoff           1.9311100799991E+01 bohr

------------------------------------------------------------
  cycle        total energy    energy error   density error
------------------------------------------------------------
      1     -202.8783762168  -2.0451647E+02   1.7550666E-01
      2     -201.0944093635   1.7839669E+00   1.4284280E-01
      3     -195.7618321942   5.3325772E+00   1.3330147E-01
      4     -166.1771036976   2.9584728E+01   1.8286072E-01
      5     -191.8922533770  -2.5715150E+01   1.2276261E-01
      6     -203.6376926574  -1.1745439E+01   7.3195131E-02
      7     -204.4865010256  -8.4880837E-01   4.6229707E-02
      8     -204.4293143346   5.7186691E-02   4.1258715E-02
      9     -204.5755231933  -1.4620886E-01   3.8424280E-02
     10     -204.6051849396  -2.9661746E-02   3.4389078E-02
     11     -204.7328586890  -1.2767375E-01   3.2569587E-02
     12     -204.6118584643   1.2100022E-01   2.8163024E-02
     13     -204.7634198426  -1.5156138E-01   2.2971145E-02
     14     -204.6748169382   8.8602904E-02   2.6439704E-02
     15     -204.7778438847  -1.0302695E-01   2.1056907E-02
     16     -204.7937517110  -1.5907826E-02   2.0284798E-02
     17     -204.8235642336  -2.9812523E-02   1.6004988E-02
     18     -204.8602979392  -3.6733706E-02   1.4247134E-02
     19     -204.8846588773  -2.4360938E-02   9.4231312E-03
     20     -204.8909415670  -6.2826897E-03   8.0450678E-03
     21     -204.8926242193  -1.6826523E-03   7.4528657E-03
     22     -204.8785371447   1.4087075E-02   7.8749819E-03
     23     -204.8982208904  -1.9683746E-02   5.0816545E-03
     24     -204.8987782138  -5.5732343E-04   4.0264275E-03
     25     -204.9015403340  -2.7621202E-03   3.0696392E-03
     26     -204.9023271295  -7.8679548E-04   2.3111688E-03
     27     -204.9031133970  -7.8626750E-04   2.1261335E-03
     28     -204.9030110388   1.0235827E-04   1.8966940E-03
     29     -204.9036637045  -6.5266576E-04   1.6301987E-03
     30     -204.9023292718   1.3344328E-03   2.1700036E-03
     31     -204.9039211056  -1.5918339E-03   1.3071172E-03
     32     -204.9040617960  -1.4069033E-04   1.3240433E-03
     33     -204.9040821059  -2.0309953E-05   1.3104626E-03
     34     -204.9041386872  -5.6581289E-05   1.2725989E-03
     35     -204.9042035578  -6.4870544E-05   1.2055186E-03
     36     -204.9041848786   1.8679113E-05   1.1754303E-03
     37     -204.9040323259   1.5255270E-04   1.3015121E-03
     38     -204.9041881432  -1.5581729E-04   1.0477867E-03
     39     -204.9041271236   6.1019668E-05   1.2212564E-03
     40     -204.9041724355  -4.5311969E-05   1.1229765E-03
     41     -204.9042122788  -3.9843238E-05   1.0358428E-03
     42     -204.9042427747  -3.0495935E-05   9.6392399E-04
     43     -204.9042629329  -2.0158218E-05   9.0927724E-04
     44     -204.9041895296   7.3403316E-05   9.5847816E-04
     45     -204.9041720418   1.7487780E-05   9.7834790E-04
     46     -204.9042733914  -1.0134952E-04   7.6088086E-04
     47     -204.9043671117  -9.3720305E-05   5.3131166E-04
     48     -204.9043854905  -1.8378886E-05   4.6902867E-04
     49     -204.9044057524  -2.0261832E-05   3.7822607E-04
     50     -204.9044053147   4.3763961E-07   3.7964882E-04
     51     -204.9044061783  -8.6356937E-07   3.6584205E-04
     52     -204.9044183970  -1.2218736E-05   2.5898650E-04
     53     -204.9044229991  -4.6020357E-06   2.0528189E-04
     54     -204.9044258353  -2.8362695E-06   1.7941350E-04
     55     -204.9044291656  -3.3302132E-06   1.5043949E-04
     56     -204.9044282211   9.4448507E-07   1.4896194E-04
     57     -204.9044307039  -2.4828020E-06   1.2407599E-04
     58     -204.9044314552  -7.5135270E-07   1.1738292E-04
     59     -204.9044304081   1.0470981E-06   1.3213459E-04
     60     -204.9044306353  -2.2713948E-07   1.2760787E-04
     61     -204.9044305552   8.0042241E-08   1.2953986E-04
     62     -204.9044299376   6.1763677E-07   1.2962098E-04
     63     -204.9044281769   1.7607376E-06   1.3976060E-04
     64     -204.9044294875  -1.3106205E-06   1.2522983E-04
     65     -204.9044289951   4.9234896E-07   1.2399419E-04
     66     -204.9044305158  -1.5206624E-06   1.0610409E-04
     67     -204.9044314627  -9.4693303E-07   9.5301782E-05
     68     -204.9044317905  -3.2778740E-07   8.9710802E-05
     69     -204.9044318956  -1.0510439E-07   8.6115625E-05
     70     -204.9044321827  -2.8711347E-07   8.0574013E-05
     71     -204.9044321362   4.6508575E-08   7.7093462E-05
     72     -204.9044324897  -3.5349387E-07   6.5529404E-05
     73     -204.9044327688  -2.7910062E-07   5.6100238E-05
     74     -204.9044335224  -7.5358818E-07   2.8480080E-05
     75     -204.9044334247   9.7672569E-08   2.9694109E-05
     76     -204.9044337271  -3.0234855E-07   1.2316747E-05
------------------------------------------------------------

electronic energy        -2.0654252704124E+02 Eh
total energy             -2.0490443372707E+02 Eh

 total:                                  24.232 sec
 - repulsion                              0.000 sec (  0%)
 - dispersion                             0.013 sec (  0%)
 - coulomb                                0.003 sec (  0%)
 - hamiltonian                            0.015 sec (  0%)
 - scc                                   24.199 sec ( 99%)

      ----------------------------------------------------------- 
     |                   =====================                   |
     |                        A N C O P T                        |
     |                   =====================                   |
     |               Approximate Normal Coordinate               |
     |                Rational Function Optimizer                |
      ----------------------------------------------------------- 
      ----------------------------------------------------------- 
     |                   =====================                   |
     |                        A N C O P T                        |
     |                   =====================                   |
     |               Approximate Normal Coordinate               |
     |                Rational Function Optimizer                |
      ----------------------------------------------------------- 

          ...................................................
          :                      SETUP                      :
          :.................................................:
          :   optimization level            normal          :
          :   max. optcycles                   303          :
          :   ANC micro-cycles                  20          :
          :   degrees of freedom               297          :
          :.................................................:
          :   RF solver                   davidson          :
          :   write xtbopt.log                true          :
          :   linear?                        false          :
          :   energy convergence         0.5000000E-05 Eh   :
          :   grad. convergence          0.1000000E-02 Eh/α :
          :   maxmium RF displ.          1.0000000          :
          :   Hlow (freq-cutoff)         0.1000000E-01      :
          :   Hmax (freq-cutoff)         5.0000000          :
          :   S6 in model hess.         20.0000000          :
          ...................................................

generating ANC from exact Hessian ...
Using Lindh-Hessian (1995)
 Shifting diagonal of input Hessian by    1.0411913911083624E-002
 Lowest  eigenvalues of input Hessian
    0.010000    0.010369    0.000000    0.000000    0.000000    0.000000
    0.000000    0.000000    0.010434    0.010461    0.010523    0.010567
    0.010608    0.010657    0.010716    0.010790    0.010821    0.010869
 Highest eigenvalues
    3.661942    3.671357    3.671711    3.671719    3.682515    3.682863


........................................................................
.............................. CYCLE    1 ..............................
........................................................................
------------------------------------------------------------
  cycle        total energy    energy error   density error
------------------------------------------------------------
      1     -204.9043399802  -2.0654243E+02   4.8853618E-04
      2     -204.8703301123   3.4009868E-02   8.4927894E-03
      3     -204.9031105754  -3.2780463E-02   2.0929707E-03
      4     -204.9044138709  -1.3032956E-03   2.7454480E-04
      5     -204.9043611407   5.2730276E-05   4.3602947E-04
      6     -204.9043975546  -3.6413883E-05   3.6076541E-04
      7     -204.9044269091  -2.9354581E-05   1.4644876E-04
      8     -204.9044324076  -5.4984845E-06   6.2123108E-05
      9     -204.9044335538  -1.1461715E-06   3.1018463E-05
     10     -204.9044336120  -5.8170883E-08   2.4345573E-05
     11     -204.9044335760   3.5924103E-08   2.4733401E-05
     12     -204.9044334965   7.9575670E-08   2.7334921E-05
     13     -204.9044336925  -1.9604281E-07   1.7269538E-05
------------------------------------------------------------

 total:                                   4.470 sec
 * total energy  :  -204.9044337 Eh     change        0.3457180E-07 Eh
   gradient norm :     0.6609608 Eh/α   predicted     0.0000000E+00 (-100.00%)
   displ. norm   :     0.7846574 α      lambda       -0.4661077E+00
   maximum displ.:     0.1947932 α      in ANC's #142, #117, #144, ...

........................................................................
.............................. CYCLE    2 ..............................
........................................................................
------------------------------------------------------------
  cycle        total energy    energy error   density error
------------------------------------------------------------
      1     -205.1512686012  -2.0676520E+02   4.5804008E-02
      2     -204.5892186415   5.6204996E-01   5.9059248E-02
      3     -205.1008730255  -5.1165438E-01   3.1494180E-02
      4     -205.0796350134   2.1238012E-02   2.9922627E-02
      5     -205.1424703435  -6.2835330E-02   2.8003011E-02
      6     -205.2383287496  -9.5858406E-02   2.3143423E-02
      7     -205.2223470946   1.5981655E-02   2.6123316E-02
      8     -205.2961502446  -7.3803150E-02   1.9188554E-02
      9     -205.1118163935   1.8433385E-01   2.8390131E-02
     10     -205.2831370582  -1.7132066E-01   1.4073927E-02
     11     -205.3163162343  -3.3179176E-02   1.4565744E-02
     12     -205.3184068902  -2.0906559E-03   1.3347538E-02
     13     -205.3135064151   4.9004751E-03   1.3080907E-02
     14     -205.3382659882  -2.4759573E-02   6.3936947E-03
     15     -205.3523463675  -1.4080379E-02   3.1725578E-03
     16     -205.3526403481  -2.9398063E-04   3.0010131E-03
     17     -205.3466301746   6.0101735E-03   5.7150699E-03
     18     -205.3500453278  -3.4151532E-03   4.0787266E-03
     19     -205.3517786726  -1.7333448E-03   2.5766609E-03
     20     -205.3540268100  -2.2481375E-03   1.5483380E-03
     21     -205.3540672854  -4.0475412E-05   1.5129651E-03
     22     -205.3538522216   2.1506388E-04   1.4944593E-03
     23     -205.3542836098  -4.3138827E-04   9.9029037E-04
     24     -205.3538496272   4.3398267E-04   1.5616795E-03
     25     -205.3543671639  -5.1753672E-04   5.4898162E-04
     26     -205.3543549494   1.2214472E-05   6.3919908E-04
     27     -205.3543104394   4.4509964E-05   7.5070836E-04
     28     -205.3542549047   5.5534711E-05   8.8095828E-04
     29     -205.3543159345  -6.1029729E-05   6.7457292E-04
     30     -205.3543170996  -1.1651154E-06   6.6905241E-04
     31     -205.3542882052   2.8894420E-05   7.1474481E-04
     32     -205.3542501701   3.8035041E-05   7.9623892E-04
     33     -205.3542309794   1.9190738E-05   7.7416411E-04
     34     -205.3542557438  -2.4764397E-05   7.3401053E-04
     35     -205.3542701455  -1.4401701E-05   7.1432682E-04
     36     -205.3542225383   4.7607167E-05   8.0886994E-04
     37     -205.3543928035  -1.7026518E-04   3.5004668E-04
     38     -205.3543912865   1.5169367E-06   3.5650616E-04
     39     -205.3543796513   1.1635235E-05   4.2654755E-04
     40     -205.3543869162  -7.2648960E-06   3.7529019E-04
     41     -205.3543952941  -8.3778960E-06   3.3265290E-04
     42     -205.3543971407  -1.8466254E-06   3.2111385E-04
     43     -205.3543913495   5.7912124E-06   3.2989660E-04
     44     -205.3543829031   8.4464174E-06   3.3647898E-04
     45     -205.3543811401   1.7629653E-06   3.4359809E-04
     46     -205.3543800019   1.1382567E-06   3.3347611E-04
     47     -205.3544133936  -3.3391737E-05   1.5717789E-04
     48     -205.3544133943  -7.1500494E-10   1.5434226E-04
     49     -205.3544149175  -1.5231847E-06   1.4288271E-04
     50     -205.3544149069   1.0582283E-08   1.4236091E-04
     51     -205.3544153163  -4.0937988E-07   1.3681238E-04
     52     -205.3544150940   2.2228153E-07   1.4058938E-04
     53     -205.3544150937   2.9021407E-10   1.4045968E-04
     54     -205.3544149761   1.1762694E-07   1.3819008E-04
     55     -205.3544153782  -4.0206146E-07   1.2889004E-04
     56     -205.3544160989  -7.2075946E-07   9.6470218E-05
     57     -205.3544167192  -6.2031049E-07   3.5341386E-05
     58     -205.3544166545   6.4762105E-08   3.0649087E-05
     59     -205.3544165896   6.4919789E-08   3.0212554E-05
     60     -205.3544165055   8.4057405E-08   3.9624559E-05
     61     -205.3544166418  -1.3633385E-07   2.5692086E-05
     62     -205.3544166937  -5.1885422E-08   1.4155437E-05
------------------------------------------------------------

 total:                                  17.443 sec
 * total energy  :  -205.3544167 Eh     change       -0.4499830E+00 Eh
   gradient norm :     0.6046028 Eh/α   predicted    -0.3765577E+00 ( -16.32%)
   displ. norm   :     0.9737695 α      lambda       -0.5809510E+00
   maximum displ.:     0.2638515 α      in ANC's #180, #142, #183, ...

........................................................................
.............................. CYCLE    3 ..............................
........................................................................
------------------------------------------------------------
  cycle        total energy    energy error   density error
------------------------------------------------------------
      1     -205.6817569654  -2.0727499E+02   3.8810636E-02
      2     -205.1859501069   4.9580686E-01   5.6997172E-02
      3     -205.6197727305  -4.3382262E-01   3.9924916E-02
      4     -205.6523266260  -3.2553896E-02   2.8223816E-02
      5     -205.4962528398   1.5607379E-01   2.9922578E-02
      6     -205.6755434660  -1.7929063E-01   2.5340210E-02
      7     -205.8577926864  -1.8224922E-01   1.3709714E-02
      8     -205.7146611127   1.4313157E-01   2.2652919E-02
      9     -205.8017371030  -8.7075990E-02   2.2233110E-02
     10     -205.8444862014  -4.2749098E-02   1.4160925E-02
     11     -205.8604161264  -1.5929925E-02   1.1153214E-02
     12     -205.8740773379  -1.3661212E-02   7.5601496E-03
     13     -205.8819470789  -7.8697409E-03   6.3439523E-03
     14     -205.8823266915  -3.7961262E-04   4.7125533E-03
     15     -205.8861713925  -3.8447010E-03   4.7965692E-03
     16     -205.8887200356  -2.5486430E-03   3.1627614E-03
     17     -205.8883651086   3.5492695E-04   3.3795388E-03
     18     -205.8878362892   5.2881944E-04   3.5035156E-03
     19     -205.8892665982  -1.4303091E-03   1.8687386E-03
     20     -205.8898453968  -5.7879854E-04   1.5996363E-03
     21     -205.8898937734  -4.8376586E-05   1.2573920E-03
     22     -205.8897016862   1.9208713E-04   1.5697822E-03
     23     -205.8896435116   5.8174597E-05   1.4744171E-03
     24     -205.8894295148   2.1399687E-04   1.6863976E-03
     25     -205.8893050285   1.2448628E-04   1.6821426E-03
     26     -205.8897721942  -4.6716574E-04   1.2556696E-03
     27     -205.8898036103  -3.1416069E-05   1.1980083E-03
     28     -205.8897181038   8.5506470E-05   1.3396303E-03
     29     -205.8897721438  -5.4039975E-05   1.2633703E-03
     30     -205.8896371896   1.3495424E-04   1.4535958E-03
     31     -205.8894254599   2.1172964E-04   1.7108744E-03
     32     -205.8897147959  -2.8933601E-04   1.2686441E-03
     33     -205.8898347403  -1.1994440E-04   1.1753374E-03
     34     -205.8898853290  -5.0588609E-05   1.1037346E-03
     35     -205.8899878242  -1.0249526E-04   9.1768607E-04
     36     -205.8901085422  -1.2071801E-04   6.1862894E-04
     37     -205.8901482993  -3.9757095E-05   4.7608684E-04
     38     -205.8901700443  -2.1744965E-05   3.6989774E-04
     39     -205.8901947692  -2.4724941E-05   1.8987727E-04
     40     -205.8902009458  -6.1766142E-06   1.3595029E-04
     41     -205.8902017873  -8.4142238E-07   1.2180687E-04
     42     -205.8901977847   4.0025232E-06   1.6671716E-04
     43     -205.8901998848  -2.1000517E-06   1.4296193E-04
     44     -205.8902007896  -9.0479375E-07   1.3461055E-04
     45     -205.8902024705  -1.6809027E-06   1.0895482E-04
     46     -205.8902040257  -1.5552170E-06   8.1620926E-05
     47     -205.8902050671  -1.0413891E-06   5.3113240E-05
     48     -205.8902052679  -2.0076027E-07   4.4732357E-05
     49     -205.8902056556  -3.8779001E-07   2.2774941E-05
     50     -205.8902057795  -1.2383072E-07   1.2120500E-05
------------------------------------------------------------

 total:                                  15.970 sec
 * total energy  :  -205.8902058 Eh     change       -0.5357891E+00 Eh
   gradient norm :     0.5198374 Eh/α   predicted    -0.5659125E+00 (   5.62%)
   displ. norm   :     0.9093744 α      lambda       -0.4504601E+00
   maximum displ.:     0.2368895 α      in ANC's #180, #142, #183, ...

........................................................................
.............................. CYCLE    4 ..............................
........................................................................
------------------------------------------------------------
  cycle        total energy    energy error   density error
------------------------------------------------------------
      1     -206.2087658773  -2.0785224E+02   1.7799863E-02
      2     -205.7975496606   4.1121622E-01   4.5095304E-02
      3     -206.2441142740  -4.4656461E-01   1.2887898E-02
      4     -206.1405147029   1.0359957E-01   1.6127425E-02
      5     -205.9700981770   1.7041653E-01   2.3047233E-02
      6     -206.2428818057  -2.7278363E-01   1.1260886E-02
      7     -206.0973068815   1.4557492E-01   2.4830353E-02
      8     -206.2572988031  -1.5999192E-01   7.6168929E-03
      9     -206.2201102072   3.7188596E-02   1.2348998E-02
     10     -206.2657838477  -4.5673640E-02   5.5715773E-03
     11     -206.2668346121  -1.0507644E-03   4.2698723E-03
     12     -206.2691500083  -2.3153962E-03   3.6196285E-03
     13     -206.2691786374  -2.8629142E-05   3.0969148E-03
     14     -206.2702422687  -1.0636312E-03   2.3281729E-03
     15     -206.2709022167  -6.5994798E-04   1.7074022E-03
     16     -206.2711305983  -2.2838168E-04   1.3444550E-03
     17     -206.2712459666  -1.1536825E-04   1.1196807E-03
     18     -206.2712165239   2.9442653E-05   1.1336029E-03
     19     -206.2713057155  -8.9191529E-05   9.5222781E-04
     20     -206.2714054302  -9.9714707E-05   7.1732132E-04
     21     -206.2714831244  -7.7694263E-05   3.9562893E-04
     22     -206.2714886970  -5.5725361E-06   3.2486343E-04
     23     -206.2714952802  -6.5831818E-06   2.6600499E-04
     24     -206.2714918279   3.4523132E-06   2.5789557E-04
     25     -206.2714974462  -5.6183767E-06   1.9053332E-04
     26     -206.2714967123   7.3390132E-07   1.7942954E-04
     27     -206.2715023371  -5.6248033E-06   1.2010790E-04
     28     -206.2715052116  -2.8744545E-06   4.7610521E-05
     29     -206.2715046275   5.8413059E-07   5.6291921E-05
     30     -206.2715049146  -2.8709974E-07   4.3245514E-05
     31     -206.2715051403  -2.2571979E-07   3.0310938E-05
     32     -206.2715053507  -2.1041097E-07   1.9363953E-05
------------------------------------------------------------

 total:                                  36.824 sec
 * total energy  :  -206.2715054 Eh     change       -0.3812996E+00 Eh
   gradient norm :     0.4133404 Eh/α   predicted    -0.4114868E+00 (   7.92%)
   displ. norm   :     0.8563435 α      lambda       -0.3021606E+00
   maximum displ.:     0.2354726 α      in ANC's #142, #117, #131, ...

........................................................................
.............................. CYCLE    5 ..............................
........................................................................
------------------------------------------------------------
  cycle        total energy    energy error   density error
------------------------------------------------------------
      1     -206.5182935868  -2.0825409E+02   1.1352271E-02
      2     -206.3340871774   1.8420641E-01   2.4984000E-02
      3     -206.4327218963  -9.8634719E-02   1.3863213E-02
      4     -206.2054399975   2.2728190E-01   2.4253246E-02
      5     -206.4621311223  -2.5669112E-01   1.1776514E-02
      6     -206.4514709684   1.0660154E-02   1.3914710E-02
      7     -206.5083313344  -5.6860366E-02   9.0816586E-03
      8     -206.5261907510  -1.7859417E-02   4.6062741E-03
      9     -206.5286808431  -2.4900921E-03   3.2559745E-03
     10     -206.5297189510  -1.0381079E-03   2.3264014E-03
     11     -206.5310876511  -1.3687000E-03   1.8445781E-03
     12     -206.5312380710  -1.5041998E-04   1.5532213E-03
     13     -206.5311643635   7.3707577E-05   1.3624706E-03
     14     -206.5314452681  -2.8090463E-04   8.9038095E-04
     15     -206.5314829214  -3.7653288E-05   7.0540384E-04
     16     -206.5314980495  -1.5128113E-05   5.9897588E-04
     17     -206.5315048534  -6.8039440E-06   5.3713291E-04
     18     -206.5315091546  -4.3011387E-06   4.8904021E-04
     19     -206.5315106431  -1.4885308E-06   4.6774701E-04
     20     -206.5315124278  -1.7846808E-06   4.3726037E-04
     21     -206.5315130093  -5.8146799E-07   4.1660786E-04
     22     -206.5315209944  -7.9851311E-06   3.2319957E-04
     23     -206.5315223320  -1.3375959E-06   2.3283904E-04
     24     -206.5315295428  -7.2108160E-06   1.2499362E-04
     25     -206.5315303671  -8.2432831E-07   8.8114822E-05
     26     -206.5315307484  -3.8130395E-07   5.2733304E-05
     27     -206.5315310189  -2.7048156E-07   3.6041263E-05
     28     -206.5315308261   1.9276717E-07   3.1559891E-05
     29     -206.5315312445  -4.1832411E-07   1.2956088E-05
------------------------------------------------------------

 total:                                  27.722 sec
 * total energy  :  -206.5315312 Eh     change       -0.2600259E+00 Eh
   gradient norm :     0.3294853 Eh/α   predicted    -0.2618727E+00 (   0.71%)
   displ. norm   :     0.8233455 α      lambda       -0.2162092E+00
   maximum displ.:     0.2122104 α      in ANC's #142, #117, #92, ...

........................................................................
.............................. CYCLE    6 ..............................
........................................................................
------------------------------------------------------------
  cycle        total energy    energy error   density error
------------------------------------------------------------
      1     -206.7039721141  -2.0856472E+02   9.4539686E-03
      2     -206.5174795853   1.8649253E-01   1.8576380E-02
      3     -206.4281718373   8.9307748E-02   2.1395846E-02
      4     -206.7043082331  -2.7613640E-01   6.1740292E-03
      5     -206.7062124607  -1.9042276E-03   3.7192558E-03
      6     -206.7041404792   2.0719815E-03   4.0175252E-03
      7     -206.7076669806  -3.5265014E-03   2.5659307E-03
      8     -206.7082984064  -6.3142571E-04   1.9672396E-03
      9     -206.7086312422  -3.3283586E-04   1.6739312E-03
     10     -206.7088834895  -2.5224732E-04   1.2323157E-03
     11     -206.7089484724  -6.4982851E-05   9.8711198E-04
     12     -206.7089809460  -3.2473617E-05   8.6622252E-04
     13     -206.7090154175  -3.4471506E-05   6.9939304E-04
     14     -206.7090399930  -2.4575477E-05   4.5057973E-04
     15     -206.7090573002  -1.7307256E-05   3.1268619E-04
     16     -206.7090629891  -5.6888040E-06   1.9067103E-04
     17     -206.7090639646  -9.7557742E-07   1.3532015E-04
     18     -206.7090668504  -2.8858095E-06   8.7863198E-05
     19     -206.7090667563   9.4154558E-08   8.7535149E-05
     20     -206.7090668935  -1.3719455E-07   8.2440684E-05
     21     -206.7090671248  -2.3131994E-07   7.1713933E-05
     22     -206.7090669999   1.2485924E-07   7.0223353E-05
     23     -206.7090671026  -1.0261618E-07   6.4267886E-05
     24     -206.7090671935  -9.0982979E-08   5.1865769E-05
     25     -206.7090674318  -2.3824106E-07   3.4850969E-05
     26     -206.7090675882  -1.5645253E-07   1.4118147E-05
------------------------------------------------------------

 total:                                  21.109 sec
 * total energy  :  -206.7090676 Eh     change       -0.1775363E+00 Eh
   gradient norm :     0.2377012 Eh/α   predicted    -0.1813886E+00 (   2.17%)
   displ. norm   :     0.7849229 α      lambda       -0.1418413E+00
   maximum displ.:     0.2031080 α      in ANC's #142, #144, #64, ...

........................................................................
.............................. CYCLE    7 ..............................
........................................................................
------------------------------------------------------------
  cycle        total energy    energy error   density error
------------------------------------------------------------
      1     -206.8152747869  -2.0881395E+02   9.1873192E-03
      2     -206.7139559907   1.0131880E-01   1.3528643E-02
      3     -206.4406224683   2.7333352E-01   2.5266834E-02
      4     -206.7701170180  -3.2949455E-01   1.1427955E-02
      5     -206.8076421742  -3.7525156E-02   5.3809293E-03
      6     -206.8155042331  -7.8620589E-03   3.3107491E-03
      7     -206.8153470680   1.5716516E-04   3.2505368E-03
      8     -206.8182068830  -2.8598151E-03   1.8514798E-03
      9     -206.8174995343   7.0734878E-04   1.8459856E-03
     10     -206.8181656209  -6.6608663E-04   1.0441092E-03
     11     -206.8183967563  -2.3113537E-04   7.1959072E-04
     12     -206.8184294995  -3.2743203E-05   6.5141912E-04
     13     -206.8183634735   6.6025968E-05   5.8545867E-04
     14     -206.8184360968  -7.2623315E-05   3.4669530E-04
     15     -206.8184463726  -1.0275780E-05   3.6666441E-04
     16     -206.8184468966  -5.2395617E-07   3.4471080E-04
     17     -206.8184542176  -7.3210285E-06   2.5997133E-04
     18     -206.8184585869  -4.3693563E-06   1.8762505E-04
     19     -206.8184572421   1.3448800E-06   1.9020681E-04
     20     -206.8184573514  -1.0937291E-07   1.7299444E-04
     21     -206.8184590561  -1.7046956E-06   1.2476350E-04
     22     -206.8184604043  -1.3482040E-06   7.0458829E-05
     23     -206.8184606620  -2.5767076E-07   3.5239645E-05
     24     -206.8184607213  -5.9336941E-08   2.1587101E-05
     25     -206.8184607987  -7.7365286E-08   4.8679053E-06
------------------------------------------------------------

 total:                                  22.812 sec
 * total energy  :  -206.8184608 Eh     change       -0.1093932E+00 Eh
   gradient norm :     0.1563168 Eh/α   predicted    -0.1146152E+00 (   4.77%)
   displ. norm   :     0.7823826 α      lambda       -0.8929695E-01
   maximum displ.:     0.1805326 α      in ANC's #64, #92, #28, ...

........................................................................
.............................. CYCLE    8 ..............................
........................................................................
------------------------------------------------------------
  cycle        total energy    energy error   density error
------------------------------------------------------------
      1     -206.8733630816  -2.0900714E+02   7.1500563E-03
      2     -206.8111397444   6.2223337E-02   1.0669610E-02
      3     -206.5137996197   2.9734012E-01   2.4633235E-02
      4     -206.8291895035  -3.1538988E-01   1.0756718E-02
      5     -206.8411041523  -1.1914649E-02   8.3234812E-03
      6     -206.8705523952  -2.9448243E-02   3.4099044E-03
      7     -206.8727995093  -2.2471141E-03   2.8824118E-03
      8     -206.8737174551  -9.1794587E-04   2.4540587E-03
      9     -206.8737466708  -2.9215683E-05   2.3156647E-03
     10     -206.8744674699  -7.2079904E-04   1.4439739E-03
     11     -206.8748962004  -4.2873057E-04   7.3342544E-04
     12     -206.8750014308  -1.0523039E-04   5.7218841E-04
     13     -206.8749916274   9.8034440E-06   5.1296381E-04
     14     -206.8750152733  -2.3645920E-05   4.0917103E-04
     15     -206.8750351391  -1.9865798E-05   4.1619803E-04
     16     -206.8750357138  -5.7468597E-07   3.6867187E-04
     17     -206.8750362997  -5.8589148E-07   2.8225821E-04
     18     -206.8750400315  -3.7317953E-06   2.7493747E-04
     19     -206.8750402039  -1.7244150E-07   2.6731405E-04
     20     -206.8750414422  -1.2382517E-06   2.0545790E-04
     21     -206.8750426161  -1.1739066E-06   1.2527059E-04
     22     -206.8750431457  -5.2966300E-07   5.8729990E-05
     23     -206.8750433420  -1.9626611E-07   1.0178378E-05
------------------------------------------------------------

 total:                                  21.776 sec
 * total energy  :  -206.8750433 Eh     change       -0.5658254E-01 Eh
   gradient norm :     0.1468134 Eh/α   predicted    -0.7197881E-01 (  27.21%)
   displ. norm   :     0.7430507 α      lambda       -0.7074030E-01
   maximum displ.:     0.2100221 α      in ANC's #64, #73, #78, ...

........................................................................
.............................. CYCLE    9 ..............................
........................................................................
------------------------------------------------------------
  cycle        total energy    energy error   density error
------------------------------------------------------------
      1     -206.9128442068  -2.0910346E+02   7.1021351E-03
      2     -206.9079740418   4.8701650E-03   5.3241480E-03
      3     -206.8296396084   7.8334433E-02   1.3180831E-02
      4     -206.6837663951   1.4587321E-01   1.9747008E-02
      5     -206.9064894911  -2.2272310E-01   4.7175170E-03
      6     -206.9134091143  -6.9196231E-03   1.0538883E-03
      7     -206.9134826457  -7.3531439E-05   7.4649557E-04
      8     -206.9133759259   1.0671978E-04   8.1801133E-04
      9     -206.9134169300  -4.1004053E-05   7.2139527E-04
     10     -206.9133883615   2.8568448E-05   6.1675833E-04
     11     -206.9135760662  -1.8770467E-04   2.7601622E-04
     12     -206.9135778046  -1.7383966E-06   2.6996856E-04
     13     -206.9135815519  -3.7473192E-06   1.9536245E-04
     14     -206.9135835630  -2.0110938E-06   1.2717651E-04
     15     -206.9135825109   1.0521029E-06   1.2209546E-04
     16     -206.9135837209  -1.2100236E-06   8.9619371E-05
     17     -206.9135842751  -5.5413679E-07   5.2028573E-05
     18     -206.9135834031   8.7202221E-07   6.5355392E-05
     19     -206.9135839076  -5.0458090E-07   3.9993220E-05
     20     -206.9135843486  -4.4095233E-07   1.4346717E-05
------------------------------------------------------------

 total:                                  18.794 sec
 * total energy  :  -206.9135843 Eh     change       -0.3854101E-01 Eh
   gradient norm :     0.0917364 Eh/α   predicted    -0.5489891E-01 (  42.44%)
   displ. norm   :     0.7262028 α      lambda       -0.3812326E-01
   maximum displ.:     0.1822943 α      in ANC's #73, #64, #28, ...

........................................................................
.............................. CYCLE   10 ..............................
........................................................................
------------------------------------------------------------
  cycle        total energy    energy error   density error
------------------------------------------------------------
      1     -206.9346011488  -2.0915383E+02   7.1498215E-03
      2     -206.6809079257   2.5369322E-01   2.0534289E-02
      3     -206.8798799544  -1.9897203E-01   1.0823442E-02
      4     -206.9294891888  -4.9609234E-02   6.0775062E-03
      5     -206.9369171819  -7.4279931E-03   2.4141220E-03
      6     -206.9346328732   2.2843087E-03   3.0175008E-03
      7     -206.9347006589  -6.7785691E-05   2.3732823E-03
      8     -206.9344966935   2.0396533E-04   2.3501339E-03
      9     -206.9356122969  -1.1156034E-03   1.8396104E-03
     10     -206.9374111103  -1.7988134E-03   1.1075102E-03
     11     -206.9374939676  -8.2857338E-05   1.5105067E-03
     12     -206.9374626850   3.1282602E-05   1.4898886E-03
     13     -206.9375246100  -6.1924945E-05   1.1927907E-03
     14     -206.9375652899  -4.0679908E-05   9.3933756E-04
     15     -206.9375612648   4.0250972E-06   8.9936188E-04
     16     -206.9375694978  -8.2330754E-06   7.6391231E-04
     17     -206.9375965944  -2.7096555E-05   3.9112659E-04
     18     -206.9375951785   1.4158479E-06   2.9543815E-04
     19     -206.9376024908  -7.3122928E-06   1.0270534E-04
     20     -206.9376051288  -2.6379974E-06   1.1972320E-05
     21     -206.9376051348  -5.9537513E-09   2.3768927E-05
     22     -206.9376051009   3.3846675E-08   1.5139229E-05
------------------------------------------------------------

 total:                                  22.856 sec
 * total energy  :  -206.9376051 Eh     change       -0.2402075E-01 Eh
   gradient norm :     0.1024199 Eh/α   predicted    -0.2911418E-01 (  21.20%)
   displ. norm   :     0.7349438 α      lambda       -0.3932777E-01
   maximum displ.:     0.2254682 α      in ANC's #64, #73, #14, ...

........................................................................
.............................. CYCLE   11 ..............................
........................................................................
------------------------------------------------------------
  cycle        total energy    energy error   density error
------------------------------------------------------------
      1     -206.9597710358  -2.0921062E+02   6.5722444E-03
      2     -206.9356134563   2.4157580E-02   8.1752295E-03
      3     -206.7056009500   2.3001251E-01   2.0334538E-02
      4     -206.9578124828  -2.5221153E-01   3.9322827E-03
      5     -206.9551996632   2.6128196E-03   3.9586389E-03
      6     -206.9579725976  -2.7729344E-03   2.5657186E-03
      7     -206.9594676867  -1.4950891E-03   1.5728769E-03
      8     -206.9602214583  -7.5377164E-04   1.1269287E-03
      9     -206.9607033224  -4.8186404E-04   8.8466907E-04
     10     -206.9608296914  -1.2636903E-04   1.0311541E-03
     11     -206.9608287805   9.1089797E-07   1.0337851E-03
     12     -206.9608333850  -4.6045295E-06   9.4008826E-04
     13     -206.9608568745  -2.3489473E-05   5.5039612E-04
     14     -206.9608492549   7.6195933E-06   3.3771337E-04
     15     -206.9608614217  -1.2166818E-05   4.3262037E-04
     16     -206.9608643775  -2.9557363E-06   3.2656695E-04
     17     -206.9608682291  -3.8516347E-06   1.6645934E-04
     18     -206.9608679582   2.7090886E-07   1.2018449E-04
     19     -206.9608686918  -7.3360636E-07   4.6168505E-05
     20     -206.9608693953  -7.0351771E-07   1.7446039E-05
------------------------------------------------------------

 total:                                  19.153 sec
 * total energy  :  -206.9608694 Eh     change       -0.2326429E-01 Eh
   gradient norm :     0.0876628 Eh/α   predicted    -0.3028518E-01 (  30.18%)
   displ. norm   :     0.6629138 α      lambda       -0.2627014E-01
   maximum displ.:     0.1626403 α      in ANC's #14, #73, #33, ...

........................................................................
.............................. CYCLE   12 ..............................
........................................................................
------------------------------------------------------------
  cycle        total energy    energy error   density error
------------------------------------------------------------
      1     -206.9766916341  -2.0925384E+02   5.3427622E-03
      2     -206.9766866001   5.0339330E-06   3.1498084E-03
      3     -206.9397054275   3.6981173E-02   9.1899400E-03
      4     -206.9510483337  -1.1342906E-02   7.6170627E-03
      5     -206.9766208383  -2.5572505E-02   1.0880116E-03
      6     -206.9767944361  -1.7359772E-04   8.0702602E-04
      7     -206.9770234199  -2.2898378E-04   3.2927929E-04
      8     -206.9769128078   1.1061201E-04   6.2218569E-04
      9     -206.9767767906   1.3601722E-04   8.3502972E-04
     10     -206.9767938093  -1.7018706E-05   7.7515868E-04
     11     -206.9770338697  -2.4006039E-04   1.3642014E-04
     12     -206.9770379103  -4.0405919E-06   1.8912886E-04
     13     -206.9770374343   4.7601995E-07   1.8477195E-04
     14     -206.9770422966  -4.8623151E-06   1.0803329E-04
     15     -206.9770453704  -3.0737870E-06   2.5755391E-05
     16     -206.9770454426  -7.2243580E-08   1.5832657E-05
------------------------------------------------------------

 total:                                  16.203 sec
 * total energy  :  -206.9770454 Eh     change       -0.1617605E-01 Eh
   gradient norm :     0.0777246 Eh/α   predicted    -0.1890734E-01 (  16.88%)
   displ. norm   :     0.7042666 α      lambda       -0.2546351E-01
   maximum displ.:     0.1957702 α      in ANC's #33, #1, #14, ...

........................................................................
.............................. CYCLE   13 ..............................
........................................................................
------------------------------------------------------------
  cycle        total energy    energy error   density error
------------------------------------------------------------
      1     -206.9841601235  -2.0926573E+02   6.9292007E-03
      2     -206.6616686069   3.2249152E-01   2.3256035E-02
      3     -206.9713028402  -3.0963423E-01   7.0409742E-03
      4     -206.9772132960  -5.9104558E-03   6.9386476E-03
      5     -206.9797626215  -2.5493255E-03   4.3962221E-03
      6     -206.9883423002  -8.5796788E-03   1.9047532E-03
      7     -206.9884269114  -8.4611193E-05   1.7276998E-03
      8     -206.9885840972  -1.5718576E-04   1.8800639E-03
      9     -206.9885675481   1.6549070E-05   1.6996094E-03
     10     -206.9886009033  -3.3355210E-05   1.5463728E-03
     11     -206.9885939898   6.9135089E-06   1.5222122E-03
     12     -206.9885715707   2.2419045E-05   1.4793891E-03
     13     -206.9886092384  -3.7667680E-05   1.2830911E-03
     14     -206.9887037034  -9.4464998E-05   7.8854140E-04
     15     -206.9887246201  -2.0916679E-05   3.7022276E-04
     16     -206.9887301070  -5.4869070E-06   1.5875729E-04
     17     -206.9887335032  -3.3962113E-06   2.7040544E-05
     18     -206.9887330170   4.8619390E-07   7.1583279E-05
     19     -206.9887336772  -6.6013575E-07   1.1416980E-05
------------------------------------------------------------

 total:                                  17.246 sec
 * total energy  :  -206.9887337 Eh     change       -0.1168823E-01 Eh
   gradient norm :     0.0828520 Eh/α   predicted    -0.1904661E-01 (  62.96%)
   displ. norm   :     0.6855562 α      lambda       -0.2699175E-01
   maximum displ.:     0.1847033 α      in ANC's #1, #14, #23, ...

........................................................................
.............................. CYCLE   14 ..............................
........................................................................
------------------------------------------------------------
  cycle        total energy    energy error   density error
------------------------------------------------------------
      1     -206.9990277883  -2.0928512E+02   7.0694936E-03
      2     -206.9769568579   2.2070930E-02   8.0504503E-03
      3     -206.6947460199   2.8221084E-01   2.2824544E-02
      4     -206.9875162303  -2.9277021E-01   6.9589373E-03
      5     -207.0001525012  -1.2636271E-02   1.8584495E-03
      6     -206.9945746057   5.5778955E-03   3.4920679E-03
      7     -206.9984486237  -3.8740180E-03   1.9545480E-03
      8     -206.9996756254  -1.2270017E-03   1.1414445E-03
      9     -207.0002764487  -6.0082329E-04   6.4477171E-04
     10     -207.0003783506  -1.0190193E-04   7.2331579E-04
     11     -207.0003579240   2.0426581E-05   8.7607948E-04
     12     -207.0003564942   1.4298274E-06   8.3361287E-04
     13     -207.0003756433  -1.9149080E-05   6.7259289E-04
     14     -207.0003815138  -5.8705103E-06   5.8908407E-04
     15     -207.0003860894  -4.5755682E-06   4.9367523E-04
     16     -207.0003946060  -8.5166454E-06   2.7451057E-04
     17     -207.0003994241  -4.8180705E-06   1.1145941E-04
     18     -207.0003989911   4.3294938E-07   8.6764364E-05
     19     -207.0004001863  -1.1951743E-06   2.9122948E-05
     20     -207.0004002706  -8.4282135E-08   1.7284128E-05
------------------------------------------------------------

 total:                                  13.514 sec
 * total energy  :  -207.0004003 Eh     change       -0.1166659E-01 Eh
   gradient norm :     0.0976855 Eh/α   predicted    -0.1983877E-01 (  70.05%)
   displ. norm   :     0.5762543 α      lambda       -0.2168890E-01
   maximum displ.:     0.1470021 α      in ANC's #14, #66, #29, ...

........................................................................
.............................. CYCLE   15 ..............................
........................................................................
------------------------------------------------------------
  cycle        total energy    energy error   density error
------------------------------------------------------------
      1     -207.0106179036  -2.0928715E+02   5.6431634E-03
      2     -207.0109479730  -3.3006936E-04   3.4931461E-03
      3     -206.9693560225   4.1591950E-02   9.7113872E-03
      4     -206.9928561739  -2.3500151E-02   7.0821151E-03
      5     -207.0015998387  -8.7436648E-03   4.9122540E-03
      6     -207.0080417096  -6.4418708E-03   2.7597717E-03
      7     -207.0114175902  -3.3758807E-03   4.6856168E-04
      8     -207.0112307454   1.8684477E-04   1.0680640E-03
      9     -207.0112167448   1.4000646E-05   1.0481170E-03
     10     -207.0113806202  -1.6387542E-04   5.8093071E-04
     11     -207.0114524089  -7.1788734E-05   1.9044839E-04
     12     -207.0114458438   6.5651675E-06   2.2091921E-04
     13     -207.0114574937  -1.1649908E-05   9.3310179E-05
     14     -207.0114602798  -2.7860738E-06   2.0349297E-05
     15     -207.0114603325  -5.2710078E-08   2.0239630E-05
     16     -207.0114602010   1.3151563E-07   2.7088849E-05
     17     -207.0114602583  -5.7380788E-08   1.9906579E-05
------------------------------------------------------------

 total:                                  13.132 sec
 * total energy  :  -207.0114603 Eh     change       -0.1105999E-01 Eh
   gradient norm :     0.0743347 Eh/α   predicted    -0.1444558E-01 (  30.61%)
   displ. norm   :     0.6413285 α      lambda       -0.1596605E-01
   maximum displ.:     0.2225349 α      in ANC's #14, #33, #18, ...

........................................................................
.............................. CYCLE   16 ..............................
........................................................................
------------------------------------------------------------
  cycle        total energy    energy error   density error
------------------------------------------------------------
      1     -207.0163248693  -2.0929137E+02   5.3684369E-03
      2     -206.9648388850   5.1485984E-02   1.0975603E-02
      3     -206.9749670219  -1.0128137E-02   1.0338197E-02
      4     -207.0128329606  -3.7865939E-02   3.9390284E-03
      5     -207.0129354577  -1.0249708E-04   3.5242637E-03
      6     -207.0176289959  -4.6935382E-03   8.7218253E-04
      7     -207.0170547959   5.7419999E-04   1.7532513E-03
      8     -207.0160437330   1.0110629E-03   2.3988224E-03
      9     -207.0160922989  -4.8565815E-05   2.3402915E-03
     10     -207.0178335727  -1.7412738E-03   7.7786331E-04
     11     -207.0176558195   1.7775320E-04   1.0317182E-03
     12     -207.0178014335  -1.4561407E-04   6.6013261E-04
     13     -207.0179205818  -1.1914829E-04   1.0684161E-04
     14     -207.0179235488  -2.9670255E-06   2.6507913E-05
     15     -207.0179222242   1.3246083E-06   7.1429295E-05
     16     -207.0179235188  -1.2945305E-06   1.8170675E-05
     17     -207.0179235072   1.1610240E-08   1.8002067E-05
------------------------------------------------------------

 total:                                  14.035 sec
 * total energy  :  -207.0179235 Eh     change       -0.6463249E-02 Eh
   gradient norm :     0.0650746 Eh/α   predicted    -0.1126647E-01 (  74.32%)
   displ. norm   :     0.6066767 α      lambda       -0.1576583E-01
   maximum displ.:     0.1826406 α      in ANC's #14, #31, #23, ...

........................................................................
.............................. CYCLE   17 ..............................
........................................................................
------------------------------------------------------------
  cycle        total energy    energy error   density error
------------------------------------------------------------
      1     -207.0233018522  -2.0931963E+02   5.0481915E-03
      2     -207.0133715914   9.9302608E-03   5.9211983E-03
      3     -206.9622864715   5.1085120E-02   1.1020677E-02
      4     -207.0053838049  -4.3097333E-02   6.6248192E-03
      5     -207.0180569336  -1.2673129E-02   3.5249895E-03
      6     -207.0235690876  -5.5121540E-03   1.3072762E-03
      7     -207.0227538337   8.1525386E-04   2.2529435E-03
      8     -207.0228409928  -8.7159133E-05   2.2004031E-03
      9     -207.0228526230  -1.1630184E-05   2.1697914E-03
     10     -207.0236961007  -8.4347765E-04   3.5431162E-04
     11     -207.0235929251   1.0317554E-04   6.9718227E-04
     12     -207.0236973285  -1.0440334E-04   3.1559037E-04
     13     -207.0237284041  -3.1075628E-05   5.0489315E-05
     14     -207.0237286794  -2.7533517E-07   3.1138989E-05
     15     -207.0237281485   5.3094828E-07   5.6810117E-05
     16     -207.0237281859  -3.7425337E-08   4.6210598E-05
     17     -207.0237285967  -4.1078187E-07   2.3248266E-05
     18     -207.0237286739  -7.7164515E-08   1.2962688E-05
------------------------------------------------------------

 total:                                  12.920 sec
 * total energy  :  -207.0237287 Eh     change       -0.5805167E-02 Eh
   gradient norm :     0.0796679 Eh/α   predicted    -0.1078429E-01 (  85.77%)
   displ. norm   :     0.5262728 α      lambda       -0.1601105E-01
   maximum displ.:     0.1563109 α      in ANC's #80, #32, #8, ...

........................................................................
.............................. CYCLE   18 ..............................
........................................................................
------------------------------------------------------------
  cycle        total energy    energy error   density error
------------------------------------------------------------
      1     -207.0259502933  -2.0930594E+02   6.0669546E-03
      2     -206.9577749798   6.8175314E-02   1.1525007E-02
      3     -206.9157803421   4.1994638E-02   1.3603878E-02
      4     -207.0272252572  -1.1144492E-01   2.9237876E-03
      5     -207.0277819396  -5.5668234E-04   1.6659693E-03
      6     -207.0264728945   1.3090450E-03   2.0191163E-03
      7     -207.0255483898   9.2450467E-04   2.3013793E-03
      8     -207.0249863299   5.6205993E-04   2.4492991E-03
      9     -207.0257692788  -7.8294892E-04   1.9537828E-03
     10     -207.0279104396  -2.1411608E-03   1.3297657E-03
     11     -207.0276682642   2.4217535E-04   1.7125323E-03
     12     -207.0277537620  -8.5497809E-05   1.3745726E-03
     13     -207.0278967757  -1.4301366E-04   8.6557642E-04
     14     -207.0279671780  -7.0402316E-05   5.4999424E-04
     15     -207.0279895252  -2.2347180E-05   3.7882301E-04
     16     -207.0280044006  -1.4875412E-05   2.2029942E-04
     17     -207.0280109744  -6.5738282E-06   9.6047011E-05
     18     -207.0280115660  -5.9157841E-07   4.7225798E-05
     19     -207.0280118744  -3.0839189E-07   1.0401723E-05
------------------------------------------------------------

 total:                                  12.396 sec
 * total energy  :  -207.0280119 Eh     change       -0.4283201E-02 Eh
   gradient norm :     0.0875799 Eh/α   predicted    -0.1022277E-01 ( 138.67%)
   displ. norm   :     0.4655023 α      lambda       -0.1246092E-01
   maximum displ.:     0.1694372 α      in ANC's #14, #23, #8, ...

........................................................................
.............................. CYCLE   19 ..............................
........................................................................
------------------------------------------------------------
  cycle        total energy    energy error   density error
------------------------------------------------------------
      1     -207.0332207403  -2.0931242E+02   4.1186887E-03
      2     -207.0309250503   2.2956900E-03   3.6561092E-03
      3     -206.9741796618   5.6745388E-02   1.1004419E-02
      4     -207.0190780645  -4.4898403E-02   6.3627369E-03
      5     -207.0243201146  -5.2420501E-03   4.8257117E-03
      6     -207.0277169550  -3.3968404E-03   3.6488871E-03
      7     -207.0336513248  -5.9343698E-03   6.9418202E-04
      8     -207.0335623738   8.8950932E-05   1.3994522E-03
      9     -207.0335810977  -1.8723814E-05   1.3484168E-03
     10     -207.0337841004  -2.0300275E-04   6.3786222E-04
     11     -207.0338287914  -4.4691011E-05   1.2104806E-04
     12     -207.0338302214  -1.4300149E-06   5.8847477E-05
     13     -207.0338308736  -6.5215542E-07   4.1940562E-05
     14     -207.0338311835  -3.0990427E-07   2.4863584E-05
     15     -207.0338309697   2.1376749E-07   3.5229725E-05
     16     -207.0338311122  -1.4244611E-07   2.1233636E-05
     17     -207.0338311946  -8.2443108E-08   7.8712194E-06
------------------------------------------------------------

 total:                                  12.181 sec
 * total energy  :  -207.0338312 Eh     change       -0.5819320E-02 Eh
   gradient norm :     0.0485251 Eh/α   predicted    -0.7580570E-02 (  30.27%)
   displ. norm   :     0.5207173 α      lambda       -0.9738910E-02
   maximum displ.:     0.1697561 α      in ANC's #18, #14, #8, ...

........................................................................
.............................. CYCLE   20 ..............................
........................................................................
------------------------------------------------------------
  cycle        total energy    energy error   density error
------------------------------------------------------------
      1     -207.0333511938  -2.0933315E+02   4.5290324E-03
      2     -207.0132456648   2.0105529E-02   8.0307166E-03
      3     -206.9954097892   1.7835876E-02   1.0127091E-02
      4     -207.0307556857  -3.5345897E-02   3.3682814E-03
      5     -207.0331708953  -2.4152096E-03   1.8863166E-03
      6     -207.0331056795   6.5215754E-05   1.9967411E-03
      7     -207.0333312266  -2.2554708E-04   1.7923213E-03
      8     -207.0340496631  -7.1843653E-04   1.0515856E-03
      9     -207.0344058768  -3.5621370E-04   2.3354431E-04
     10     -207.0344224473  -1.6570499E-05   1.1794711E-04
     11     -207.0344234443  -9.9695072E-07   9.3595259E-05
     12     -207.0344258735  -2.4292606E-06   3.2989651E-05
     13     -207.0344262117  -3.3819046E-07   1.6136811E-05
------------------------------------------------------------

 total:                                  11.973 sec
 * total energy  :  -207.0344262 Eh     change       -0.5950171E-03 Eh
   gradient norm :     0.0857287 Eh/α   predicted    -0.6189796E-02 ( 940.27%)
   displ. norm   :     0.3949763 α      lambda       -0.1166038E-01
   maximum displ.:     0.1278702 α      in ANC's #23, #14, #8, ...
 * RMSD in coord.:     0.8994537 α      energy gain  -0.2129992E+01 Eh

generating ANC from exact Hessian ...
Using Lindh-Hessian (1995)
 Shifting diagonal of input Hessian by    9.9501363839609395E-003
 Lowest  eigenvalues of input Hessian
    0.000000    0.000000    0.000000    0.000000    0.000000    0.000000
    0.010000    0.010008    0.010087    0.010132    0.010207    0.010314
    0.010455    0.010465    0.010601    0.010697    0.010762    0.010991
 Highest eigenvalues
    2.610820    2.643644    2.648488    2.661022    2.662286    2.685316


........................................................................
.............................. CYCLE   21 ..............................
........................................................................
------------------------------------------------------------
  cycle        total energy    energy error   density error
------------------------------------------------------------
      1     -207.0388857579  -2.0932910E+02   3.8153708E-03
      2     -207.0018516439   3.7034114E-02   9.7188747E-03
      3     -207.0171396750  -1.5288031E-02   7.8883185E-03
      4     -207.0375090858  -2.0369411E-02   2.6798709E-03
      5     -207.0384989180  -9.8983230E-04   1.7712869E-03
      6     -207.0382761099   2.2280816E-04   2.1495443E-03
      7     -207.0379801576   2.9595229E-04   2.2722965E-03
      8     -207.0390680526  -1.0878950E-03   1.3839057E-03
      9     -207.0397501853  -6.8213272E-04   1.5012367E-04
     10     -207.0397431687   7.0165397E-06   2.3557801E-04
     11     -207.0397471904  -4.0216584E-06   1.8964389E-04
     12     -207.0397534104  -6.2199917E-06   1.1194695E-04
     13     -207.0397576460  -4.2355687E-06   1.2567497E-05
     14     -207.0397575848   6.1107187E-08   2.0793679E-05
     15     -207.0397575710   1.3875677E-08   1.9652772E-05
------------------------------------------------------------

 total:                                  13.974 sec
 * total energy  :  -207.0397576 Eh     change       -0.5331359E-02 Eh
   gradient norm :     0.0414053 Eh/α   predicted     0.0000000E+00 (-100.00%)
   displ. norm   :     0.3421550 α      lambda       -0.4685715E-02
   maximum displ.:     0.1335831 α      in ANC's #20, #8, #15, ...

........................................................................
.............................. CYCLE   22 ..............................
........................................................................
------------------------------------------------------------
  cycle        total energy    energy error   density error
------------------------------------------------------------
      1     -207.0431133288  -2.0933823E+02   2.1750274E-03
      2     -207.0150855608   2.8027768E-02   8.4844457E-03
      3     -207.0395546187  -2.4469058E-02   3.4196206E-03
      4     -207.0426278696  -3.0732509E-03   1.4376300E-03
      5     -207.0433736120  -7.4574233E-04   3.3622015E-04
      6     -207.0432679903   1.0562169E-04   6.7576871E-04
      7     -207.0431798856   8.8104653E-05   8.3520135E-04
      8     -207.0432823958  -1.0251013E-04   6.0063211E-04
      9     -207.0434068876  -1.2449186E-04   9.6406839E-05
     10     -207.0434104032  -3.5155703E-06   5.0156524E-05
     11     -207.0434103077   9.5512149E-08   4.8643928E-05
     12     -207.0434108332  -5.2552832E-07   2.1395938E-05
     13     -207.0434109666  -1.3337737E-07   7.4478340E-06
------------------------------------------------------------

 total:                                  11.422 sec
 * total energy  :  -207.0434110 Eh     change       -0.3653396E-02 Eh
   gradient norm :     0.0194955 Eh/α   predicted    -0.2618699E-02 ( -28.32%)
   displ. norm   :     0.5666074 α      lambda       -0.4060006E-02
   maximum displ.:     0.2290012 α      in ANC's #8, #20, #15, ...

........................................................................
.............................. CYCLE   23 ..............................
........................................................................
------------------------------------------------------------
  cycle        total energy    energy error   density error
------------------------------------------------------------
      1     -207.0462814144  -2.0934449E+02   2.7955556E-03
      2     -207.0315089687   1.4772446E-02   6.4047390E-03
      3     -207.0325360051  -1.0270364E-03   6.3338767E-03
      4     -207.0453539067  -1.2817902E-02   1.7689258E-03
      5     -207.0462312978  -8.7739108E-04   7.5254247E-04
      6     -207.0464140859  -1.8278817E-04   3.1520266E-04
      7     -207.0463881777   2.5908251E-05   4.1197137E-04
      8     -207.0464244878  -3.6310115E-05   2.3681078E-04
      9     -207.0464428091  -1.8321303E-05   6.7743688E-05
     10     -207.0464443159  -1.5067916E-06   1.7962663E-05
     11     -207.0464439974   3.1852812E-07   3.3456721E-05
     12     -207.0464442132  -2.1580220E-07   2.1335237E-05
     13     -207.0464443609  -1.4767568E-07   5.9997241E-06
------------------------------------------------------------

 total:                                   8.409 sec
 * total energy  :  -207.0464444 Eh     change       -0.3033394E-02 Eh
   gradient norm :     0.0127687 Eh/α   predicted    -0.2682239E-02 ( -11.58%)
   displ. norm   :     0.5931497 α      lambda       -0.2534718E-02
   maximum displ.:     0.2594128 α      in ANC's #8, #20, #15, ...

........................................................................
.............................. CYCLE   24 ..............................
........................................................................
------------------------------------------------------------
  cycle        total energy    energy error   density error
------------------------------------------------------------
      1     -207.0484619732  -2.0934581E+02   2.5498376E-03
      2     -207.0469536823   1.5082909E-03   2.4003076E-03
      3     -207.0207510347   2.6202648E-02   8.6262043E-03
      4     -207.0483848910  -2.7633856E-02   7.4422777E-04
      5     -207.0483537350   3.1155928E-05   6.9627045E-04
      6     -207.0484609171  -1.0718205E-04   3.9387531E-04
      7     -207.0485009899  -4.0072784E-05   1.7754196E-04
      8     -207.0485099477  -8.9578526E-06   6.6561581E-05
      9     -207.0485112517  -1.3040003E-06   2.8147105E-05
     10     -207.0485113829  -1.3120493E-07   1.5797440E-05
------------------------------------------------------------

 total:                                   7.167 sec
 * total energy  :  -207.0485114 Eh     change       -0.2067022E-02 Eh
   gradient norm :     0.0173106 Eh/α   predicted    -0.1713251E-02 ( -17.11%)
   displ. norm   :     0.6510162 α      lambda       -0.2338532E-02
   maximum displ.:     0.2977228 α      in ANC's #8, #20, #15, ...

........................................................................
.............................. CYCLE   25 ..............................
........................................................................
------------------------------------------------------------
  cycle        total energy    energy error   density error
------------------------------------------------------------
      1     -207.0503962211  -2.0934648E+02   2.6149895E-03
      2     -207.0441510484   6.2451727E-03   4.3362004E-03
      3     -207.0327268298   1.1424219E-02   7.0905736E-03
      4     -207.0500254307  -1.7298601E-02   1.2102077E-03
      5     -207.0502924260  -2.6699532E-04   7.5761375E-04
      6     -207.0504701140  -1.7768795E-04   2.2579096E-04
      7     -207.0504783112  -8.1971799E-06   1.5636394E-04
      8     -207.0504847896  -6.4784669E-06   7.2277536E-05
      9     -207.0504861242  -1.3346000E-06   3.0349914E-05
     10     -207.0504861815  -5.7314679E-08   2.4241737E-05
     11     -207.0504862658  -8.4229441E-08   1.4989630E-05
------------------------------------------------------------

 total:                                   9.183 sec
 * total energy  :  -207.0504863 Eh     change       -0.1974883E-02 Eh
   gradient norm :     0.0165739 Eh/α   predicted    -0.1664861E-02 ( -15.70%)
   displ. norm   :     0.6799817 α      lambda       -0.2281468E-02
   maximum displ.:     0.3252244 α      in ANC's #8, #20, #13, ...

........................................................................
.............................. CYCLE   26 ..............................
........................................................................
------------------------------------------------------------
  cycle        total energy    energy error   density error
------------------------------------------------------------
      1     -207.0523233553  -2.0934904E+02   2.6182795E-03
      2     -207.0494515549   2.8718004E-03   3.1959518E-03
      3     -207.0230340520   2.6417503E-02   8.7604621E-03
      4     -207.0507082248  -2.7674173E-02   2.1156095E-03
      5     -207.0521022240  -1.3939992E-03   9.1195029E-04
      6     -207.0522915934  -1.8936943E-04   6.4000268E-04
      7     -207.0522310937   6.0499706E-05   7.4804846E-04
      8     -207.0522954237  -6.4329966E-05   5.8687972E-04
      9     -207.0523988869  -1.0346326E-04   2.0266274E-04
     10     -207.0524144233  -1.5536383E-05   2.9044899E-05
     11     -207.0524138790   5.4427883E-07   4.8777192E-05
     12     -207.0524144508  -5.7177053E-07   1.8022635E-05
------------------------------------------------------------

 total:                                   8.757 sec
 * total energy  :  -207.0524145 Eh     change       -0.1928185E-02 Eh
   gradient norm :     0.0132452 Eh/α   predicted    -0.1668188E-02 ( -13.48%)
   displ. norm   :     0.6984475 α      lambda       -0.2042739E-02
   maximum displ.:     0.3469261 α      in ANC's #8, #2, #13, ...

........................................................................
.............................. CYCLE   27 ..............................
........................................................................
------------------------------------------------------------
  cycle        total energy    energy error   density error
------------------------------------------------------------
      1     -207.0539371529  -2.0935256E+02   2.7374848E-03
      2     -207.0429645867   1.0972566E-02   5.7596794E-03
      3     -207.0389167093   4.0478774E-03   6.5186120E-03
      4     -207.0523783767  -1.3461667E-02   2.1464796E-03
      5     -207.0538671595  -1.4887828E-03   8.7719589E-04
      6     -207.0540872918  -2.2013229E-04   3.7500244E-04
      7     -207.0540952013  -7.9094577E-06   3.2316453E-04
      8     -207.0541218617  -2.6660470E-05   1.4581793E-04
      9     -207.0541279245  -6.0627457E-06   4.5409319E-05
     10     -207.0541285059  -5.8142484E-07   1.6112514E-05
------------------------------------------------------------

 total:                                   9.171 sec
 * total energy  :  -207.0541285 Eh     change       -0.1714055E-02 Eh
   gradient norm :     0.0122008 Eh/α   predicted    -0.1519642E-02 ( -11.34%)
   displ. norm   :     0.7120447 α      lambda       -0.1713008E-02
   maximum displ.:     0.3643177 α      in ANC's #8, #2, #7, ...

........................................................................
.............................. CYCLE   28 ..............................
........................................................................
------------------------------------------------------------
  cycle        total energy    energy error   density error
------------------------------------------------------------
      1     -207.0554955028  -2.0935534E+02   2.6772666E-03
      2     -207.0552995501   1.9595269E-04   1.5764793E-03
      3     -207.0356607644   1.9638786E-02   7.3551350E-03
      4     -207.0532503843  -1.7589620E-02   2.5505573E-03
      5     -207.0553790337  -2.1286494E-03   8.0450752E-04
      6     -207.0555668868  -1.8785307E-04   2.6557119E-04
      7     -207.0555782813  -1.1394547E-05   1.5577985E-04
      8     -207.0555840498  -5.7684457E-06   5.0350682E-05
      9     -207.0555846243  -5.7453519E-07   1.9739874E-05
------------------------------------------------------------

 total:                                   6.449 sec
 * total energy  :  -207.0555846 Eh     change       -0.1456118E-02 Eh
   gradient norm :     0.0122984 Eh/α   predicted    -0.1290768E-02 ( -11.36%)
   displ. norm   :     0.7046734 α      lambda       -0.1529503E-02
   maximum displ.:     0.3700953 α      in ANC's #8, #2, #7, ...

........................................................................
.............................. CYCLE   29 ..............................
........................................................................
------------------------------------------------------------
  cycle        total energy    energy error   density error
------------------------------------------------------------
      1     -207.0568241969  -2.0935985E+02   2.5283628E-03
      2     -207.0558799081   9.4428879E-04   2.0618654E-03
      3     -207.0306226256   2.5257283E-02   8.4019466E-03
      4     -207.0561251673  -2.5502542E-02   1.4198316E-03
      5     -207.0567416878  -6.1652048E-04   7.2428100E-04
      6     -207.0568644816  -1.2279379E-04   3.4437806E-04
      7     -207.0568918939  -2.7412288E-05   1.5706524E-04
      8     -207.0568984800  -6.5860675E-06   5.9228023E-05
      9     -207.0568994070  -9.2707884E-07   2.5495158E-05
     10     -207.0568994827  -7.5653048E-08   1.7314244E-05
------------------------------------------------------------

 total:                                   6.955 sec
 * total energy  :  -207.0568995 Eh     change       -0.1314858E-02 Eh
   gradient norm :     0.0113040 Eh/α   predicted    -0.1144519E-02 ( -12.95%)
   displ. norm   :     0.7361764 α      lambda       -0.1475880E-02
   maximum displ.:     0.3841894 α      in ANC's #8, #2, #7, ...

........................................................................
.............................. CYCLE   30 ..............................
........................................................................
------------------------------------------------------------
  cycle        total energy    energy error   density error
------------------------------------------------------------
      1     -207.0580285894  -2.0936075E+02   2.5620361E-03
      2     -207.0426308971   1.5397692E-02   6.5995751E-03
      3     -207.0494055190  -6.7746219E-03   5.0995638E-03
      4     -207.0572297852  -7.8242662E-03   1.5660307E-03
      5     -207.0580706408  -8.4085555E-04   6.2301566E-04
      6     -207.0581683981  -9.7757292E-05   3.1571895E-04
      7     -207.0581579214   1.0476702E-05   3.3638495E-04
      8     -207.0581846997  -2.6778383E-05   1.7704542E-04
      9     -207.0581949955  -1.0295752E-05   3.2538212E-05
     10     -207.0581952530  -2.5753639E-07   1.2519624E-05
------------------------------------------------------------

 total:                                   6.312 sec
 * total energy  :  -207.0581953 Eh     change       -0.1295770E-02 Eh
   gradient norm :     0.0123034 Eh/α   predicted    -0.1137876E-02 ( -12.19%)
   displ. norm   :     0.7585541 α      lambda       -0.1697304E-02
   maximum displ.:     0.3761709 α      in ANC's #8, #7, #2, ...

........................................................................
.............................. CYCLE   31 ..............................
........................................................................
------------------------------------------------------------
  cycle        total energy    energy error   density error
------------------------------------------------------------
      1     -207.0593481654  -2.0937023E+02   2.6348748E-03
      2     -207.0408225080   1.8525657E-02   7.2090887E-03
      3     -207.0520852185  -1.1262710E-02   4.7244894E-03
      4     -207.0587851734  -6.6999550E-03   1.3648692E-03
      5     -207.0594415318  -6.5635842E-04   5.2195361E-04
      6     -207.0594824985  -4.0966648E-05   4.1281665E-04
      7     -207.0594546895   2.7808993E-05   4.7800377E-04
      8     -207.0595080401  -5.3350583E-05   2.6230800E-04
      9     -207.0595299454  -2.1905301E-05   6.6763614E-05
     10     -207.0595313135  -1.3681698E-06   1.6322211E-05
     11     -207.0595312908   2.2774231E-08   1.4612686E-05
------------------------------------------------------------

 total:                                   7.816 sec
 * total energy  :  -207.0595313 Eh     change       -0.1336038E-02 Eh
   gradient norm :     0.0150514 Eh/α   predicted    -0.1336971E-02 (   0.07%)
   displ. norm   :     0.7828040 α      lambda       -0.1663639E-02
   maximum displ.:     0.3749367 α      in ANC's #8, #7, #2, ...

........................................................................
.............................. CYCLE   32 ..............................
........................................................................
------------------------------------------------------------
  cycle        total energy    energy error   density error
------------------------------------------------------------
      1     -207.0608727186  -2.0936453E+02   2.6064625E-03
      2     -207.0587118090   2.1609096E-03   2.8105729E-03
      3     -207.0375514895   2.1160320E-02   8.0184836E-03
      4     -207.0606022078  -2.3050718E-02   9.7834379E-04
      5     -207.0607453356  -1.4312781E-04   7.5291934E-04
      6     -207.0608540951  -1.0875945E-04   4.5238062E-04
      7     -207.0609124723  -5.8377284E-05   1.7754461E-04
      8     -207.0609208344  -8.3620352E-06   6.3286988E-05
      9     -207.0609217486  -9.1419642E-07   2.7177652E-05
     10     -207.0609218511  -1.0248695E-07   1.5500330E-05
------------------------------------------------------------

 total:                                   8.302 sec
 * total energy  :  -207.0609219 Eh     change       -0.1390560E-02 Eh
   gradient norm :     0.0137683 Eh/α   predicted    -0.1341544E-02 (  -3.52%)
   displ. norm   :     0.7379629 α      lambda       -0.1490861E-02
   maximum displ.:     0.3120110 α      in ANC's #8, #7, #2, ...

........................................................................
.............................. CYCLE   33 ..............................
........................................................................
------------------------------------------------------------
  cycle        total energy    energy error   density error
------------------------------------------------------------
      1     -207.0621207681  -2.0936477E+02   2.4734769E-03
      2     -207.0518548405   1.0265928E-02   5.4623649E-03
      3     -207.0524197226  -5.6488206E-04   5.3701891E-03
      4     -207.0617904985  -9.3707759E-03   1.1401992E-03
      5     -207.0620974585  -3.0696001E-04   6.1890405E-04
      6     -207.0622122807  -1.1482219E-04   1.8988176E-04
      7     -207.0622034431   8.8376506E-06   2.2814192E-04
      8     -207.0622139069  -1.0463822E-05   1.4561087E-04
      9     -207.0622213963  -7.4893912E-06   2.6171203E-05
     10     -207.0622213921   4.2385579E-09   2.2877329E-05
     11     -207.0622214264  -3.4306197E-08   1.7940335E-05
------------------------------------------------------------

 total:                                   9.815 sec
 * total energy  :  -207.0622214 Eh     change       -0.1299575E-02 Eh
   gradient norm :     0.0123832 Eh/α   predicted    -0.1151384E-02 ( -11.40%)
   displ. norm   :     0.7526303 α      lambda       -0.1528787E-02
   maximum displ.:     0.3001107 α      in ANC's #7, #8, #2, ...

........................................................................
.............................. CYCLE   34 ..............................
........................................................................
------------------------------------------------------------
  cycle        total energy    energy error   density error
------------------------------------------------------------
      1     -207.0634194060  -2.0936438E+02   2.4984270E-03
      2     -207.0618022388   1.6171672E-03   2.5646341E-03
      3     -207.0311151474   3.0687091E-02   9.1305226E-03
      4     -207.0624872569  -3.1372109E-02   1.6392718E-03
      5     -207.0632961230  -8.0886611E-04   6.6611621E-04
      6     -207.0634079002  -1.1177724E-04   4.5363078E-04
      7     -207.0633170105   9.0889773E-05   6.8170408E-04
      8     -207.0633237187  -6.7082056E-06   6.4505053E-04
      9     -207.0634459288  -1.2221009E-04   2.3540553E-04
     10     -207.0634666000  -2.0671185E-05   4.5091204E-05
     11     -207.0634660241   5.7584205E-07   5.8664505E-05
     12     -207.0634666387  -6.1455296E-07   2.9655366E-05
     13     -207.0634668818  -2.4318362E-07   1.5089473E-05
------------------------------------------------------------

 total:                                   9.985 sec
 * total energy  :  -207.0634669 Eh     change       -0.1245455E-02 Eh
   gradient norm :     0.0122636 Eh/α   predicted    -0.1197396E-02 (  -3.86%)
   displ. norm   :     0.7364381 α      lambda       -0.1429349E-02
   maximum displ.:     0.2945848 α      in ANC's #7, #2, #8, ...

........................................................................
.............................. CYCLE   35 ..............................
........................................................................
------------------------------------------------------------
  cycle        total energy    energy error   density error
------------------------------------------------------------
[...]
   
energy threshhold for near-degenerate orbitals near HOMO and LUMO considered for DIPRO:  0.300 eV
no. of orbitals within energy window of frag 1        10
no. of orbitals within energy window of frag 2         8
   
  Fragment 1 SOMO-7  Fragment 2 SOMO-5
--------------------------------------
E_mon(orb) frag1 frag2             -11.056   -10.916 eV
J(AB):               -0.003 eV
S(AB):             0.00008804 Eh
|J(AB,eff)|:            0.002 eV
   
  Fragment 1 SOMO-7  Fragment 2 SOMO-4
--------------------------------------
E_mon(orb) frag1 frag2             -11.056   -10.978 eV
J(AB):                0.020 eV
S(AB):            -0.00088726 Eh
|J(AB,eff)|:            0.010 eV
   
  Fragment 1 SOMO-7  Fragment 2 SOMO-3
--------------------------------------
E_mon(orb) frag1 frag2             -11.056   -10.864 eV
J(AB):                0.011 eV
S(AB):            -0.00042929 Eh
|J(AB,eff)|:            0.006 eV
   
  Fragment 1 SOMO-7  Fragment 2 SOMO-2
--------------------------------------
E_mon(orb) frag1 frag2             -11.056   -10.865 eV
J(AB):               -0.015 eV
S(AB):             0.00076619 Eh
|J(AB,eff)|:            0.007 eV
   
  Fragment 1 SOMO-7  Fragment 2 SOMO-1
--------------------------------------
E_mon(orb) frag1 frag2             -11.056   -10.856 eV
J(AB):                0.027 eV
S(AB):            -0.00105446 Eh
|J(AB,eff)|:            0.015 eV
   
  Fragment 1 SOMO-7  Fragment 2 SOMO 
--------------------------------------
E_mon(orb) frag1 frag2             -11.056   -10.806 eV
J(AB):                0.025 eV
S(AB):            -0.00108008 Eh
|J(AB,eff)|:            0.013 eV
   
  Fragment 1 SOMO-7  Fragment 2 LUMO 
--------------------------------------
E_mon(orb) frag1 frag2             -11.056   -10.534 eV
J(AB):                0.002 eV
S(AB):            -0.00017362 Eh
|J(AB,eff)|:            0.001 eV
   
  Fragment 1 SOMO-7  Fragment 2 LUMO+1
--------------------------------------
E_mon(orb) frag1 frag2             -11.056   -10.478 eV
J(AB):               -0.001 eV
S(AB):            -0.00004732 Eh
|J(AB,eff)|:            0.001 eV
   
  Fragment 1 SOMO-6  Fragment 2 SOMO-5
--------------------------------------
E_mon(orb) frag1 frag2             -11.122   -10.916 eV
J(AB):                0.021 eV
S(AB):            -0.00090709 Eh
|J(AB,eff)|:            0.011 eV
   
  Fragment 1 SOMO-6  Fragment 2 SOMO-4
--------------------------------------
E_mon(orb) frag1 frag2             -11.122   -10.978 eV
J(AB):               -0.088 eV
S(AB):             0.00403595 Eh
|J(AB,eff)|:            0.043 eV
   
  Fragment 1 SOMO-6  Fragment 2 SOMO-3
--------------------------------------
E_mon(orb) frag1 frag2             -11.122   -10.864 eV
J(AB):                0.034 eV
S(AB):            -0.00154745 Eh
|J(AB,eff)|:            0.017 eV
   
  Fragment 1 SOMO-6  Fragment 2 SOMO-2
--------------------------------------
E_mon(orb) frag1 frag2             -11.122   -10.865 eV
J(AB):               -0.011 eV
S(AB):             0.00036703 Eh
|J(AB,eff)|:            0.006 eV
   
  Fragment 1 SOMO-6  Fragment 2 SOMO-1
--------------------------------------
E_mon(orb) frag1 frag2             -11.122   -10.856 eV
J(AB):                0.010 eV
S(AB):            -0.00041676 Eh
|J(AB,eff)|:            0.005 eV
   
  Fragment 1 SOMO-6  Fragment 2 SOMO 
--------------------------------------
E_mon(orb) frag1 frag2             -11.122   -10.806 eV
J(AB):               -0.018 eV
S(AB):             0.00070654 Eh
|J(AB,eff)|:            0.010 eV
   
  Fragment 1 SOMO-6  Fragment 2 LUMO 
--------------------------------------
E_mon(orb) frag1 frag2             -11.122   -10.534 eV
J(AB):               -0.033 eV
S(AB):             0.00149236 Eh
|J(AB,eff)|:            0.017 eV
   
  Fragment 1 SOMO-6  Fragment 2 LUMO+1
--------------------------------------
E_mon(orb) frag1 frag2             -11.122   -10.478 eV
J(AB):               -0.034 eV
S(AB):             0.00152460 Eh
|J(AB,eff)|:            0.017 eV
   
  Fragment 1 SOMO-5  Fragment 2 SOMO-5
--------------------------------------
E_mon(orb) frag1 frag2             -10.998   -10.916 eV
J(AB):                0.009 eV
S(AB):            -0.00041700 Eh
|J(AB,eff)|:            0.005 eV
   
  Fragment 1 SOMO-5  Fragment 2 SOMO-4
--------------------------------------
E_mon(orb) frag1 frag2             -10.998   -10.978 eV
J(AB):                0.011 eV
S(AB):            -0.00053176 Eh
|J(AB,eff)|:            0.005 eV
   
  Fragment 1 SOMO-5  Fragment 2 SOMO-3
--------------------------------------
E_mon(orb) frag1 frag2             -10.998   -10.864 eV
J(AB):               -0.018 eV
S(AB):             0.00060798 Eh
|J(AB,eff)|:            0.011 eV
   
  Fragment 1 SOMO-5  Fragment 2 SOMO-2
--------------------------------------
E_mon(orb) frag1 frag2             -10.998   -10.865 eV
J(AB):               -0.047 eV
S(AB):             0.00216517 Eh
|J(AB,eff)|:            0.024 eV
   
  Fragment 1 SOMO-5  Fragment 2 SOMO-1
--------------------------------------
E_mon(orb) frag1 frag2             -10.998   -10.856 eV
J(AB):               -0.026 eV
S(AB):             0.00105333 Eh
|J(AB,eff)|:            0.014 eV
   
  Fragment 1 SOMO-5  Fragment 2 SOMO 
--------------------------------------
E_mon(orb) frag1 frag2             -10.998   -10.806 eV
J(AB):                0.020 eV
S(AB):            -0.00092838 Eh
|J(AB,eff)|:            0.010 eV
   
  Fragment 1 SOMO-5  Fragment 2 LUMO 
--------------------------------------
E_mon(orb) frag1 frag2             -10.998   -10.534 eV
J(AB):               -0.006 eV
S(AB):             0.00026735 Eh
|J(AB,eff)|:            0.003 eV
   
  Fragment 1 SOMO-5  Fragment 2 LUMO+1
--------------------------------------
E_mon(orb) frag1 frag2             -10.998   -10.478 eV
J(AB):                0.008 eV
S(AB):            -0.00033189 Eh
|J(AB,eff)|:            0.004 eV
   
  Fragment 1 SOMO-4  Fragment 2 SOMO-5
--------------------------------------
E_mon(orb) frag1 frag2             -10.924   -10.916 eV
J(AB):                0.000 eV
S(AB):            -0.00017019 Eh
|J(AB,eff)|:            0.002 eV
   
  Fragment 1 SOMO-4  Fragment 2 SOMO-4
--------------------------------------
E_mon(orb) frag1 frag2             -10.924   -10.978 eV
J(AB):                0.024 eV
S(AB):            -0.00095809 Eh
|J(AB,eff)|:            0.013 eV
   
  Fragment 1 SOMO-4  Fragment 2 SOMO-3
--------------------------------------
E_mon(orb) frag1 frag2             -10.924   -10.864 eV
J(AB):                0.056 eV
S(AB):            -0.00262347 Eh
|J(AB,eff)|:            0.027 eV
   
  Fragment 1 SOMO-4  Fragment 2 SOMO-2
--------------------------------------
E_mon(orb) frag1 frag2             -10.924   -10.865 eV
J(AB):               -0.112 eV
S(AB):             0.00531499 Eh
|J(AB,eff)|:            0.054 eV
   
  Fragment 1 SOMO-4  Fragment 2 SOMO-1
--------------------------------------
E_mon(orb) frag1 frag2             -10.924   -10.856 eV
J(AB):               -0.002 eV
S(AB):             0.00012679 Eh
|J(AB,eff)|:            0.001 eV
   
  Fragment 1 SOMO-4  Fragment 2 SOMO 
--------------------------------------
E_mon(orb) frag1 frag2             -10.924   -10.806 eV
J(AB):                0.109 eV
S(AB):            -0.00492444 Eh
|J(AB,eff)|:            0.056 eV
   
  Fragment 1 SOMO-4  Fragment 2 LUMO 
--------------------------------------
E_mon(orb) frag1 frag2             -10.924   -10.534 eV
J(AB):               -0.018 eV
S(AB):             0.00072522 Eh
|J(AB,eff)|:            0.010 eV
   
  Fragment 1 SOMO-4  Fragment 2 LUMO+1
--------------------------------------
E_mon(orb) frag1 frag2             -10.924   -10.478 eV
J(AB):               -0.025 eV
S(AB):             0.00104430 Eh
|J(AB,eff)|:            0.014 eV
   
  Fragment 1 SOMO-3  Fragment 2 SOMO-5
--------------------------------------
E_mon(orb) frag1 frag2             -10.867   -10.916 eV
J(AB):                0.004 eV
S(AB):            -0.00011339 Eh
|J(AB,eff)|:            0.003 eV
   
  Fragment 1 SOMO-3  Fragment 2 SOMO-4
--------------------------------------
E_mon(orb) frag1 frag2             -10.867   -10.978 eV
J(AB):               -0.063 eV
S(AB):             0.00275281 Eh
|J(AB,eff)|:            0.033 eV
   
  Fragment 1 SOMO-3  Fragment 2 SOMO-3
--------------------------------------
E_mon(orb) frag1 frag2             -10.867   -10.864 eV
J(AB):               -0.010 eV
S(AB):             0.00040423 Eh
|J(AB,eff)|:            0.005 eV
   
  Fragment 1 SOMO-3  Fragment 2 SOMO-2
--------------------------------------
E_mon(orb) frag1 frag2             -10.867   -10.865 eV
J(AB):                0.037 eV
S(AB):            -0.00185096 Eh
|J(AB,eff)|:            0.017 eV
   
  Fragment 1 SOMO-3  Fragment 2 SOMO-1
--------------------------------------
E_mon(orb) frag1 frag2             -10.867   -10.856 eV
J(AB):               -0.025 eV
S(AB):             0.00093402 Eh
|J(AB,eff)|:            0.015 eV
   
  Fragment 1 SOMO-3  Fragment 2 SOMO 
--------------------------------------
E_mon(orb) frag1 frag2             -10.867   -10.806 eV
J(AB):               -0.054 eV
S(AB):             0.00231571 Eh
|J(AB,eff)|:            0.029 eV
   
  Fragment 1 SOMO-3  Fragment 2 LUMO 
--------------------------------------
E_mon(orb) frag1 frag2             -10.867   -10.534 eV
J(AB):               -0.013 eV
S(AB):             0.00060239 Eh
|J(AB,eff)|:            0.006 eV
   
  Fragment 1 SOMO-3  Fragment 2 LUMO+1
--------------------------------------
E_mon(orb) frag1 frag2             -10.867   -10.478 eV
J(AB):               -0.012 eV
S(AB):             0.00058923 Eh
|J(AB,eff)|:            0.006 eV
   
  Fragment 1 SOMO-2  Fragment 2 SOMO-5
--------------------------------------
E_mon(orb) frag1 frag2             -10.963   -10.916 eV
J(AB):               -0.008 eV
S(AB):             0.00026038 Eh
|J(AB,eff)|:            0.006 eV
   
  Fragment 1 SOMO-2  Fragment 2 SOMO-4
--------------------------------------
E_mon(orb) frag1 frag2             -10.963   -10.978 eV
J(AB):                0.009 eV
S(AB):            -0.00035174 Eh
|J(AB,eff)|:            0.005 eV
   
  Fragment 1 SOMO-2  Fragment 2 SOMO-3
--------------------------------------
E_mon(orb) frag1 frag2             -10.963   -10.864 eV
J(AB):                0.017 eV
S(AB):            -0.00071617 Eh
|J(AB,eff)|:            0.009 eV
   
  Fragment 1 SOMO-2  Fragment 2 SOMO-2
--------------------------------------
E_mon(orb) frag1 frag2             -10.963   -10.865 eV
J(AB):               -0.012 eV
S(AB):             0.00052650 Eh
|J(AB,eff)|:            0.006 eV
   
  Fragment 1 SOMO-2  Fragment 2 SOMO-1
--------------------------------------
E_mon(orb) frag1 frag2             -10.963   -10.856 eV
J(AB):               -0.021 eV
S(AB):             0.00080612 Eh
|J(AB,eff)|:            0.012 eV
   
  Fragment 1 SOMO-2  Fragment 2 SOMO 
--------------------------------------
E_mon(orb) frag1 frag2             -10.963   -10.806 eV
J(AB):                0.000 eV
S(AB):            -0.00011211 Eh
|J(AB,eff)|:            0.001 eV
   
  Fragment 1 SOMO-2  Fragment 2 LUMO 
--------------------------------------
E_mon(orb) frag1 frag2             -10.963   -10.534 eV
J(AB):               -0.002 eV
S(AB):             0.00008223 Eh
|J(AB,eff)|:            0.001 eV
   
  Fragment 1 SOMO-2  Fragment 2 LUMO+1
--------------------------------------
E_mon(orb) frag1 frag2             -10.963   -10.478 eV
J(AB):                0.003 eV
S(AB):            -0.00011102 Eh
|J(AB,eff)|:            0.001 eV
   
  Fragment 1 SOMO-1  Fragment 2 SOMO-5
--------------------------------------
E_mon(orb) frag1 frag2             -10.772   -10.916 eV
J(AB):                0.008 eV
S(AB):            -0.00029413 Eh
|J(AB,eff)|:            0.005 eV
   
  Fragment 1 SOMO-1  Fragment 2 SOMO-4
--------------------------------------
E_mon(orb) frag1 frag2             -10.772   -10.978 eV
J(AB):               -0.020 eV
S(AB):             0.00091801 Eh
|J(AB,eff)|:            0.010 eV
   
  Fragment 1 SOMO-1  Fragment 2 SOMO-3
--------------------------------------
E_mon(orb) frag1 frag2             -10.772   -10.864 eV
J(AB):               -0.001 eV
S(AB):             0.00009225 Eh
|J(AB,eff)|:            0.000 eV
   
  Fragment 1 SOMO-1  Fragment 2 SOMO-2
--------------------------------------
E_mon(orb) frag1 frag2             -10.772   -10.865 eV
J(AB):                0.047 eV
S(AB):            -0.00216913 Eh
|J(AB,eff)|:            0.023 eV
   
  Fragment 1 SOMO-1  Fragment 2 SOMO-1
--------------------------------------
E_mon(orb) frag1 frag2             -10.772   -10.856 eV
J(AB):                0.021 eV
S(AB):            -0.00089289 Eh
|J(AB,eff)|:            0.011 eV
   
  Fragment 1 SOMO-1  Fragment 2 SOMO 
--------------------------------------
E_mon(orb) frag1 frag2             -10.772   -10.806 eV
J(AB):               -0.044 eV
S(AB):             0.00201923 Eh
|J(AB,eff)|:            0.022 eV
   
  Fragment 1 SOMO-1  Fragment 2 LUMO 
--------------------------------------
E_mon(orb) frag1 frag2             -10.772   -10.534 eV
J(AB):                0.007 eV
S(AB):            -0.00021495 Eh
|J(AB,eff)|:            0.005 eV
   
  Fragment 1 SOMO-1  Fragment 2 LUMO+1
--------------------------------------
E_mon(orb) frag1 frag2             -10.772   -10.478 eV
J(AB):               -0.007 eV
S(AB):             0.00040370 Eh
|J(AB,eff)|:            0.003 eV
   
  Fragment 1 SOMO   Fragment 2 SOMO-5
--------------------------------------
E_mon(orb) frag1 frag2             -10.769   -10.916 eV
J(AB):                0.009 eV
S(AB):            -0.00036002 Eh
|J(AB,eff)|:            0.005 eV
   
  Fragment 1 SOMO   Fragment 2 SOMO-4
--------------------------------------
E_mon(orb) frag1 frag2             -10.769   -10.978 eV
J(AB):               -0.038 eV
S(AB):             0.00180549 Eh
|J(AB,eff)|:            0.019 eV
   
  Fragment 1 SOMO   Fragment 2 SOMO-3
--------------------------------------
E_mon(orb) frag1 frag2             -10.769   -10.864 eV
J(AB):                0.017 eV
S(AB):            -0.00054739 Eh
|J(AB,eff)|:            0.011 eV
   
  Fragment 1 SOMO   Fragment 2 SOMO-2
--------------------------------------
E_mon(orb) frag1 frag2             -10.769   -10.865 eV
J(AB):                0.047 eV
S(AB):            -0.00222303 Eh
|J(AB,eff)|:            0.023 eV
   
  Fragment 1 SOMO   Fragment 2 SOMO-1
--------------------------------------
E_mon(orb) frag1 frag2             -10.769   -10.856 eV
J(AB):                0.042 eV
S(AB):            -0.00167311 Eh
|J(AB,eff)|:            0.024 eV
   
  Fragment 1 SOMO   Fragment 2 SOMO 
--------------------------------------
E_mon(orb) frag1 frag2             -10.769   -10.806 eV
J(AB):               -0.056 eV
S(AB):             0.00251105 Eh
|J(AB,eff)|:            0.029 eV
   
  Fragment 1 SOMO   Fragment 2 LUMO 
--------------------------------------
E_mon(orb) frag1 frag2             -10.769   -10.534 eV
J(AB):               -0.018 eV
S(AB):             0.00089985 Eh
|J(AB,eff)|:            0.009 eV
   
  Fragment 1 SOMO   Fragment 2 LUMO+1
--------------------------------------
E_mon(orb) frag1 frag2             -10.769   -10.478 eV
J(AB):               -0.002 eV
S(AB):             0.00017467 Eh
|J(AB,eff)|:            0.001 eV
   
  Fragment 1 LUMO   Fragment 2 SOMO-5
--------------------------------------
E_mon(orb) frag1 frag2             -10.520   -10.916 eV
J(AB):                0.005 eV
S(AB):            -0.00013152 Eh
|J(AB,eff)|:            0.003 eV
   
  Fragment 1 LUMO   Fragment 2 SOMO-4
--------------------------------------
E_mon(orb) frag1 frag2             -10.520   -10.978 eV
J(AB):                0.010 eV
S(AB):            -0.00038746 Eh
|J(AB,eff)|:            0.006 eV
   
  Fragment 1 LUMO   Fragment 2 SOMO-3
--------------------------------------
E_mon(orb) frag1 frag2             -10.520   -10.864 eV
J(AB):                0.010 eV
S(AB):            -0.00039222 Eh
|J(AB,eff)|:            0.006 eV
   
  Fragment 1 LUMO   Fragment 2 SOMO-2
--------------------------------------
E_mon(orb) frag1 frag2             -10.520   -10.865 eV
J(AB):               -0.007 eV
S(AB):             0.00018715 Eh
|J(AB,eff)|:            0.005 eV
   
  Fragment 1 LUMO   Fragment 2 SOMO-1
--------------------------------------
E_mon(orb) frag1 frag2             -10.520   -10.856 eV
J(AB):               -0.011 eV
S(AB):             0.00040824 Eh
|J(AB,eff)|:            0.006 eV
   
  Fragment 1 LUMO   Fragment 2 SOMO 
--------------------------------------
E_mon(orb) frag1 frag2             -10.520   -10.806 eV
J(AB):               -0.046 eV
S(AB):             0.00194396 Eh
|J(AB,eff)|:            0.025 eV
   
  Fragment 1 LUMO   Fragment 2 LUMO 
--------------------------------------
E_mon(orb) frag1 frag2             -10.520   -10.534 eV
J(AB):                0.010 eV
S(AB):            -0.00039822 Eh
|J(AB,eff)|:            0.005 eV
   
  Fragment 1 LUMO   Fragment 2 LUMO+1
--------------------------------------
E_mon(orb) frag1 frag2             -10.520   -10.478 eV
J(AB):               -0.005 eV
S(AB):             0.00028882 Eh
|J(AB,eff)|:            0.002 eV
   
  Fragment 1 LUMO+1  Fragment 2 SOMO-5
--------------------------------------
E_mon(orb) frag1 frag2             -10.478   -10.916 eV
J(AB):               -0.002 eV
S(AB):             0.00009158 Eh
|J(AB,eff)|:            0.001 eV
   
  Fragment 1 LUMO+1  Fragment 2 SOMO-4
--------------------------------------
E_mon(orb) frag1 frag2             -10.478   -10.978 eV
J(AB):                0.006 eV
S(AB):            -0.00029719 Eh
|J(AB,eff)|:            0.003 eV
   
  Fragment 1 LUMO+1  Fragment 2 SOMO-3
--------------------------------------
E_mon(orb) frag1 frag2             -10.478   -10.864 eV
J(AB):                0.019 eV
S(AB):            -0.00082204 Eh
|J(AB,eff)|:            0.010 eV
   
  Fragment 1 LUMO+1  Fragment 2 SOMO-2
--------------------------------------
E_mon(orb) frag1 frag2             -10.478   -10.865 eV
J(AB):               -0.029 eV
S(AB):             0.00127721 Eh
|J(AB,eff)|:            0.015 eV
   
  Fragment 1 LUMO+1  Fragment 2 SOMO-1
--------------------------------------
E_mon(orb) frag1 frag2             -10.478   -10.856 eV
J(AB):               -0.016 eV
S(AB):             0.00063466 Eh
|J(AB,eff)|:            0.009 eV
   
  Fragment 1 LUMO+1  Fragment 2 SOMO 
--------------------------------------
E_mon(orb) frag1 frag2             -10.478   -10.806 eV
J(AB):                0.001 eV
S(AB):            -0.00007696 Eh
|J(AB,eff)|:            0.000 eV
   
  Fragment 1 LUMO+1  Fragment 2 LUMO 
--------------------------------------
E_mon(orb) frag1 frag2             -10.478   -10.534 eV
J(AB):                0.004 eV
S(AB):            -0.00026940 Eh
|J(AB,eff)|:            0.002 eV
   
  Fragment 1 LUMO+1  Fragment 2 LUMO+1
--------------------------------------
E_mon(orb) frag1 frag2             -10.478   -10.478 eV
J(AB):               -0.008 eV
S(AB):             0.00032686 Eh
|J(AB,eff)|:            0.005 eV
   
..............................................................................
:  total |J(AB,eff)| for hole transport (occ. MOs) :               0.132 eV  :
:  total |J(AB,eff)| for charge transport (unocc. MOs) :           0.008 eV  :
:  total |J(AB,eff)| for charge transfer (CT) :                    0.048 eV  :
..............................................................................
  
 Please remember, DIPRO is not available for restart!
   
normal termination of dipro
----------------------------------------------------------
 * finished run on 2025/03/21 at 12:10:33.014     
----------------------------------------------------------
 dipro:
 * wall-time:     0 d,  0 h,  1 min, 22.906 sec
 *  cpu-time:     0 d,  0 h,  3 min, 28.426 sec
 * ratio c/w:     2.514 speedup
Reorganization energy (electron): 0.18372101771905752 eV
Reorganization energy (hole): 0.16750643266317855 eV
Electron Transfer integral J: 0.008 eV
Hole Transfer integral J: 0.132 eV
