202
 energy: -35.661169708343 gnorm: 4.308149629433 xtb: 6.7.1 (edcfbbe)
C           -0.37790000000000        3.84510000000000        1.85260000000000
C            0.23650000000000        2.60070000000000        1.77590000000000
C            1.56300000000000        2.50430000000000        1.28880000000000
C            2.21600000000000        3.73500000000000        0.91020000000000
C            1.47210000000000        4.93810000000000        0.80750000000000
C            0.19970000000000        4.98060000000000        1.29200000000000
C            2.35420000000000        1.30850000000000        1.29140000000000
C            3.75240000000000        1.51910000000000        1.27980000000000
C            4.29360000000000        2.79560000000000        0.94790000000000
N            3.51900000000000        3.84330000000000        0.68890000000000
C            1.92690000000000       -0.06840000000000        1.31750000000000
C            2.92000000000000       -1.02510000000000        1.75100000000000
N            4.19890000000000       -0.73970000000000        1.95770000000000
C            4.64730000000000        0.46390000000000        1.61450000000000
C            6.03900000000000        0.69430000000000        1.61450000000000
C            6.53460000000000        1.91870000000000        1.21490000000000
C            5.69420000000000        2.95430000000000        0.86880000000000
C            0.71670000000000       -0.60370000000000        0.79770000000000
C            0.57160000000000       -1.99580000000000        0.70570000000000
C            1.47380000000000       -2.88350000000000        1.27520000000000
C            2.61450000000000       -2.40580000000000        1.85160000000000
O           -0.45700000000000        1.53360000000000        2.18100000000000
O           -0.26840000000000        0.12320000000000        0.26620000000000
S           -0.88140000000000        6.44280000000000        0.98610000000000
S            1.34920000000000       -4.71530000000000        1.21110000000000
S            8.36570000000000        2.18490000000000        1.20110000000000
C           -2.08550000000000       -2.23970000000000        1.92900000000000
C           -2.56280000000000       -1.11410000000000        1.26120000000000
C           -3.34740000000000       -1.25700000000000        0.08310000000000
C           -3.49900000000000       -2.60300000000000       -0.41900000000000
C           -2.95860000000000       -3.71350000000000        0.27490000000000
C           -2.29160000000000       -3.52530000000000        1.44740000000000
C           -4.09610000000000       -0.22180000000000       -0.58050000000000
C           -4.97260000000000       -0.65960000000000       -1.60150000000000
C           -4.88870000000000       -1.98340000000000       -2.12220000000000
N           -4.15340000000000       -2.91580000000000       -1.53360000000000
C           -4.19340000000000        1.18250000000000       -0.25240000000000
C           -5.46320000000000        1.80260000000000       -0.57840000000000
N           -6.30320000000000        1.32490000000000       -1.48340000000000
C           -5.99560000000000        0.19330000000000       -2.10850000000000
C           -6.76050000000000       -0.20870000000000       -3.22100000000000
C           -6.54460000000000       -1.44220000000000       -3.80130000000000
C           -5.64370000000000       -2.33610000000000       -3.26500000000000
C           -3.19420000000000        2.06170000000000        0.25060000000000
C           -3.58150000000000        3.32420000000000        0.70470000000000
C           -4.89480000000000        3.77660000000000        0.65150000000000
C           -5.83500000000000        3.04800000000000       -0.01110000000000
O           -2.23220000000000        0.06420000000000        1.78850000000000
O           -1.88470000000000        1.81250000000000        0.21490000000000
S           -1.51620000000000       -4.94810000000000        2.28790000000000
S           -5.33760000000000        5.35100000000000        1.50520000000000
S           -7.54480000000000       -1.95170000000000       -5.27110000000000
B           -1.22170000000000        0.87540000000000        1.11060000000000
O            8.51410000000000        3.47890000000000        0.57270000000000
O            8.50290000000000        2.39320000000000        2.85080000000000
C            8.11320000000000        3.63990000000000        3.36890000000000
O           -0.14260000000000       -4.82800000000000        0.39350000000000
C           -0.11600000000000       -5.17230000000000       -0.97020000000000
O            2.34940000000000       -5.02920000000000        0.20280000000000
O           -0.34470000000000       -4.35370000000000        2.92960000000000
O           -2.66060000000000       -5.11900000000000        3.48340000000000
C           -2.67010000000000       -4.20530000000000        4.55260000000000
O           -8.31440000000000       -0.76730000000000       -5.58270000000000
O           -8.53270000000000       -3.00760000000000       -4.43900000000000
C           -9.56060000000000       -2.44030000000000       -3.66670000000000
O           -6.63620000000000        5.68250000000000        0.95610000000000
O           -4.19460000000000        6.32560000000000        0.79070000000000
C           -4.45440000000000        6.73400000000000       -0.52960000000000
O            0.03590000000000        7.47680000000000        0.55850000000000
O           -1.55560000000000        5.75960000000000       -0.38450000000000
C           -0.75900000000000        5.71880000000000       -1.53850000000000
H          -10.38670000000000       -3.14940000000000       -3.64630000000000
H           -9.89620000000000       -1.50330000000000       -4.12340000000000
H           -9.21340000000000       -2.24450000000000       -2.64760000000000
H           -3.95230000000000        7.68770000000000       -0.68070000000000
H           -5.53270000000000        6.85670000000000       -0.67520000000000
H           -4.07100000000000        5.99510000000000       -1.23770000000000
H           -1.41820000000000        5.80940000000000       -2.40150000000000
H           -0.20870000000000        4.77450000000000       -1.59280000000000
H           -0.05290000000000        6.55590000000000       -1.53380000000000
H           -3.05690000000000       -4.72740000000000        5.42750000000000
H           -3.30910000000000       -3.34730000000000        4.32280000000000
H           -1.65080000000000       -3.86230000000000        4.75270000000000
H           -0.65070000000000       -6.11220000000000       -1.11690000000000
H            0.92650000000000       -5.29210000000000       -1.28560000000000
H           -0.58770000000000       -4.38090000000000       -1.55680000000000
H            8.71630000000000        3.83120000000000        4.25500000000000
H            7.05200000000000        3.63150000000000        3.63660000000000
H            8.29500000000000        4.42520000000000        2.62770000000000
H           -7.51460000000000        0.45560000000000       -3.61530000000000
H           -5.51780000000000       -3.32460000000000       -3.67760000000000
H           -6.82940000000000        3.42630000000000       -0.18580000000000
H           -3.11230000000000       -4.69250000000000       -0.14720000000000
H           -2.81950000000000        3.99070000000000        1.06820000000000
H           -1.48560000000000       -2.08270000000000        2.81250000000000
H           -1.34400000000000        3.89420000000000        2.32760000000000
H           -0.28730000000000       -2.36640000000000        0.17110000000000
H            3.36960000000000       -3.06240000000000        2.25180000000000
H            1.95480000000000        5.81780000000000        0.41230000000000
H            6.09960000000000        3.90050000000000        0.54220000000000
H            6.69320000000000       -0.10750000000000        1.91810000000000
C           -0.37790000000000        3.84510000000000        6.85260000000000
C            0.23650000000000        2.60070000000000        6.77590000000000
C            1.56300000000000        2.50430000000000        6.28880000000000
C            2.21600000000000        3.73500000000000        5.91020000000000
C            1.47210000000000        4.93810000000000        5.80750000000000
C            0.19970000000000        4.98060000000000        6.29200000000000
C            2.35420000000000        1.30850000000000        6.29140000000000
C            3.75240000000000        1.51910000000000        6.27980000000000
C            4.29360000000000        2.79560000000000        5.94790000000000
N            3.51900000000000        3.84330000000000        5.68890000000000
C            1.92690000000000       -0.06840000000000        6.31750000000000
C            2.92000000000000       -1.02510000000000        6.75100000000000
N            4.19890000000000       -0.73970000000000        6.95770000000000
C            4.64730000000000        0.46390000000000        6.61450000000000
C            6.03900000000000        0.69430000000000        6.61450000000000
C            6.53460000000000        1.91870000000000        6.21490000000000
C            5.69420000000000        2.95430000000000        5.86880000000000
C            0.71670000000000       -0.60370000000000        5.79770000000000
C            0.57160000000000       -1.99580000000000        5.70570000000000
C            1.47380000000000       -2.88350000000000        6.27520000000000
C            2.61450000000000       -2.40580000000000        6.85160000000000
O           -0.45700000000000        1.53360000000000        7.18100000000000
O           -0.26840000000000        0.12320000000000        5.26620000000000
S           -0.88140000000000        6.44280000000000        5.98610000000000
S            1.34920000000000       -4.71530000000000        6.21110000000000
S            8.36570000000000        2.18490000000000        6.20110000000000
C           -2.08550000000000       -2.23970000000000        6.92900000000000
C           -2.56280000000000       -1.11410000000000        6.26120000000000
C           -3.34740000000000       -1.25700000000000        5.08310000000000
C           -3.49900000000000       -2.60300000000000        4.58100000000000
C           -2.95860000000000       -3.71350000000000        5.27490000000000
C           -2.29160000000000       -3.52530000000000        6.44740000000000
C           -4.09610000000000       -0.22180000000000        4.41950000000000
C           -4.97260000000000       -0.65960000000000        3.39850000000000
C           -4.88870000000000       -1.98340000000000        2.87780000000000
N           -4.15340000000000       -2.91580000000000        3.46640000000000
C           -4.19340000000000        1.18250000000000        4.74760000000000
C           -5.46320000000000        1.80260000000000        4.42160000000000
N           -6.30320000000000        1.32490000000000        3.51660000000000
C           -5.99560000000000        0.19330000000000        2.89150000000000
C           -6.76050000000000       -0.20870000000000        1.77900000000000
C           -6.54460000000000       -1.44220000000000        1.19870000000000
C           -5.64370000000000       -2.33610000000000        1.73500000000000
C           -3.19420000000000        2.06170000000000        5.25060000000000
C           -3.58150000000000        3.32420000000000        5.70470000000000
C           -4.89480000000000        3.77660000000000        5.65150000000000
C           -5.83500000000000        3.04800000000000        4.98890000000000
O           -2.23220000000000        0.06420000000000        6.78850000000000
O           -1.88470000000000        1.81250000000000        5.21490000000000
S           -1.51620000000000       -4.94810000000000        7.28790000000000
S           -5.33760000000000        5.35100000000000        6.50520000000000
S           -7.54480000000000       -1.95170000000000       -0.27110000000000
B           -1.22170000000000        0.87540000000000        6.11060000000000
O            8.51410000000000        3.47890000000000        5.57270000000000
O            8.50290000000000        2.39320000000000        7.85080000000000
C            8.11320000000000        3.63990000000000        8.36890000000000
O           -0.14260000000000       -4.82800000000000        5.39350000000000
C           -0.11600000000000       -5.17230000000000        4.02980000000000
O            2.34940000000000       -5.02920000000000        5.20280000000000
O           -0.34470000000000       -4.35370000000000        7.92960000000000
O           -2.66060000000000       -5.11900000000000        8.48340000000000
C           -2.67010000000000       -4.20530000000000        9.55260000000000
O           -8.31440000000000       -0.76730000000000       -0.58270000000000
O           -8.53270000000000       -3.00760000000000        0.56100000000000
C           -9.56060000000000       -2.44030000000000        1.33330000000000
O           -6.63620000000000        5.68250000000000        5.95610000000000
O           -4.19460000000000        6.32560000000000        5.79070000000000
C           -4.45440000000000        6.73400000000000        4.47040000000000
O            0.03590000000000        7.47680000000000        5.55850000000000
O           -1.55560000000000        5.75960000000000        4.61550000000000
C           -0.75900000000000        5.71880000000000        3.46150000000000
H          -10.38670000000000       -3.14940000000000        1.35370000000000
H           -9.89620000000000       -1.50330000000000        0.87660000000000
H           -9.21340000000000       -2.24450000000000        2.35240000000000
H           -3.95230000000000        7.68770000000000        4.31930000000000
H           -5.53270000000000        6.85670000000000        4.32480000000000
H           -4.07100000000000        5.99510000000000        3.76230000000000
H           -1.41820000000000        5.80940000000000        2.59850000000000
H           -0.20870000000000        4.77450000000000        3.40720000000000
H           -0.05290000000000        6.55590000000000        3.46620000000000
H           -3.05690000000000       -4.72740000000000       10.42750000000000
H           -3.30910000000000       -3.34730000000000        9.32280000000000
H           -1.65080000000000       -3.86230000000000        9.75270000000000
H           -0.65070000000000       -6.11220000000000        3.88310000000000
H            0.92650000000000       -5.29210000000000        3.71440000000000
H           -0.58770000000000       -4.38090000000000        3.44320000000000
H            8.71630000000000        3.83120000000000        9.25500000000000
H            7.05200000000000        3.63150000000000        8.63660000000000
H            8.29500000000000        4.42520000000000        7.62770000000000
H           -7.51460000000000        0.45560000000000        1.38470000000000
H           -5.51780000000000       -3.32460000000000        1.32240000000000
H           -6.82940000000000        3.42630000000000        4.81420000000000
H           -3.11230000000000       -4.69250000000000        4.85280000000000
H           -2.81950000000000        3.99070000000000        6.06820000000000
H           -1.48560000000000       -2.08270000000000        7.81250000000000
H           -1.34400000000000        3.89420000000000        7.32760000000000
H           -0.28730000000000       -2.36640000000000        5.17110000000000
H            3.36960000000000       -3.06240000000000        7.25180000000000
H            1.95480000000000        5.81780000000000        5.41230000000000
H            6.09960000000000        3.90050000000000        5.54220000000000
H            6.69320000000000       -0.10750000000000        6.91810000000000
202
 energy: -37.897814244153 gnorm: 1.265555062839 xtb: 6.7.1 (edcfbbe)
C           -0.37455083609090        3.84572677728877        1.84838781555196
C            0.24023027171701        2.60357900770966        1.77427410656147
C            1.56709519078253        2.50614852195137        1.28595680610391
C            2.21750294171443        3.73504294840817        0.90730226766569
C            1.47592761768848        4.93769080059504        0.80466493916678
C            0.20297777177380        4.98143801320221        1.28679061370181
C            2.35703931260199        1.30895782623935        1.28984045164271
C            3.75486016136549        1.51915135475118        1.27754206714762
C            4.29704125706580        2.79463446235626        0.94442642070397
N            3.52309551509784        3.84414495993665        0.68446586974551
C            1.93066747840094       -0.06863151490567        1.31842216315911
C            2.92044593801925       -1.02494160643791        1.75074976622791
N            4.20266265430700       -0.73995687799457        1.95741315635588
C            4.65001258500290        0.46448042363816        1.61246545386255
C            6.04058435952534        0.69422207667686        1.61142308132721
C            6.53812058004076        1.91845217345765        1.21100539902540
C            5.69640493981940        2.95307608266003        0.86470569162766
C            0.71937129395034       -0.60540356570638        0.79851388348247
C            0.57243949458063       -1.99543649781679        0.70769874965356
C            1.47555330480334       -2.88340583995967        1.27570844923052
C            2.61554329137431       -2.40416802164712        1.85201589034325
O           -0.45494496026134        1.53347600630581        2.18128613104330
O           -0.26891707905487        0.12501405388627        0.26607665336139
S           -0.88066667246814        6.44125339260172        0.98553464666579
S            1.34967961767426       -4.71464979755892        1.21488944708065
S            8.36726730987072        2.17849567746967        1.19683239966651
C           -2.08394477019445       -2.23794237853068        1.93130713390139
C           -2.56183666191404       -1.11394977241840        1.26308197672943
C           -3.34696511216356       -1.25681399461389        0.08448291868014
C           -3.49868984761084       -2.60125914936385       -0.41451431106598
C           -2.96044370450681       -3.71079329368962        0.27891861154457
C           -2.29224532984120       -3.52225648553464        1.44922675625370
C           -4.09519175066650       -0.22050341822391       -0.57838391454140
C           -4.97246545767191       -0.65838804406728       -1.59821332222856
C           -4.88997253411539       -1.98188494029235       -2.11904257226784
N           -4.15466443709787       -2.91614474232245       -1.53035880588345
C           -4.19430962321503        1.18433021537849       -0.25105632687280
C           -5.46098811121281        1.80551027985550       -0.57528950758042
N           -6.30409736871128        1.32760386085985       -1.48180269998340
C           -5.99525251694664        0.19446552009786       -2.10562170822567
C           -6.76070388520559       -0.20769554462067       -3.21693991809180
C           -6.54741030376430       -1.44121447008290       -3.79733994889657
C           -5.64514622767584       -2.33481407670520       -3.25966229664428
C           -3.19405579396735        2.06473169848458        0.25197835853133
C           -3.57896433353200        3.32682157570391        0.70509887880415
C           -4.89174977506016        3.78026451867764        0.65255603295108
C           -5.83179417009338        3.05023635852699       -0.00980940145446
O           -2.23001849076726        0.06846598144181        1.79050100659189
O           -1.88016109044046        1.81345887811847        0.21518385013207
S           -1.53029456431512       -4.95594007700254        2.25937503688413
S           -5.32998297237171        5.35200397344688        1.50776909774401
S           -7.54351789020120       -1.95442210174146       -5.26510555729882
B           -1.21915833038423        0.87677606493340        1.11137264656121
O            8.51582804700954        3.48052517149459        0.56702934456637
O            8.50658077090918        2.39356090694213        2.84619449709512
C            8.11580855823986        3.64026534675406        3.35870607509247
O           -0.14133227000758       -4.82715677986838        0.39486303947745
C           -0.11565510730337       -5.17272608818453       -0.96723797741871
O            2.35106716671092       -5.02951006756134        0.20254682168747
O           -0.26630709915217       -4.29752404465376        2.70000505453074
O           -2.64717200892067       -5.12921061239019        3.46936840181110
C           -2.54539433186394       -4.26769238155183        4.36871371338329
O           -8.31901835492731       -0.76432067607136       -5.57634949241781
O           -8.53646615196642       -3.00645580791827       -4.43218093985133
C           -9.56203019235922       -2.43746196444193       -3.66014759571190
O           -6.63393756352881        5.68696071313101        0.95354865790191
O           -4.19012723529470        6.32897974822782        0.78885481716459
C           -4.45105038998114        6.73523727282675       -0.53047915405265
O            0.04272806981660        7.47857809562775        0.55165843903839
O           -1.55318430026398        5.76065556864093       -0.38842125194673
C           -0.75612926260616        5.71877966320616       -1.54100059756569
H          -10.38914008569511       -3.14688961443496       -3.63831411665311
H           -9.89785866527191       -1.50127666804832       -4.11704165592836
H           -9.21441392584272       -2.24188138323229       -2.64111507117625
H           -3.94781565091567        7.68938632107007       -0.68311835294288
H           -5.52877511579089        6.85897366177381       -0.67586475594700
H           -4.06766089668374        5.99621887748511       -1.23864859859293
H           -1.41606654263289        5.80860183966075       -2.40440946530041
H           -0.20671228381712        4.77396396068189       -1.59517399986299
H           -0.05036814997258        6.55539310201629       -1.53737612658224
H           -3.04843177280568       -4.75933617162469        5.46525782101976
H           -3.29114143582969       -3.40167383501872        4.27626316182092
H           -1.63013339659220       -3.85963363149400        4.74530090970173
H           -0.65169768243651       -6.11247129517209       -1.11212040381805
H            0.92561839251049       -5.29292156669478       -1.28213839338541
H           -0.58837702161112       -4.38146564596783       -1.55315677012494
H            8.72239605963499        3.83460576415017        4.23976056953164
H            7.05595489077435        3.63168227459054        3.63103589106096
H            8.29850489732085        4.42462424918449        2.62089393809501
H           -7.51505347395445        0.45663099048347       -3.61114770324476
H           -5.52039507794861       -3.32386284219918       -3.67232255515101
H           -6.82654956678486        3.42952536298045       -0.18375283241089
H           -3.11329376946301       -4.69098870308407       -0.14214369267137
H           -2.81624775332828        3.99262179488931        1.06734731772117
H           -1.48414687433751       -2.08039231836792        2.81448419095703
H           -1.34057178011086        3.89549265142597        2.32531424253972
H           -0.28644466520181       -2.36612281624548        0.17364932563117
H            3.37077489661644       -3.06180590159857        2.25254824707471
H            1.95779120548133        5.81762396405587        0.40819142024821
H            6.10229768302064        3.89889784071131        0.53744653974899
H            6.69530005948773       -0.10766342607180        1.91532481631603
C           -0.37975720365967        3.84447875064639        6.85222212480165
C            0.23569320194582        2.60127593606533        6.77490789897280
C            1.56273997053142        2.50490966880410        6.28655666164526
C            2.21241409888892        3.73452044916795        5.90903582909326
C            1.46991865667333        4.93686341650048        5.80748686980986
C            0.19633393133425        4.98018022566477        6.29099679703673
C            2.35342838975603        1.30819350306649        6.28945387461331
C            3.75112397849766        1.51924743537866        6.27744709083992
C            4.29255054147262        2.79534003044571        5.94547729322247
N            3.51799766469103        3.84462315024114        5.68634595340252
C            1.92790760539819       -0.06967667730635        6.31680488879978
C            2.91823540638727       -1.02574625598658        6.74839394824251
N            4.20026311300727       -0.74018110902950        6.95544216033212
C            4.64689032575220        0.46483038723875        6.61153324739706
C            6.03729988267026        0.69539237493958        6.61072317378261
C            6.53412833136162        1.92021899391599        6.21149020456551
C            5.69180138457116        2.95467668183430        5.86600095635813
C            0.71701624997627       -0.60675946782014        5.79631588445319
C            0.57091864375226       -1.99677046542671        5.70427564472437
C            1.47449823470527       -2.88466573832225        6.27163025002471
C            2.61415839072131       -2.40523222352001        6.84845280181000
O           -0.45883215545174        1.53015057514268        7.18113093599280
O           -0.27167775894677        0.12342387329756        5.26451763519498
S           -0.88701591873143        6.43831020653574        5.98973404505093
S            1.34951255122366       -4.71556599921313        6.21121698929793
S            8.36294342605305        2.17986216129398        6.19902420744678
C           -2.08419409717983       -2.24021988263920        6.93262674562923
C           -2.56440100797274       -1.11703828150413        6.26095754175583
C           -3.34989629017308       -1.24865000496692        5.08277310404440
C           -3.52229780300752       -2.52668019604110        4.61067072131866
C           -3.03939042080807       -3.59450468006870        5.45217950515456
C           -2.28441540010904       -3.51146803870003        6.47246730777621
C           -4.09746414656462       -0.22251809244236        4.41920105820307
C           -4.97476255409855       -0.66128672386222        3.39890167138053
C           -4.89326454716113       -1.98277300399364        2.87339934027039
N           -4.16581619308481       -2.91103269410587        3.46084005237275
C           -4.19772465402162        1.18083054274886        4.74779425260599
C           -5.46484045063093        1.80122413478790        4.42414799861476
N           -6.30762112835548        1.32349482697803        3.51714968280402
C           -5.99786214417229        0.19118651038241        2.89238821044869
C           -6.76288486349069       -0.21051910697501        1.78065239464521
C           -6.54869738455650       -1.44331752160714        1.19906135987720
C           -5.64620025715682       -2.33667307206785        1.73576154722946
C           -3.19811987978442        2.06134706115401        5.25181548327730
C           -3.58397167442248        3.32272099271313        5.70611118093017
C           -4.89708972078928        3.77529030643316        5.65389796627700
C           -5.83654951191694        3.04521153339848        4.99077350884032
O           -2.23246745048516        0.06444912454144        6.78886252014088
O           -1.88408624377403        1.81109996085737        5.21505982000074
S           -1.51841292222224       -4.95268778665258        7.28505333429447
S           -5.33649546320713        5.34600315605725        6.51061961647977
S           -7.54414213360056       -1.95598074843387       -0.26892419874511
B           -1.22240507683916        0.87398508436622        6.11017525597458
O            8.51023161177676        3.48308558489819        5.58036220410388
O            8.50240355990732        2.39476699910786        7.84762780233310
C            8.11195477348936        3.64081950840757        8.36418669670425
O           -0.13929437864973       -4.83164903412032        5.39761004443738
C           -0.10226673268086       -5.21267185357897        4.08310588660111
O            2.35126281647994       -5.02946900028568        5.19687504238392
O           -0.34391556777612       -4.35318811124615        7.93187438042124
O           -2.65993553803223       -5.12201779863863        8.48279342256245
C           -2.66783358969012       -4.20805565402272        9.55038687718122
O           -8.32079760251103       -0.76619628012776       -0.57978255653279
O           -8.53656141199207       -3.00945211816042        0.56243134469610
C           -9.56255119993951       -2.44177132604828        1.33485994251460
O           -6.64074364163547        5.68036241748914        5.95658969542621
O           -4.19729712582595        6.32432899480128        5.79258760844464
C           -4.45837825464776        6.73164767610006        4.47377183973517
O            0.03509577693083        7.47667893325592        5.55656428279774
O           -1.55950274557468        5.75902441254079        4.61549217431385
C           -0.76229840396909        5.71953773137144        3.46531616370834
H          -10.38919684041416       -3.15173156111542        1.35598766825251
H           -9.89898170789167       -1.50542497451052        0.87883715389759
H           -9.21533554549639       -2.24689225379991        2.35409666257814
H           -3.95584935072125        7.68628298831964        4.32205261263957
H           -5.53618159564784        6.85472580827714        4.32836778865556
H           -4.07437354021695        5.99364820896801        3.76497481687964
H           -1.42345630203594        5.80918132461789        2.59849025236382
H           -0.21195865464692        4.77494832518162        3.40974817826627