202
energy: -401.228081961350 gnorm: 0.000488319231 xtb: 6.7.1 (edcfbbe)
C         -0.00020        4.25540        1.69680
C          0.07000        3.16170        2.55390
C          1.31500        2.82410        3.14980
C          2.33290        3.85190        3.10810
C          2.23660        4.93110        2.19930
C          1.08840        5.10380        1.46710
C          1.67530        1.61000        3.83680
C          2.72810        1.74330        4.77220
C          3.49580        2.94150        4.85390
N          3.36390        3.89770        3.94080
C          1.23810        0.26360        3.57370
C          1.81310       -0.77980        4.38790
N          2.62430       -0.56550        5.42020
C          3.10560        0.65630        5.61040
C          4.06100        0.84500        6.62990
C          4.73990        2.04900        6.74270
C          4.48970        3.07800        5.84220
C          0.43050       -0.17420        2.48470
C          0.34360       -1.53370        2.17770
C          0.92940       -2.52680        2.97210
C          1.60870       -2.14960        4.10140
O         -1.06630        2.52940        2.84950
O         -0.23890        0.63550        1.66520
C          0.99690        6.23200        0.50150
C          0.75410       -3.96920        2.66890
C          5.80080        2.24670        7.77150
C         -1.95600       -1.61040        3.65270
C         -2.59040       -0.70770        2.80020
C         -3.52980       -1.17740        1.83880
C         -3.67160       -2.60950        1.73480
C         -2.94870       -3.49030        2.57060
C         -2.14770       -2.99240        3.56530
C         -4.46340       -0.37550        1.09350
C         -5.51030       -1.07630        0.45340
C         -5.45230       -2.49070        0.30290
N         -4.52630       -3.21780        0.91440
C         -4.55600        1.05840        1.01860
C         -5.86890        1.60330        0.75650
N         -6.86310        0.89460        0.24060
C         -6.66170       -0.39120       -0.03590
C         -7.64240       -1.09680       -0.75400
C         -7.49990       -2.45850       -0.99990
C         -6.42340       -3.15500       -0.47740
C         -3.48880        1.98850        1.08730
C         -3.77220        3.34160        1.25290
C         -5.07970        3.83690        1.21870
C         -6.11770        2.98250        0.93600
O         -2.32920        0.57520        3.02220
O         -2.22240        1.60140        0.91340
C         -1.48350       -3.85410        4.57610
C         -5.37240        5.29160        1.35840
C         -8.55730       -3.14260       -1.79580
B         -1.44150        1.33890        2.12270
O          6.57220        3.16870        7.77910
O          5.79880        1.26730        8.68710
C          6.82580        1.32140        9.66860
O          0.00060       -4.17620        1.58710
C         -0.26560       -5.53250        1.25820
O          1.22020       -4.86810        3.33000
O         -0.79850       -3.42340        5.47290
O         -1.75690       -5.14420        4.39630
C         -1.18070       -6.06120        5.31900
O         -9.36410       -2.57640       -2.48410
O         -8.50880       -4.47640       -1.65710
C         -9.48430       -5.20680       -2.38940
O         -6.46620        5.77070        1.21000
O         -4.27830        6.01490        1.62630
C         -4.50130        7.41150        1.76910
O          1.93290        6.89910        0.14190
O         -0.25900        6.43840        0.07960
C         -0.43310        7.49150       -0.85670
H         -9.38540       -5.00310       -3.45730
H        -10.48830       -4.92150       -2.06980
H         -9.29880       -6.25710       -2.18050
H         -3.52040        7.86830        1.88100
H         -5.12570        7.59440        2.64610
H         -5.00980        7.80480        0.88640
H         -1.49340        7.51400       -1.09490
H          0.15770        7.30240       -1.75500
H         -0.11410        8.44180       -0.42300
H         -1.84340       -6.92340        5.35350
H         -1.09150       -5.59790        6.30290
H         -0.19090       -6.35300        4.96200
H         -0.83440       -6.00670        2.06050
H          0.66880       -6.07870        1.11310
H         -0.84590       -5.51130        0.33980
H          6.49910        0.68850       10.49000
H          6.97570        2.34940       10.00410
H          7.75990        0.94580        9.24590
H         -8.51380       -0.56990       -1.10900
H         -6.31080       -4.21660       -0.63000
H         -7.12050        3.35090        0.79180
H         -3.12350       -4.54570        2.44930
H         -2.94770        4.01960        1.39390
H         -1.32590       -1.20370        4.43020
H         -0.93200        4.44200        1.18910
H         -0.21200       -1.80410        1.29310
H          2.03760       -2.87210        4.77530
H          3.05650        5.62920        2.14340
H          5.07320        3.98470        5.87890
H          4.28330        0.01440        7.28070
C          0.50940        4.37720        7.72420
C          0.54820        3.41250        8.72630
C          1.74230        3.23620        9.47210
C          2.68420        4.33340        9.42200
C          2.57950        5.33790        8.43250
C          1.51880        5.33130        7.56190
C          2.06200        2.13210       10.34000
C          3.00930        2.43960       11.34670
C          3.70920        3.68290       11.35480
N          3.61420        4.53860       10.34380
C          1.66180        0.74580       10.23960
C          2.18880       -0.14240       11.25690
N          2.87940        0.25210       12.31530
C          3.31800        1.50380       12.37270
C          4.16180        1.86350       13.44170
C          4.78700        3.10180       13.45610
C          4.58530        3.99410       12.41110
C          0.93780        0.10270        9.19140
C          0.98890       -1.29220        9.05730
C          1.60430       -2.11830       10.00360
C          2.09920       -1.55290       11.14610
O         -0.56790        2.76650        9.06310
O          0.28040        0.72090        8.21240
C          1.38350        6.43110        6.56820
C          1.77110       -3.58230        9.78310
C          5.72460        3.49450       14.54790
C         -1.74000       -1.22720       10.07860
C         -2.28290       -0.36720        9.12430
C         -3.15740       -0.87560        8.11730
C         -3.38890       -2.30470        8.15980
C         -2.75110       -3.14470        9.10490
C         -1.94410       -2.60930       10.07100
C         -3.92160       -0.13100        7.14230
C         -4.92740       -0.85060        6.45090
C         -5.00210       -2.26870        6.53150
N         -4.21770       -2.95790        7.35250
C         -3.85900        1.26900        6.81810
C         -5.02740        1.85810        6.19830
N         -5.98240        1.14740        5.62140
C         -5.89420       -0.18100        5.64470
C         -6.82980       -0.91970        4.90200
C         -6.81840       -2.31050        4.92270
C         -5.91860       -2.98300        5.73240
C         -2.73910        2.12900        6.96560
C         -2.94040        3.50440        6.90760
C         -4.15880        4.07840        6.53100
C         -5.18090        3.26340        6.11600
O         -1.96200        0.91900        9.28380
O         -1.51120        1.64870        7.10020
C         -1.28030       -3.42340       11.12710
C         -4.33460        5.55480        6.53100
C         -7.80020       -3.03160        4.06610
B         -0.93480        1.52380        8.42280
O          6.21640        4.58820       14.65340
O          5.97060        2.48510       15.38960
C          6.86330        2.77200       16.45750
O          1.85370       -3.87320        8.49100
C          2.11190       -5.22980        8.15390
O          1.88820       -4.39690       10.66670
O         -0.72270       -2.94880       12.08390
O         -1.37970       -4.73340       10.89460
C         -0.75500       -5.58010       11.85560
O         -8.59570       -2.47910        3.34620
O         -7.70250       -4.35630        4.17930
C         -8.61660       -5.11830        3.40050
O         -5.32360        6.12600        6.14350
O         -3.27260        6.18770        7.04110
C         -3.36270        7.59970        7.14430
O          2.21050        7.28520        6.38400
O          0.20430        6.39110        5.93060
C         -0.06400        7.45760        5.03360
H         -8.42150       -4.97400        2.33620
H         -9.64200       -4.81090        3.61560
H         -8.45980       -6.15600        3.68280
H         -2.55230        7.90870        7.80000
H         -4.32880        7.88900        7.56340
H         -3.25280        8.06070        6.16070
H         -0.86980        7.11790        4.38720
H          0.82780        7.69960        4.45180
H         -0.36910        8.34490        5.59410
H         -1.01210       -6.59800       11.57420
H         -1.12470       -5.34980       12.85610
H          0.32600       -5.42850       11.83180
H          1.44470       -5.89300        8.70750
H          3.14500       -5.48370        8.40290
H          1.94700       -5.31020        7.08180
H          6.99740        1.83990       16.99970
H          6.44010        3.53830       17.10970
H          7.81710        3.13240       16.06690
H         -7.56670       -0.39020        4.31730
H         -5.90520       -4.05940        5.77970
H         -6.09940        3.65940        5.71350
H         -2.97470       -4.19770        9.06050
H         -2.12340        4.15300        7.16450
H         -1.14360       -0.79270       10.86680
H         -0.34700        4.41610        7.07470
H          0.49090       -1.73830        8.21080
H          2.51790       -2.14930       11.94030
H          3.31500        6.12530        8.41720
H          5.10820        4.93780       12.38950
H          4.32870        1.14200       14.22490
