116
 energy: -22.928061455056 gnorm: 0.329736929581 xtb: 6.6.1 (8d0f1dd)
C           -3.31122850772930        0.79849766164622       -0.92477639677520
C           -2.44380812530352       -0.12270372891954       -0.27661132624697
C           -1.41337090092821        0.39579727573559        0.56335275196199
C           -0.89266158675590        1.65801491088749        0.27377586709581
C           -1.72665675402493        2.51431363229076       -0.49448366572522
C           -2.95444148494349        2.13954154133227       -1.01494489940871
C           -0.74098268209890       -0.43411532818871        1.49825021926784
C            0.56872586496315        0.03782116815119        1.86248088067890
C            1.03782416582094        1.29402317993033        1.50887470833621
N            0.31238977034758        2.07067427098208        0.65193736800696
C           -1.29695700510141       -1.39996043042223        2.41574187746061
C           -0.38243517664656       -2.18060797534842        3.13232615520648
N            0.91308504082021       -1.90366887689689        3.30325166013478
C            1.37712470144904       -0.74872102533751        2.81811050966982
C            2.52149331701875       -0.17739833758153        3.39379298866852
C            2.95849061756259        1.02681208890480        2.95105897606587
C            2.24288949469137        1.78498308775960        2.03503020483770
C           -2.74860936222260       -1.74497937691422        2.38401158947411
C           -3.09416315450955       -2.91614440870436        3.00571134491758
C           -2.16786021984049       -3.77788778654213        3.63251872101904
C           -0.85708937311598       -3.40495313382985        3.68547234358092
O           -3.71994433332149       -0.94984598373544        1.67726658385724
O           -2.55702603277562       -1.47241711578389       -0.57241635275616
C           -3.84297843593025        3.13357444054366       -1.60938954875544
C           -2.68769581069131       -5.03867041417370        4.30484659386931
H           -1.39666850744143        3.51251503834900       -0.76806311868865
H           -4.27662633836220        0.55105838579656       -1.33106614114542
H            2.66329581305412        2.73912661909249        1.72562431984580
H            3.05775395548473       -0.69369546277216        4.16536137542516
H           -0.24710966264510       -4.12034095424229        4.22946223699121
H           -4.11477991332403       -3.04712728052358        3.03244694615357
O           -4.21824883374556        4.03433712717988       -0.87713382485991
O           -4.44510595673734        2.90643496899600       -2.81853501752979
C           -5.44216520282800        3.83300025693726       -3.02488532025093
C            4.23586651889298        1.50004220933226        3.59165660008449
O            5.05927614697201        0.66079890002952        3.91714215179376
O            4.47001334453535        2.86385149488593        3.72605651435371
C            5.79457498613219        3.08584475587818        4.15829123132174
O           -3.82227255313510       -5.27347675879771        4.16636005494405
O           -1.85023202017753       -5.79767454267276        5.06656077253571
C           -2.55119635829503       -6.86252441382958        5.62930343183426
C           -5.07197156564436       -1.42399175670916        1.58830531863830
C           -1.33089900128490       -2.23622472573986       -0.99264499351172
H           -2.54510546830388       -7.76426885143998        4.99136022291012
H           -3.57194749219491       -6.44405511486021        5.74196173723541
H           -2.09133598235598       -7.02043774843818        6.64022264233588
H            5.72707967266424        3.46798026205549        5.10135971236643
H            6.34060091246885        3.78468702308830        3.50069950143490
H            6.17933064298187        2.03010500085905        4.19342358084693
H           -0.91862729772622       -2.57650129080332       -0.01361370304871
H           -0.49769766914251       -1.60651221708571       -1.34094446550576
H           -1.52632419730509       -2.94569707152159       -1.75361447637286
H           -5.11788846557077       -2.41810833635233        1.17520213188926
H           -5.67929807973498       -0.69619639428435        1.04301666067831
H           -5.57598832326623       -1.42383358739762        2.57928294206544
H           -6.13050215934830        3.76035386975488       -2.23272855695873
H           -5.86615610071888        3.45938329385866       -4.02668959924245
H           -5.13479557532099        4.87790991548477       -2.98314551356402
C           -1.38192942069774        3.73616555005018        2.91232598411686
C           -1.84821468128685        2.59982427735607        3.49755545445181
C           -1.05946531454833        2.05730632010638        4.60922730982276
C            0.19893954712228        2.69376791964407        4.86302140881997
C            0.50425395911860        3.94630308659851        4.28768785650746
C           -0.26031777722226        4.46998310053134        3.25072669343212
C           -1.20488993561782        0.74454293276906        5.14851520323437
C           -0.06287609782692        0.02744069315890        5.60930570802864
C            1.19208754369866        0.71421540266195        5.78882868583885
N            1.19428660993148        2.06344359410476        5.62744624321596
C           -2.41361422770794        0.07928500213936        5.25249410304426
C           -2.45851584031083       -1.32662100968547        5.60237876023992
N           -1.29466212405906       -1.98318595734370        5.89916817085159
C           -0.14475655767527       -1.32117560077092        5.98824682881008
C            0.97209270935794       -1.98958449505532        6.53157704134458
C            2.21982707914082       -1.36973967291181        6.68703967237737
C            2.30561929262884       -0.09745313075593        6.26436900324455
C           -3.73018485967715        0.71367583494582        5.25810242262992
C           -4.89964478833448       -0.06184623426677        5.21204641615509
C           -4.82617965800088       -1.39228978090841        5.46901303780036
C           -3.67144193418464       -1.98914944386360        5.67265433266067
O           -3.75568638935321        2.07705011038914        5.52067969627343
O           -2.94192434743730        1.91263938797883        3.01658762327703
C            0.21273512614467        5.50086066357994        2.34765104514621
C           -6.06660304520411       -2.17604633098929        5.80641622556876
H            1.41756699010566        4.38133362238595        4.66974005703471
H           -1.82880610647429        4.11982501512100        2.06992133318584
H            3.26888037378556        0.32655662585251        6.31721410015598
H            0.87146188387207       -3.08471526305024        6.57830423410869
H           -3.67716811065157       -3.05999292755990        5.83019634570050
H           -5.77379677507622        0.43595144608221        4.71017130754348
O            1.34459852619901        5.82615848916894        2.44941456579099
O           -0.74718748219123        6.07961784856304        1.59848183464284
C           -0.21473095568964        7.24015934882472        1.05753806029483
C            3.53228080814219       -2.00967610361154        7.02506769044485
O            3.64093082622715       -3.14437803815732        7.50071391725347
O            4.56565258381079       -1.22937033368332        6.69086985080897
C            5.72579357310716       -1.80692399125161        7.22246151275881
O           -7.04801223588612       -1.95726935745904        5.14194115322235
O           -6.01514389321278       -2.93743591896022        6.94765316328794
C           -7.21292732384718       -3.62681918543340        7.15115816329978
C           -4.95459780685163        2.65960679932188        5.86868674392943
C           -3.68284113682406        2.59129188358641        2.05479246020704
H           -7.43119628931628       -4.22607794725959        6.20622607140901
H           -8.06548455146707       -2.91765848248592        7.29781126410398
H           -7.07314693247270       -4.33087306029711        7.91223421050944
H            6.57332189837178       -1.29353136199234        6.78341268688262
H            5.74663761932316       -2.84282155125561        6.88089468184451
H            5.69426191474290       -1.72781984964892        8.29460302186842
H           -4.10481209541493        3.44288266176275        2.60483747673152
H           -4.49244774344916        1.87419893016926        1.82433103764650
H           -3.18901540870812        2.85154642679373        1.06781919454921
H           -5.55414326821421        2.76698137191684        4.93950725322359
H           -4.78658370641210        3.62090640967288        6.25983200635257
H           -5.43485580473958        1.97242995129449        6.65265772412460
H            0.89164886030839        7.38838561720231        1.13776105146914
H           -0.62894889903848        8.04195665205089        1.64837664327952
H           -0.59282546386754        7.45699159724320        0.03719083132488
116
 energy: -22.745758765321 gnorm: 0.454205921213 xtb: 6.6.1 (8d0f1dd)
C           -2.70620802472242        0.10207317687654       -1.14120101675243
C           -2.43748032338937       -0.73182327799878       -0.06275014935268
C           -1.47419160364859       -0.15160033917323        0.85454658979145
C           -0.84559854861600        1.10633014618266        0.61460499353361
C           -1.27228689290679        1.88222499572523       -0.58437998817709
C           -2.23240646849417        1.45245394136187       -1.47750423243571
C           -0.76260170175022       -0.99557846714678        1.89885167833257
C            0.57617032154035       -0.88010952212712        2.12733652548673
C            0.99855685756154        0.49926945480032        1.83288596256267
N            0.33585815017435        1.55434773598673        1.24058161819861
C           -1.38328190303506       -2.11753004306163        2.57154500289864
C           -0.56890026687932       -3.14938826914233        3.13366916913248
N            0.78845650909362       -3.02022703397625        3.32476369884653
C            1.26072672879088       -1.87766764364283        2.87635181191856
C            2.55717177368672       -1.44416593236275        3.09551178777231
C            3.05903256256692       -0.23809966217625        2.92841927075575
C            2.25342396229160        0.80414298922823        2.40715486252297
C           -2.84522726365271       -2.24041753325698        2.60232138689927
C           -3.26645642592332       -3.54221239106422        2.94614980978549
C           -2.44194534816576       -4.65313472636049        3.16362151142735
C           -1.11439324456688       -4.38236288824374        3.31509316716328
O           -3.69678728759273       -1.17945126747457        2.16191806286606
O           -2.73047966277710       -2.10654863040032        0.10840349594389
C           -2.58348130258959        2.28463605122204       -2.66810091862429
C           -2.95301749053741       -6.05155383523071        3.41885942649486
H           -0.71484862181688        2.75318981277899       -0.87183233416661
H           -3.75740023381495       -0.36815621697873       -1.50359274817821
H            2.66528213981727        1.72090772428272        2.27861197077721
H            3.32793261975992       -2.19187046882630        3.47842791955625
H           -0.39958440632919       -5.16947099141558        3.61940954377287
H           -4.26640292078509       -3.63742831317142        3.06220270790952
O           -1.83670792460332        2.83697737018694       -3.41773606257413
O           -3.98666224530129        2.48353904965838       -2.62776764374762
C           -4.35814920124706        3.27506149923007       -3.75102641298915
C            4.45909342829611        0.07270021449333        3.26353797249506
O            5.29809337884535       -0.82284762716014        3.49278219561707
O            4.78177542778031        1.40951006335020        3.26780762015796
C            6.06237288556913        1.61674232944567        3.78130665787650
O           -4.07058688155303       -6.35916360074049        3.79356805791689
O           -1.92672941487587       -6.97667530858922        3.23321591591299
C           -2.35740375580778       -8.24962321946876        3.07011465858198
C           -5.06741797083853       -1.61713667782570        2.01627088879801
C           -2.00066616595790       -2.93393782490720       -0.80741609173205
H           -1.55009342782558       -8.73970135861058        2.51613581063070
H           -3.09811790133226       -8.30432521031354        2.24821116669254
H           -2.68103554077728       -8.98402800416168        3.79653801348100
H            6.11766072974701        0.93520852527945        4.71355835250034
H            6.30062697120865        2.64616505056333        3.74587555177464
H            6.76632999317417        1.09791191441412        3.10502459349554
H           -1.63324839102002       -3.87080447582771       -0.29393732655810
H           -1.27026801764783       -2.56568628753196       -1.52114422839623
H           -2.71773113468441       -3.26734245251304       -1.53401023129268
H           -5.16968782582216       -2.37804247025299        1.20745656560402
H           -5.57727846704765       -0.72716130261843        2.00850224267910
H           -5.32703598904301       -2.09508600227982        2.94385375117009
H           -4.77710009518137        4.26113826219396       -3.48227283347173
H           -4.99752245753845        2.65789841672694       -4.40396131198774
H           -3.58485038297741        3.54255589377185       -4.49014368084107
C           -1.95487520572400        4.55235395793093        3.32360069881461
C           -2.18130025584994        3.28754245327518        3.96458978455017
C           -1.20545409065719        2.85534440950742        4.89321592706261
C           -0.04080786506805        3.69805570631214        5.11659103890481
C            0.16002324777442        4.97586759608359        4.60554478042479
C           -0.85828227134826        5.32760714228690        3.67178619776111
C           -1.23409714043437        1.75038636502281        5.80081160736552
C            0.01782029883633        1.07218197155915        5.99543387943633
C            1.20086983736492        1.75621135681740        5.91658075011184
N            1.15684665199663        3.10666663546837        5.73134699891253
C           -2.49944601763203        1.06372951578361        5.95352918772861
C           -2.32875186493394       -0.34850200746569        5.97357343322751
N           -1.16791063950649       -1.02677079612103        6.40048538630587
C           -0.03655613221003       -0.31944511727264        6.41139457004772
C            1.15449786363378       -0.96814480584036        6.75471460436812
C            2.32358696861107       -0.23928389160878        6.58666924702520
C            2.38702895455564        1.10541714046313        6.34195703191440
C           -3.78023315764560        1.67796909943382        6.00494195953444
C           -4.90153845984351        0.89526938581589        5.91334677062901
C           -4.82522224722007       -0.46190372643369        5.73028447689554
C           -3.54188451936241       -1.05656479583053        5.60217961879030
O           -3.82309666250285        3.02236295476536        6.40853064701313
O           -3.20793544883781        2.48232677255670        3.63553913008462
C           -0.73129168910426        6.66011105905594        2.99304330478406
C           -5.99934545353343       -1.27151530633991        5.73993534070170
H            0.84497877610789        5.74832418162174        4.84359642831296
H           -2.56485813590013        4.91432950116496        2.48444417942018
H            3.26128472663059        1.66573304505406        6.42861564094270
H            1.12611989694035       -2.00001245265959        7.17361069018021
H           -3.37682085410065       -2.17135205676347        5.46356203247996
H           -5.85082122285804        1.46977205521809        5.95069741047314
O           -0.32619059476083        7.69244177808920        3.45383440495548
O           -1.49483774220471        6.58279528927966        1.90644079149162
C           -1.95655267557995        7.90721410067736        1.49557039982971
C            3.66948004047943       -0.85602952684244        6.84064107396575
O            3.59495927937098       -2.05060316187824        6.81055228709416
O            4.87294456251618       -0.17779725492710        7.17632456738602
C            5.91859434762430       -1.09203321531548        7.12379916475062
O           -7.00785925143451       -0.92082957475587        6.30011521893272
O           -5.75593563123931       -2.53590768910589        5.17749462009270
C           -6.83870089711096       -3.37975243181830        5.19592834514961
C           -4.33685748403243        3.11419480186539        7.78165817114923
C           -4.25707036422669        3.27600691295183        3.14520987800837
H           -7.32720328694077       -3.39154448767683        4.09443161737420
H           -7.68706951544722       -2.97641809775949        5.83095261315306
H           -6.60061819520413       -4.35628488800402        5.76371331974341
H            6.39533802615103       -1.32151235302020        8.08184884953634
H            6.69376785025690       -0.99153660466239        6.28218122843453
H            5.49955760601487       -1.99050811461145        6.71428532742161
H           -4.38865509350340        4.32133278749897        3.38469773916805
H           -5.24138701236117        2.69637921363939        2.97863608028340
H           -4.10513047434312        3.54502482055014        2.13793252921661
H           -4.86864003516794        4.14455221346988        7.76730464257136
H           -3.42453872053064        3.24255032557585        8.38182002667100
H           -5.02706097708769        2.33116666593603        8.11695741884594
H           -2.13691116950143        8.15481435193372        0.39434106069720
H           -1.22785709570226        8.57864701623965        2.00385957563182
H           -2.97272425709772        7.97195316333585        1.87254521691952
116
 energy: -22.758613671156 gnorm: 0.459218430789 xtb: 6.6.1 (8d0f1dd)
C           -2.48223183223883        0.12301081819139       -1.12302008715840
C           -2.22529446612365       -0.81287193092944       -0.17208235040456
C           -1.15326413879441       -0.42918612655229        0.66112646516116
C           -0.34829999448615        0.69664612562787        0.33860595552105
C           -0.60682240279992        1.43815192519574       -0.78142875764637
C           -1.82535661921185        1.30006999131096       -1.41643356574340
C           -0.72059531055997       -1.26615981236710        1.76115311967826
C            0.54967857435054       -1.14946230437582        2.21795599068054
C            1.42335411575848       -0.08877084940138        1.70104590246861
N            0.93146919826098        0.87942043403491        0.88938768247684
C           -1.41170780625923       -2.32291098961756        2.42518528699931
C           -0.75911845074983       -3.39759122662301        3.07817423582781
N            0.61170800012785       -3.33792090751738        3.30068167971401
C            1.24006302936342       -2.25854081033918        2.96379063259112
C            2.57839095344857       -2.08949340273508        3.34224866672833
C            3.34472177124567       -1.06056967933445        2.84272867086196
C            2.78742447979230       -0.11263547962475        1.99750076598769
C           -2.84270980970546       -2.33691519362941        2.42520381864701
C           -3.54069607307474       -3.51915519564630        2.71718876654947
C           -2.94545604479933       -4.69503292143891        3.36166092887288
C           -1.56030733967057       -4.51515229150898        3.46068898467006
O           -3.42956313122642       -1.20174797700709        1.87506030578799
O           -2.99209785633583       -2.05953048510368       -0.33685938908827
C           -2.21779462169348        2.47299190645370       -2.27859549168038
C           -3.59768529327053       -5.98249874700390        3.55286709468811
H            0.10841597238025        2.18353851804173       -0.90514298907433
H           -3.31555522092267       -0.21395392943243       -1.78650030581034
H            3.34193412342986        0.55932998924061        1.45500384287884
H            3.02234043781532       -2.88613868264141        3.98378385868714
H           -1.02620501543135       -5.39322995777404        3.79440895583705
H           -4.53531520997526       -3.63641045831001        2.31754869482612
O           -1.29013134416438        3.29515618377802       -2.46192669926819
O           -3.38263176555870        2.50577339228279       -2.92698126232373
C           -3.57064160010518        3.79569170829505       -3.25297925236790
C            4.70639021644927       -0.95868035656969        3.43531061085966
O            5.03862923344026       -1.76405406242108        4.26580338170822
O            5.36127789156876        0.13730165022162        2.97843600110798
C            6.35553619835125        0.59456693640731        3.88826084696689
O           -4.78566478112178       -6.32407246490312        3.31736037077131
O           -2.58243868448363       -6.93733182883961        3.86451017042652
C           -2.97695840965196       -8.31260490910630        4.09760765031781
C           -4.85907880541008       -1.24278967171294        1.97684526013756
C           -1.93235393105538       -2.87825211819414       -0.91866301110460
H           -2.89035328327030       -8.36662304133485        5.16686020676599
H           -2.36546757272397       -9.15426375582307        3.46533330065211
H           -4.02903160099202       -8.37785767864154        3.93248512114387
H            6.56791172604253        1.67714031631978        3.94898831363747
H            7.30371840287675        0.10947221328192        3.71835178235064
H            6.03382853538681        0.28739508718866        4.96404428195888
H           -2.48230607084308       -3.82503824403393       -1.18056705874933
H           -1.28454630564131       -3.07495006388778       -0.19834152845163
H           -1.52188885683562       -2.44592516872488       -1.87234491654661
H           -5.28002912447605       -1.89186754305998        1.22878593041296
H           -5.09770910985893       -0.17811687490854        1.74182164187690
H           -5.06592153809543       -1.50279556708965        3.04043550375151
H           -4.58101720242572        4.06530163873430       -2.94113151259815
H           -3.24863093238861        3.74245040606124       -4.27671187040592
H           -2.81390149289892        4.62808622601117       -2.98852847694320
C           -2.44460541473738        5.06651472962694        3.43025785198389
C           -2.51807708191391        3.73020451484449        3.65416360461366
C           -1.42819733970517        3.03942319425261        4.34124627900637
C           -0.26754538341966        3.82464962736160        4.72237769382683
C           -0.23258825430686        5.22636629164988        4.33497130508349
C           -1.35963699638161        5.95024004588439        3.80097794956488
C           -1.48877458301420        1.69906021823700        4.92563890184673
C           -0.25093273820009        1.12688419269610        5.33938369103677
C            0.80751617779622        2.11371403469663        5.59095342506062
N            0.84547937514569        3.37884768585064        5.25332737811079
C           -2.53345803016264        0.76306872612220        5.14362741622591
C           -2.31815549018865       -0.65937167530688        5.20929519654286
N           -1.06947985384869       -1.17006104389766        5.25817032455370
C           -0.03723098215224       -0.33785859795110        5.59225457864364
C            1.20170972450242       -0.67212698095278        6.07692119612465
C            2.21645336109222        0.23049966441303        6.10131608710510
C            2.09229874672528        1.58658236226179        5.90710395477739
C           -3.84223941184659        1.27009688020990        5.64000030535775
C           -4.79854194500426        0.29821095725896        5.96652773111477
C           -4.53704917294603       -1.05801337747685        5.72448627889218
C           -3.30082246749860       -1.53748101056331        5.42787103889406
O           -4.18044082985552        2.62882061839350        5.94694760817888
O           -3.54123309067238        2.92564690156588        3.18051213490477
C           -1.28186116414426        7.42380084616156        3.70063657472655
C           -5.66642879958196       -2.03526925621481        6.00597316715109
H            0.45773277830420        5.87579580767419        4.64330816936307
H           -3.04246455178699        5.58069090710358        2.72616822451694
H            2.87637812414618        2.27005096825347        6.19387725673195
H            1.28417626722556       -1.56309928536364        6.75062125423771
H           -2.94566431537732       -2.60922206242703        5.51030908512022
H           -5.77491960796135        0.40522434531745        6.53455023681909
O           -0.85771654759532        8.01965007823804        4.69411028594166
O           -1.76248995703085        8.06437150467451        2.59449971738100
C           -2.44795394178988        9.30050029752531        2.88434359979886
C            3.46742410417219       -0.13216244540224        6.81996255716720
O            3.67400401226289       -1.24926453114782        7.25139993543074
O            4.42863157998147        0.93308544982478        6.95364078424881
C            5.55517376208731        0.59040687227023        7.58791162357919
O           -6.50102387290867       -1.74613140147774        6.85018168942791
O           -5.50416516541140       -3.26589916243491        5.36295669941909
C           -6.54066156666451       -4.19792386427960        5.74227791069232
C           -3.20928637780624        3.43457003421353        6.53570004185549
C           -4.85817814630990        3.35004480374802        2.99671304410473
H           -6.55461611662108       -3.83336842700229        6.70622187258013
H           -6.20301048007957       -5.16838892639049        5.84840277377915
H           -7.49520947911666       -4.08516781800777        5.25626423156011
H            5.71812663464187        1.18791851679207        8.47934193475375
H            6.43174139222545        0.89715019776924        6.93280864497442
H            5.67866680177019       -0.51123427136895        7.67478668874450
H           -5.22914987787775        3.66685253385815        4.01898135253596
H           -5.32293650445521        2.51880980859771        2.60533971745854
H           -5.14044967919777        4.15048238189999        2.26908700711325
H           -2.71921458727529        4.14435604469440        5.95530170009572
H           -2.28671542569609        2.80449139421376        6.83240628232851
H           -3.61108956584712        4.00184885893300        7.42541531847913
H           -2.76352434537875        9.26125741979247        3.95916370803871
H           -3.19931137090236        9.62419698546957        2.15049782494154
H           -1.60368664890173        9.98692336748860        2.97062757678211
116
 energy: -22.744852327791 gnorm: 0.469589402582 xtb: 6.6.1 (8d0f1dd)
C           -2.56216733254074        0.80056181444599       -0.75428212440533
C           -2.08946563144608       -0.47031698706123       -0.14358859492631
C           -1.14977183395410       -0.45489945328301        0.98522935410301
C           -0.36310318854985        0.69865458243136        0.94318658580598
C           -0.79468072389820        1.93828865059604        0.29795334068690
C           -1.92973904935593        2.03246350067375       -0.44609853094382
C           -0.66283633723817       -1.61402966159305        1.66041747056650
C            0.52916738252134       -1.45127239357195        2.33986523860651
C            1.34473899412488       -0.29693731082385        2.16530968958781
N            0.75776572037380        0.83628236688070        1.74263700912296
C           -1.45283778734125       -2.72570308801812        2.03722640877971
C           -0.93408542106701       -3.69223491544803        2.83936518254485
N            0.30904473777655       -3.63278113305283        3.35275124112530
C            1.09990105069351       -2.52805991389958        3.05578567232359
C            2.38656113263905       -2.44025730898223        3.68770660967174
C            3.24620380850946       -1.34625863054292        3.40974560136476
C            2.72303553301690       -0.25303351370989        2.70393310167057
C           -2.92844889604739       -2.76946834388248        1.78935920327526
C           -3.61952268974090       -3.87718049837153        2.11841567939537
C           -3.10073270014299       -4.84500065713502        2.88318770958610
C           -1.74108464718172       -4.76412355005413        3.26330357533326
O           -3.62627155166822       -1.58300357517943        1.48037983298015
O           -2.03255193472836       -1.68885153890879       -0.90422995017849
C           -2.23703478037508        3.27618625310705       -1.13840734332073
C           -3.81973561161327       -5.83171111367519        3.88526198719684
H           -0.36610516509149        2.91967120243366        0.58550039931492
H           -3.36194416046353        0.73624856421678       -1.33406751215449
H            3.38279331015882        0.58727299293035        2.55627948555171
H            2.71355404700661       -3.08839587028234        4.42653307847304
H           -1.35080869750833       -5.55321270327389        3.80538622312475
H           -4.67246669237962       -3.95931732739238        1.95657850093611
O           -1.80577328281365        4.34598346781453       -0.67505939761269