116
 energy: -22.928061455056 gnorm: 0.329736929581 xtb: 6.6.1 (8d0f1dd)
C           -3.31122850772930        0.79849766164622       -0.92477639677520
C           -2.44380812530352       -0.12270372891954       -0.27661132624697
C           -1.41337090092821        0.39579727573559        0.56335275196199
C           -0.89266158675590        1.65801491088749        0.27377586709581
C           -1.72665675402493        2.51431363229076       -0.49448366572522
C           -2.95444148494349        2.13954154133227       -1.01494489940871
C           -0.74098268209890       -0.43411532818871        1.49825021926784
C            0.56872586496315        0.03782116815119        1.86248088067890
C            1.03782416582094        1.29402317993033        1.50887470833621
N            0.31238977034758        2.07067427098208        0.65193736800696
C           -1.29695700510141       -1.39996043042223        2.41574187746061
C           -0.38243517664656       -2.18060797534842        3.13232615520648
N            0.91308504082021       -1.90366887689689        3.30325166013478
C            1.37712470144904       -0.74872102533751        2.81811050966982
C            2.52149331701875       -0.17739833758153        3.39379298866852
C            2.95849061756259        1.02681208890480        2.95105897606587
C            2.24288949469137        1.78498308775960        2.03503020483770
C           -2.74860936222260       -1.74497937691422        2.38401158947411
C           -3.09416315450955       -2.91614440870436        3.00571134491758
C           -2.16786021984049       -3.77788778654213        3.63251872101904
C           -0.85708937311598       -3.40495313382985        3.68547234358092
O           -3.71994433332149       -0.94984598373544        1.67726658385724
O           -2.55702603277562       -1.47241711578389       -0.57241635275616
C           -3.84297843593025        3.13357444054366       -1.60938954875544
C           -2.68769581069131       -5.03867041417370        4.30484659386931
H           -1.39666850744143        3.51251503834900       -0.76806311868865
H           -4.27662633836220        0.55105838579656       -1.33106614114542
H            2.66329581305412        2.73912661909249        1.72562431984580
H            3.05775395548473       -0.69369546277216        4.16536137542516
H           -0.24710966264510       -4.12034095424229        4.22946223699121
H           -4.11477991332403       -3.04712728052358        3.03244694615357
O           -4.21824883374556        4.03433712717988       -0.87713382485991
O           -4.44510595673734        2.90643496899600       -2.81853501752979
C           -5.44216520282800        3.83300025693726       -3.02488532025093
C            4.23586651889298        1.50004220933226        3.59165660008449
O            5.05927614697201        0.66079890002952        3.91714215179376
O            4.47001334453535        2.86385149488593        3.72605651435371
C            5.79457498613219        3.08584475587818        4.15829123132174
O           -3.82227255313510       -5.27347675879771        4.16636005494405
O           -1.85023202017753       -5.79767454267276        5.06656077253571
C           -2.55119635829503       -6.86252441382958        5.62930343183426
C           -5.07197156564436       -1.42399175670916        1.58830531863830
C           -1.33089900128490       -2.23622472573986       -0.99264499351172
H           -2.54510546830388       -7.76426885143998        4.99136022291012
H           -3.57194749219491       -6.44405511486021        5.74196173723541
H           -2.09133598235598       -7.02043774843818        6.64022264233588
H            5.72707967266424        3.46798026205549        5.10135971236643
H            6.34060091246885        3.78468702308830        3.50069950143490
H            6.17933064298187        2.03010500085905        4.19342358084693
H           -0.91862729772622       -2.57650129080332       -0.01361370304871
H           -0.49769766914251       -1.60651221708571       -1.34094446550576
H           -1.52632419730509       -2.94569707152159       -1.75361447637286
H           -5.11788846557077       -2.41810833635233        1.17520213188926
H           -5.67929807973498       -0.69619639428435        1.04301666067831
H           -5.57598832326623       -1.42383358739762        2.57928294206544
H           -6.13050215934830        3.76035386975488       -2.23272855695873
H           -5.86615610071888        3.45938329385866       -4.02668959924245
H           -5.13479557532099        4.87790991548477       -2.98314551356402
C           -1.38192942069774        3.73616555005018        2.91232598411686
C           -1.84821468128685        2.59982427735607        3.49755545445181
C           -1.05946531454833        2.05730632010638        4.60922730982276
C            0.19893954712228        2.69376791964407        4.86302140881997
C            0.50425395911860        3.94630308659851        4.28768785650746
C           -0.26031777722226        4.46998310053134        3.25072669343212
C           -1.20488993561782        0.74454293276906        5.14851520323437
C           -0.06287609782692        0.02744069315890        5.60930570802864
C            1.19208754369866        0.71421540266195        5.78882868583885
N            1.19428660993148        2.06344359410476        5.62744624321596
C           -2.41361422770794        0.07928500213936        5.25249410304426
C           -2.45851584031083       -1.32662100968547        5.60237876023992
N           -1.29466212405906       -1.98318595734370        5.89916817085159
C           -0.14475655767527       -1.32117560077092        5.98824682881008
C            0.97209270935794       -1.98958449505532        6.53157704134458
C            2.21982707914082       -1.36973967291181        6.68703967237737
C            2.30561929262884       -0.09745313075593        6.26436900324455
C           -3.73018485967715        0.71367583494582        5.25810242262992
C           -4.89964478833448       -0.06184623426677        5.21204641615509
C           -4.82617965800088       -1.39228978090841        5.46901303780036
C           -3.67144193418464       -1.98914944386360        5.67265433266067
O           -3.75568638935321        2.07705011038914        5.52067969627343
O           -2.94192434743730        1.91263938797883        3.01658762327703
C            0.21273512614467        5.50086066357994        2.34765104514621
C           -6.06660304520411       -2.17604633098929        5.80641622556876
H            1.41756699010566        4.38133362238595        4.66974005703471
H           -1.82880610647429        4.11982501512100        2.06992133318584
H            3.26888037378556        0.32655662585251        6.31721410015598
H            0.87146188387207       -3.08471526305024        6.57830423410869
H           -3.67716811065157       -3.05999292755990        5.83019634570050
H           -5.77379677507622        0.43595144608221        4.71017130754348
O            1.34459852619901        5.82615848916894        2.44941456579099
O           -0.74718748219123        6.07961784856304        1.59848183464284
C           -0.21473095568964        7.24015934882472        1.05753806029483
C            3.53228080814219       -2.00967610361154        7.02506769044485
O            3.64093082622715       -3.14437803815732        7.50071391725347
O            4.56565258381079       -1.22937033368332        6.69086985080897
C            5.72579357310716       -1.80692399125161        7.22246151275881
O           -7.04801223588612       -1.95726935745904        5.14194115322235
O           -6.01514389321278       -2.93743591896022        6.94765316328794
C           -7.21292732384718       -3.62681918543340        7.15115816329978
C           -4.95459780685163        2.65960679932188        5.86868674392943
C           -3.68284113682406        2.59129188358641        2.05479246020704
H           -7.43119628931628       -4.22607794725959        6.20622607140901
H           -8.06548455146707       -2.91765848248592        7.29781126410398
H           -7.07314693247270       -4.33087306029711        7.91223421050944
H            6.57332189837178       -1.29353136199234        6.78341268688262
H            5.74663761932316       -2.84282155125561        6.88089468184451
H            5.69426191474290       -1.72781984964892        8.29460302186842
H           -4.10481209541493        3.44288266176275        2.60483747673152
H           -4.49244774344916        1.87419893016926        1.82433103764650
H           -3.18901540870812        2.85154642679373        1.06781919454921
H           -5.55414326821421        2.76698137191684        4.93950725322359
H           -4.78658370641210        3.62090640967288        6.25983200635257
H           -5.43485580473958        1.97242995129449        6.65265772412460
H            0.89164886030839        7.38838561720231        1.13776105146914
H           -0.62894889903848        8.04195665205089        1.64837664327952
H           -0.59282546386754        7.45699159724320        0.03719083132488
116
 energy: -22.713868665184 gnorm: 0.451734689272 xtb: 6.6.1 (8d0f1dd)
C           -3.19607210817135        0.56399716821951       -1.31310355848065
C           -2.38094684663625       -0.40607993772933       -0.62938396514006
C           -1.51282883242889        0.24992207127418        0.34351266905962
C           -1.20003983242964        1.60249468056312        0.14230079017027
C           -1.96284514114000        2.51145056118650       -0.68713467349563
C           -3.02922818139545        2.00831346717776       -1.40871177166250
C           -0.55821455541386       -0.48015275353033        1.24619865119477
C            0.74975020663213        0.07020770710791        1.48113581934119
C            0.85558578603207        1.47135952640109        1.28758192464759
N           -0.05630568150355        2.15043034237215        0.68907359609481
C           -0.85369983800454       -1.66947370895574        1.94882791812423
C            0.33168299980422       -2.46581075087181        2.43525581305388
N            1.60616654263259       -1.87088705353095        2.41144922392239
C            1.79001822860815       -0.59920045713046        2.10461039319642
C            2.96424328749908        0.07226840260029        2.37905611814444
C            3.11859844739584        1.40587429599167        2.10083550130052
C            1.97913023134961        2.15585671768736        1.66649089851470
C           -2.11143442984716       -2.12473214212229        2.37323988377079
C           -2.25758340032567       -3.43090057457362        2.94308150990756
C           -1.08777692065951       -4.32376189294035        3.06772024793912
C            0.24699978100665       -3.78287092015349        3.02620126601232
O           -3.20400221916880       -1.22833723795568        2.17005318923391
O           -2.20980595684546       -1.74702861483827       -0.93121574612875
C           -3.92912406393365        2.92454166496945       -2.13044457208638
C           -1.53008496570581       -5.77575154189531        3.30512331692641
H           -1.83997061280530        3.55379339802436       -0.55641750944137
H           -3.98111929514685        0.03553474975630       -1.75811805542165
H            2.07336472142949        3.21930425851529        1.74221454124869
H            3.81626133914403       -0.49443042748977        2.76568124044859
H            1.12197541311799       -4.45587788913816        3.13212593216931
H           -3.02241894197677       -3.71715452932291        3.54043199580840
O           -3.35989575226612        3.89336785343328       -2.57329874458410
O           -5.29065747519506        2.55085690947005       -2.19165608759483
C           -5.83613907838510        3.58967097805004       -2.91332729155763
C            4.42625290254349        1.82588994660457        2.55966991089582
O            5.10583217494897        1.34753609388182        3.50668782703997
O            5.05778468709320        2.69850496338466        1.66141486358989
C            6.25256444727780        3.13586765651385        2.10240064647733
O           -2.66721479915137       -6.19115631146089        3.60756737166528
O           -0.53069503989904       -6.62635416716589        3.22602985722355
C           -0.61947715787269       -8.02717990502691        3.69809492196062
C           -4.58920518164403       -1.57063454843726        2.18015557414206
C           -2.62624002191137       -2.02839231476830       -2.21710775279646
H           -0.57864251419294       -8.44608774464343        2.65738846278815
H           -1.63367553925609       -8.33906524187237        3.92083672006232
H            0.34983453466054       -8.23604026234517        4.28956027933231
H            6.89258814887993        2.28081652955300        2.37383220542335
H            6.17777068049556        3.66050155027078        3.18967471427432
H            6.81894652743833        3.84823945106997        1.54072534490738
H           -2.21835575971816       -1.49444137768744       -3.04958563835473
H           -3.70825255917736       -1.76108852602438       -2.35885089231306
H           -2.63023454535637       -3.21779965135067       -2.30915940320758
H           -4.96361601865491       -1.98916002273691        1.21839979562108
H           -5.16164839917474       -0.68982126663879        2.57214707835829
H           -4.62776375262896       -2.39245671338199        2.94429107893691
H           -5.78904002105776        4.53800609616363       -2.17602319734988
H           -6.77348780782414        3.50497109990679       -3.48785390383317
H           -5.14229643305732        3.81588922452366       -3.66950789440240
C           -1.76538348092326        3.85596177172558        3.65122725785009
C           -2.15048325053857        2.82011979363049        4.49983998328369
C           -1.11539050965070        2.11824049779329        5.23718613792732
C            0.20300440198824        2.56031018325674        5.02651547000613
C            0.61025740999227        3.67541934287356        4.34042249090895
C           -0.43907789458595        4.27793817245685        3.57664358341284
C           -1.26407191900551        0.90394827289702        5.92517642965221
C           -0.36916546247118        0.01655089375488        6.44965684802575
C            0.91837913579256        0.56768417821923        6.32523976788503
N            1.13907320840554        1.64659113617471        5.52011213789691
C           -2.49605007437039        0.56807213329971        6.49409592844964
C           -2.81646049634562       -0.79293205468829        6.57066197555075
N           -1.94749815970732       -1.74118321650451        6.94757542609098
C           -0.66076911715658       -1.27693189352333        6.96766014442635
C            0.42148230434383       -2.00221507592368        7.53450455838107
C            1.64376109424884       -1.41121895798294        7.54454384025303
C            1.96389707386975       -0.16331329128609        6.98093599300222
C           -3.64188354347826        1.39406607969771        6.76421651729547
C           -4.98258101573876        1.01387539085819        6.39616074679368
C           -5.21622208023902       -0.36669006276357        6.32087097025116
C           -4.15880552222650       -1.21491608310704        6.42669420234874
O           -3.47617062633188        2.69884023726677        7.23426624405072
O           -3.42087378669662        2.23937808390948        4.16879739299639
C            0.01029009771018        5.20694081998452        2.46945930961075
C           -6.54489316578403       -0.88727308243796        5.93632642040461
H            1.72125461341656        3.84268670894927        4.11794984888313
H           -2.45775308430955        4.33689314054088        2.87441338908910
H            2.98572122150492        0.23381238135449        6.76818128447246
H            0.25343507587616       -3.07002983962726        7.63966269700285
H           -4.39739966302419       -2.26212233452341        6.59416168970074
H           -5.94438662844258        1.58620947801341        6.52877701472043
O            1.06477287379868        5.79737205655307        2.62427044749221
O           -0.94119520152688        5.48009459977955        1.49202343621690
C           -0.52457425652925        5.90291700753661        0.12530435462594
C            2.79944874357040       -2.03781916059803        8.17883605883212
O            2.98898145687308       -3.21171243911061        8.01195339808585
O            3.47882901869153       -1.23265523559725        9.09005951202349
C            4.33509047081691       -2.14726764800676        9.80387058723078
O           -7.58711794791994       -0.70728461977683        6.54732126037756
O           -6.63390893116155       -1.50709740247867        4.68439408316278
C           -7.86083997689895       -2.03451760816696        4.62675508035911
C           -4.55935750437611        3.48691638052194        7.75891075407312
C           -3.31282319893448        1.41136934343427        3.01810234678465
H           -8.44214412839485       -1.10498705705034        4.22652870817035
H           -8.31822816503051       -2.19892161941711        5.56223281756217
H           -7.73009386056077       -2.88884376272522        3.93095675009369
H            5.18735067606486       -1.46993763936352       10.16294776145557
H            4.64951165253235       -2.95297807608047        9.13114722055007
H            3.82914870268887       -2.54392299208418       10.76526879532223
H           -4.09292510298246        0.68192966301155        3.18802125438341
H           -2.33390145824100        0.95310356189325        2.87394914909371
H           -3.66351038984381        1.88845213513956        2.09054781376536
H           -5.08432538352931        3.73914236755148        6.81743944728811
H           -4.33115764463338        4.39736956919034        8.45592378612579
H           -5.04723243150616        2.84255799153429        8.38692729254165
H           -1.36742403410137        6.10476844353314       -0.45117359927179
H           -0.02139932143679        5.15266706588760       -0.45392423950227
H            0.10116742115577        6.87150272201033        0.36030394089313
116
 energy: -22.738584702419 gnorm: 0.425275869997 xtb: 6.6.1 (8d0f1dd)
C           -3.08226019517367        0.46074840374098       -1.27471412975217
C           -2.28315961081189       -0.31567351114235       -0.44464114544064
C           -1.38165529258363        0.34125963663184        0.50064978396906
C           -1.24932198644251        1.75992510051786        0.32646314545411
C           -2.08030183554830        2.41030487160833       -0.48256684470706
C           -3.09172454309538        1.81894434117688       -1.09558497474743
C           -0.46896214033234       -0.46896508418798        1.31740965078684
C            0.59956065187390        0.25248623369144        1.77979893637040
C            0.82495929515621        1.62827683642457        1.40891721107633
N           -0.15200380431939        2.37875768912387        0.87605867744399
C           -0.62248707154154       -1.77687207450402        1.87271008845236
C            0.54971497065852       -2.52383605235566        2.20725678568836
N            1.63062137613959       -1.83060407648061        2.49661912769347
C            1.73137976339862       -0.47721555618931        2.34640407859532
C            2.93363855000575        0.21867416621421        2.66883705294203
C            3.18236053144959        1.48903240077859        2.15537232404001
C            2.10278225905223        2.18591499344965        1.60147728809212
C           -1.89105210264945       -2.26974217438637        2.39463017285587
C           -1.75656911742707       -3.56838288046963        2.82534121913109
C           -0.63781002987757       -4.40345311825398        2.79809985189827
C            0.58319830596088       -3.81027222324658        2.69302089143045
O           -3.04457434147784       -1.43312453927163        2.43920518592355
O           -2.37382588124832       -1.68141286703626       -0.29652727137206
C           -4.07690733868252        2.64387699669038       -1.87429275856444
C           -0.68921824346997       -5.89976079118114        2.86011880105740
H           -1.73372938762536        3.40888297966739       -0.59854940736649
H           -3.86192150988154        0.09302312098158       -1.94230016445814
H            2.13473977945713        3.29796839294379        1.53357984833999
H            3.66839358912071       -0.12712365501855        3.44783278449507
H            1.36429882915536       -4.28406688048605        3.17274526842085
H           -2.61141563584212       -4.04383067449363        3.26500531117714
O           -4.14547565384405        3.87118272604244       -1.68483893225292
O           -4.85277592565419        1.84761896219071       -2.64488902599659
C           -5.86173881772516        2.46609295277165       -3.29353868259888
C            4.49212831932607        2.18145346387024        2.35082430153016
O            5.36876652033037        1.55953485577064        2.85415328750240
O            4.78064520385190        3.45624970633997        1.76475246821556
C            6.05256763303648        3.85241915214042        2.41616313966048
O           -1.71415786853036       -6.37249093081123        2.33128971447192
O            0.34702147840299       -6.60533438940433        3.50721694390899
C            0.22891134820815       -8.00824991192790        3.14479237504958
C           -3.88964580700457       -1.68310389039298        3.50927695719354
C           -3.71503068379012       -2.22184388862562       -0.25310541386384
H           -0.83845188983782       -8.17636014207752        3.13122567578309
H            0.55719609255474       -8.59806107397373        4.02070179572700
H            0.65471289171927       -8.54239710078952        2.28062670129672
H            6.21274647654486        3.23554147188605        3.37071041767485
H            5.97367047331266        5.04023274947630        2.40360590536124
H            6.77513778638006        3.49327325192542        1.68075774129895
H           -3.81634720416914       -2.73914612085053       -1.27747806729829
H           -4.53937273191946       -1.54445857469409        0.01741263465491
H           -3.57739728535828       -3.09269351224658        0.43818490982174
H           -4.35054727495710       -2.71007528854240        3.44571851437446
H           -4.72110455811870       -0.91999284826614        3.38316509963809
H           -3.38896826396299       -1.49596158821521        4.43383293438861
H           -6.51130517825803        2.89369366419909       -2.55573642919520
H           -6.31206507697311        1.77465443022530       -4.00270380937791
H           -5.64530334942610        3.34740850670624       -4.12729438543313
C           -1.20818065420847        3.80396508600860        3.29763353301660
C           -1.76591802378617        2.62993361937485        3.76192689162490
C           -1.00223103484394        1.81727346491125        4.74278550898328
C            0.37040764723384        2.06791375656673        4.90575382162171
C            0.94154356944646        3.21074544093325        4.35008746898758
C            0.18895251621108        4.15152021069717        3.60330391144678
C           -1.67049878610146        0.91031977174945        5.57670629609900
C           -0.72208163946688        0.15522833339501        6.33812461808238
C            0.72741861447351        0.29503873520858        6.20542410502767
N            1.25825174774061        1.38439530819588        5.66173321445423
C           -2.99118408426041        0.66561799674051        5.81203734422012
C           -3.20936990973296       -0.55274836918164        6.54934646313165
N           -2.30028663593583       -1.30687917107135        7.28821610515364
C           -1.01842724463553       -0.96252417298951        7.24064546345592
C           -0.09266792688486       -1.84158535252633        7.86811469106707
C            1.32305858222379       -1.66083984608186        7.75122539113418
C            1.56011304538989       -0.54921839840369        6.98004811669716
C           -4.04894152293434        1.63520702100502        5.78997668709941
C           -5.31371688260911        1.00338774146658        5.64193355832993
C           -5.63955151890804       -0.25358486100113        6.10971204896878
C           -4.58080504837966       -1.09710597812507        6.64543252870767
O           -3.82424525137697        3.03844658276965        5.85444730712983
O           -2.97326228103035        2.23361688971357        3.32674905022367
C            0.80961543703928        5.17690664227609        2.78608553710461
C           -6.97033347145930       -0.90664762134317        5.73303585640526
H            2.05572662863683        3.39823079393487        4.45987506174064
H           -2.07988366384569        4.57904847951414        3.11222448605673
H            2.54436096009554       -0.40886670885282        6.77283969978106
H           -0.45867592183344       -2.61933406503716        8.59018028937351
H           -4.77002719563751       -1.79892620435189        7.44256446225291
H           -6.15133017881195        1.52740583054791        5.18860686602180
O            2.01256050375035        4.96617278716423        2.67669483269962
O           -0.11011127352028        5.97384834433093        2.11386625645292
C            0.42074531260101        6.49840683571101        0.96748235254959
C            2.38007362862120       -2.51651218365542        8.58731497225661
O            2.08031112237426       -2.84100089109615        9.76656433348525
O            3.52134091663835       -2.84797439038997        7.87332452865484
C            4.72270759725774       -3.16433594929113        8.68052243424548
O           -6.93881697763861       -1.68201258577350        4.75195120277356
O           -8.07043335846132       -0.63974825930330        6.54680942171586
C           -9.22516476760196       -1.20984229861018        5.87373432332619
C           -4.95322598954087        3.60371324211279        6.11928244974830
C           -3.79680746930396        3.00463890290833        2.51552562171970
H           -9.02712182834720       -2.27262575014004        5.72683940576713
H           -9.11595056374111       -0.65520838514528        4.87580502434737
H          -10.21640779866508       -0.88222768072885        6.09775885185768
H            5.50757938776147       -2.44527830642645        8.62190333057553
H            5.22624064713478       -4.00881458320835        8.30243694289815
H            4.47973790616355       -3.40172056650046        9.72265756068330
H           -4.48377125855637        2.36630609072450        1.88064894682888
H           -3.22866146415169        3.49167025216577        1.75330302828855
H           -4.52988356312921        3.55362996935561        3.10587952474714
H           -4.75824476641463        4.70791306426961        6.06944608670450
H           -5.37332709793235        3.23259837030605        7.01836108488960
H           -5.51006296299547        3.34660810587881        5.23665175211984
H           -0.47449947285483        6.49238443460528        0.30879638195951
H            1.29543782489961        5.83278796637672        0.57614923439359
H            0.79352449251997        7.57014141586859        1.11018031226999
116
 energy: -22.718649787355 gnorm: 0.461400597960 xtb: 6.6.1 (8d0f1dd)
C           -2.60772068215455        0.05842897795253       -1.54504590133319
C           -1.88616309909635       -0.86060874328418       -0.67193221157064
C           -1.12570565994275       -0.11583383289443        0.27053144954831
C           -0.80615291037826        1.32950975996037        0.06515815758244
C           -1.80261161995706        2.09591702998497       -0.55423820730573
C           -2.85145413666592        1.41111036302909       -1.19707110333242
C           -0.19365456140914       -0.68601081500035        1.18197270990817
C            0.78353252001733        0.23108755780050        1.75196284517132
C            0.98196824537020        1.59461598962317        1.26622841843128
N            0.09446965926217        2.19132505809509        0.43152810511857
C           -0.37270800308747       -1.95386339519370        1.84365840186747
C            0.73855015294867       -2.49739992244083        2.55599812763189
N            1.87553401233423       -1.73165102945449        2.65994095141234
C            1.81553490961664       -0.45481776357042        2.39629319554380
C            3.05648374816681        0.27018805787830        2.55088620112055
C            3.22020257168834        1.64430373364111        2.23175067334563
C            2.14627955468444        2.38142500966601        1.66017519227313
C           -1.68042537650676       -2.33303312704474        2.40133758748623
C           -1.73396178903587       -3.47799730724428        3.17829199416121
C           -0.61941161846146       -4.20127341960302        3.47643096660083
C            0.61511129395726       -3.66048350018293        3.42045514158157
O           -2.81235862451988       -1.56901260347649        2.10896623764420
O           -1.83338862836808       -2.22938812307873       -0.67158413395371
C           -3.99663987545524        2.26435276027556       -1.55028319154766
C           -0.56294349017183       -5.50585674665017        4.35031144857389
H           -1.92214555574772        3.24870051559045       -0.43738133001767
H           -2.91670396051830       -0.23636710172624       -2.55839342804044
H            2.22490871968306        3.42418868073957        1.26087752317864
H            3.97927497355208       -0.21408687408853        2.87577015141173
H            1.44404182546996       -4.05573814919162        3.86014637349612
H           -2.74893197569700       -3.81895978229974        3.55943866410791
O           -3.84795640836889        3.43441385023149       -1.27962753992427