116
 energy: -22.928061455056 gnorm: 0.329736929581 xtb: 6.6.1 (8d0f1dd)
C           -3.31122850772930        0.79849766164622       -0.92477639677520
C           -2.44380812530352       -0.12270372891954       -0.27661132624697
C           -1.41337090092821        0.39579727573559        0.56335275196199
C           -0.89266158675590        1.65801491088749        0.27377586709581
C           -1.72665675402493        2.51431363229076       -0.49448366572522
C           -2.95444148494349        2.13954154133227       -1.01494489940871
C           -0.74098268209890       -0.43411532818871        1.49825021926784
C            0.56872586496315        0.03782116815119        1.86248088067890
C            1.03782416582094        1.29402317993033        1.50887470833621
N            0.31238977034758        2.07067427098208        0.65193736800696
C           -1.29695700510141       -1.39996043042223        2.41574187746061
C           -0.38243517664656       -2.18060797534842        3.13232615520648
N            0.91308504082021       -1.90366887689689        3.30325166013478
C            1.37712470144904       -0.74872102533751        2.81811050966982
C            2.52149331701875       -0.17739833758153        3.39379298866852
C            2.95849061756259        1.02681208890480        2.95105897606587
C            2.24288949469137        1.78498308775960        2.03503020483770
C           -2.74860936222260       -1.74497937691422        2.38401158947411
C           -3.09416315450955       -2.91614440870436        3.00571134491758
C           -2.16786021984049       -3.77788778654213        3.63251872101904
C           -0.85708937311598       -3.40495313382985        3.68547234358092
O           -3.71994433332149       -0.94984598373544        1.67726658385724
O           -2.55702603277562       -1.47241711578389       -0.57241635275616
C           -3.84297843593025        3.13357444054366       -1.60938954875544
C           -2.68769581069131       -5.03867041417370        4.30484659386931
H           -1.39666850744143        3.51251503834900       -0.76806311868865
H           -4.27662633836220        0.55105838579656       -1.33106614114542
H            2.66329581305412        2.73912661909249        1.72562431984580
H            3.05775395548473       -0.69369546277216        4.16536137542516
H           -0.24710966264510       -4.12034095424229        4.22946223699121
H           -4.11477991332403       -3.04712728052358        3.03244694615357
O           -4.21824883374556        4.03433712717988       -0.87713382485991
O           -4.44510595673734        2.90643496899600       -2.81853501752979
C           -5.44216520282800        3.83300025693726       -3.02488532025093
C            4.23586651889298        1.50004220933226        3.59165660008449
O            5.05927614697201        0.66079890002952        3.91714215179376
O            4.47001334453535        2.86385149488593        3.72605651435371
C            5.79457498613219        3.08584475587818        4.15829123132174
O           -3.82227255313510       -5.27347675879771        4.16636005494405
O           -1.85023202017753       -5.79767454267276        5.06656077253571
C           -2.55119635829503       -6.86252441382958        5.62930343183426
C           -5.07197156564436       -1.42399175670916        1.58830531863830
C           -1.33089900128490       -2.23622472573986       -0.99264499351172
H           -2.54510546830388       -7.76426885143998        4.99136022291012
H           -3.57194749219491       -6.44405511486021        5.74196173723541
H           -2.09133598235598       -7.02043774843818        6.64022264233588
H            5.72707967266424        3.46798026205549        5.10135971236643
H            6.34060091246885        3.78468702308830        3.50069950143490
H            6.17933064298187        2.03010500085905        4.19342358084693
H           -0.91862729772622       -2.57650129080332       -0.01361370304871
H           -0.49769766914251       -1.60651221708571       -1.34094446550576
H           -1.52632419730509       -2.94569707152159       -1.75361447637286
H           -5.11788846557077       -2.41810833635233        1.17520213188926
H           -5.67929807973498       -0.69619639428435        1.04301666067831
H           -5.57598832326623       -1.42383358739762        2.57928294206544
H           -6.13050215934830        3.76035386975488       -2.23272855695873
H           -5.86615610071888        3.45938329385866       -4.02668959924245
H           -5.13479557532099        4.87790991548477       -2.98314551356402
C           -1.38192942069774        3.73616555005018        2.91232598411686
C           -1.84821468128685        2.59982427735607        3.49755545445181
C           -1.05946531454833        2.05730632010638        4.60922730982276
C            0.19893954712228        2.69376791964407        4.86302140881997
C            0.50425395911860        3.94630308659851        4.28768785650746
C           -0.26031777722226        4.46998310053134        3.25072669343212
C           -1.20488993561782        0.74454293276906        5.14851520323437
C           -0.06287609782692        0.02744069315890        5.60930570802864
C            1.19208754369866        0.71421540266195        5.78882868583885
N            1.19428660993148        2.06344359410476        5.62744624321596
C           -2.41361422770794        0.07928500213936        5.25249410304426
C           -2.45851584031083       -1.32662100968547        5.60237876023992
N           -1.29466212405906       -1.98318595734370        5.89916817085159
C           -0.14475655767527       -1.32117560077092        5.98824682881008
C            0.97209270935794       -1.98958449505532        6.53157704134458
C            2.21982707914082       -1.36973967291181        6.68703967237737
C            2.30561929262884       -0.09745313075593        6.26436900324455
C           -3.73018485967715        0.71367583494582        5.25810242262992
C           -4.89964478833448       -0.06184623426677        5.21204641615509
C           -4.82617965800088       -1.39228978090841        5.46901303780036
C           -3.67144193418464       -1.98914944386360        5.67265433266067
O           -3.75568638935321        2.07705011038914        5.52067969627343
O           -2.94192434743730        1.91263938797883        3.01658762327703
C            0.21273512614467        5.50086066357994        2.34765104514621
C           -6.06660304520411       -2.17604633098929        5.80641622556876
H            1.41756699010566        4.38133362238595        4.66974005703471
H           -1.82880610647429        4.11982501512100        2.06992133318584
H            3.26888037378556        0.32655662585251        6.31721410015598
H            0.87146188387207       -3.08471526305024        6.57830423410869
H           -3.67716811065157       -3.05999292755990        5.83019634570050
H           -5.77379677507622        0.43595144608221        4.71017130754348
O            1.34459852619901        5.82615848916894        2.44941456579099
O           -0.74718748219123        6.07961784856304        1.59848183464284
C           -0.21473095568964        7.24015934882472        1.05753806029483
C            3.53228080814219       -2.00967610361154        7.02506769044485
O            3.64093082622715       -3.14437803815732        7.50071391725347
O            4.56565258381079       -1.22937033368332        6.69086985080897
C            5.72579357310716       -1.80692399125161        7.22246151275881
O           -7.04801223588612       -1.95726935745904        5.14194115322235
O           -6.01514389321278       -2.93743591896022        6.94765316328794
C           -7.21292732384718       -3.62681918543340        7.15115816329978
C           -4.95459780685163        2.65960679932188        5.86868674392943
C           -3.68284113682406        2.59129188358641        2.05479246020704
H           -7.43119628931628       -4.22607794725959        6.20622607140901
H           -8.06548455146707       -2.91765848248592        7.29781126410398
H           -7.07314693247270       -4.33087306029711        7.91223421050944
H            6.57332189837178       -1.29353136199234        6.78341268688262
H            5.74663761932316       -2.84282155125561        6.88089468184451
H            5.69426191474290       -1.72781984964892        8.29460302186842
H           -4.10481209541493        3.44288266176275        2.60483747673152
H           -4.49244774344916        1.87419893016926        1.82433103764650
H           -3.18901540870812        2.85154642679373        1.06781919454921
H           -5.55414326821421        2.76698137191684        4.93950725322359
H           -4.78658370641210        3.62090640967288        6.25983200635257
H           -5.43485580473958        1.97242995129449        6.65265772412460
H            0.89164886030839        7.38838561720231        1.13776105146914
H           -0.62894889903848        8.04195665205089        1.64837664327952
H           -0.59282546386754        7.45699159724320        0.03719083132488
116
 energy: -22.579586005464 gnorm: 0.546041354537 xtb: 6.6.1 (8d0f1dd)
C           -3.48032278987937        0.76671743862822       -0.87309104277246
C           -2.72189325067617       -0.36879373645873       -0.29247483323131
C           -1.64334260233193        0.04903399837417        0.55386736656437
C           -1.11623067254389        1.39144204684210        0.45836574050335
C           -1.86954658811026        2.46822407913756       -0.19550859912360
C           -3.07908200252223        2.15667636616525       -0.82845665750043
C           -0.94801934184220       -0.75779209810081        1.55817355726259
C            0.40261461808540       -0.37798458127718        1.83677537407096
C            0.91314083411570        0.95169942402323        1.38474457453307
N            0.20406562495493        1.81832939685263        0.69895509572216
C           -1.42095220802435       -1.95828682251560        2.09779851084206
C           -0.46188444011690       -2.67857463389342        2.93585736842470
N            0.76873820764235       -2.34387431951054        3.47676215623768
C            1.24400312090496       -1.24181275064709        2.73811888278628
C            2.65534808213853       -0.85259234803937        2.76761291458914
C            2.94250430435323        0.45204611676518        2.61376072387207
C            2.09919048093676        1.34295762057951        1.96153856193052
C           -2.67605595627023       -2.55925252475696        2.07053594371260
C           -2.88200718155455       -3.79405713051211        2.57784906822355
C           -1.98507317846240       -4.58147314651798        3.32115670715852
C           -0.72832692540327       -3.94395967262415        3.53505843982222
O           -3.61852748156580       -1.79825824654447        1.47231185606834
O           -3.22526306770295       -1.49248130390007       -0.93113362951941
C           -3.90386258372426        3.14936011271910       -1.59622958169389
C           -2.43060987324701       -6.00033366130889        3.58408889203291
H           -1.76202542970187        3.54402617248782        0.02262076455659
H           -4.32230126095708        0.42528682796528       -1.35735753595906
H            2.46450404419593        2.36319405067423        1.78531997880731
H            3.45139111263048       -1.35240523838261        3.34634703323258
H            0.04885591180246       -4.23176725845559        4.17306837088985
H           -4.01025733050768       -4.18128415009520        2.44897920475894
O           -3.35134907315051        4.17262766455827       -2.15780013246593
O           -5.24397721633203        2.78391565352636       -1.93891226889727
C           -5.85239479629001        4.01425014606338       -1.83893255033876
C            4.20618199056540        1.12961251644834        3.02498758550463
O            5.11543987658482        0.53050217602224        3.55081552688063
O            4.15568134329140        2.52019158812849        2.68934017781965
C            5.06394024612889        3.39417880105728        3.35178301022744
O           -3.34428827835764       -6.57480618439147        2.92079115098172
O           -1.83528439947289       -6.83540599121975        4.43461064839997
C           -2.24427270606453       -8.21353994756422        4.33152369974802
C           -4.95335350742365       -2.37825319040330        1.12788729477515
C           -2.32249395809075       -2.44007874492829       -1.09455447780501
H           -1.51336007878345       -9.13637675773333        4.49733003756711
H           -2.35821760480521       -8.58999113565608        3.25442127814814
H           -3.33621894667086       -8.43153754247238        4.29985834663285
H            5.07204056422682        4.25107970888872        2.89609319442930
H            6.03629586870494        3.01844814817547        3.30874024952835
H            4.90572828262014        3.26304951956811        4.48921908662723
H           -2.45931791964775       -2.93486604300512       -0.10183850149220
H           -1.30701817974827       -2.06632593461116       -1.19192626743496
H           -2.53921602188416       -2.97408399235485       -2.10192233584458
H           -5.25289129895850       -2.82933899869905        2.05059896579072
H           -4.71796698073141       -3.17714632271547        0.49408795110020
H           -5.57313814690016       -1.46263734810335        1.06768567488262
H           -5.35143218406925        4.70082623885254       -0.94030966698545
H           -6.82757119653579        3.83959591108684       -1.58255109206821
H           -5.66040353115160        4.57983705591778       -2.81134919621793
C           -1.19392781438905        3.74305828981752        3.12107823774002
C           -1.75280694159578        2.88414809706387        4.01770921082861
C           -0.83652101870757        2.71548905324018        5.20010303097167
C            0.53048659272597        3.12376738372851        5.04760986075866
C            1.02780124566090        4.05322810000452        4.08304388769386
C            0.05472158247708        4.49596971288750        3.23729059259099
C           -1.07522447153000        1.52224023831106        5.93972344703992
C            0.11368259145187        0.65748802642375        6.18446672813471
C            1.27037055362378        1.34290720477759        6.25297921506263
N            1.51104039066504        2.59890839308178        5.84521494021935
C           -2.27569829325431        0.78933996615237        6.12433093178094
C           -2.35539009682517       -0.63936246446548        5.91425561270660
N           -1.22101835296936       -1.34679484852431        6.11772212007750
C            0.01206973573693       -0.77937167259904        6.35754413058130
C            1.15836847045162       -1.39883665466181        6.91865054063709
C            2.28823846590115       -0.72621607032115        7.35951214607997
C            2.29059405708973        0.64353556893009        6.90213765229159
C           -3.63177196732330        1.45314017772569        6.28565437039689
C           -4.90925481098305        0.83709609428581        5.91626029381766
C           -4.89547195096259       -0.50098224214926        5.65275005202151
C           -3.69408332194564       -1.18593904119413        5.77624686924621
O           -3.47382211877107        2.75868848885779        6.94388479183546
O           -2.98532686878112        2.13147693460727        3.98135103006392
C            0.39688636663245        5.44987411103129        2.27903465311774
C           -5.99035201678670       -1.21140833445302        5.03143962826318
H            2.00222932161201        4.61303298129911        4.15447425201937
H           -1.39748876318712        3.71709502902130        2.08356274074186
H            3.10064127427859        1.09376341492943        7.50949929902399
H            1.07631685842131       -2.43313261980434        7.04453243834803
H           -3.72763682598089       -2.31958344488326        5.69555467913541
H           -5.87614649737861        1.43801200578312        5.76095691391245
O            1.38259715320123        6.14753214627014        2.49846524151374
O           -0.30174410231778        5.30922513279671        1.10277330261228
C            0.08860393475048        6.34089457014752        0.19030870446630
C            3.27988386701420       -1.23135904352514        8.22381663556301
O            3.09431572762003       -2.08051601394662        9.10454198936044
O            4.49855371764994       -0.52795965080687        7.98044630751319
C            5.59232075404323       -1.29312003813590        8.58226721340780
O           -7.06781147352042       -0.62179186364036        4.69907042979995
O           -5.75903008826076       -2.56903624317091        4.80373692892027
C           -6.91376809272879       -3.27147583576996        4.26589925100146
C           -4.64788370346647        3.59930564798920        7.17276950974395
C           -3.85956744447488        1.98159743529689        2.91470343231992
H           -7.38167085655961       -3.91112555336350        4.97580646213507
H           -6.75431961193332       -4.12164125999479        3.49667354451564
H           -7.71895677458384       -2.47392301503024        3.98403879831913
H            6.30978846326880       -1.42023456139171        7.77990879054441
H            5.18075411913851       -2.28125550281817        9.19821773343103
H            5.95153400736506       -0.37343606515743        9.17882352984906
H           -3.24847102192874        2.47191535367436        2.10422525596075
H           -4.79221113273891        2.40166105045505        3.20761951280937
H           -4.04909412161910        0.91733797350950        2.64946306966870
H           -4.63840192440873        3.93769798945987        8.24588272512802
H           -5.61352364875325        3.26583052035656        7.03194653392133
H           -4.50444280103326        4.43616613375983        6.64718652612878
H            1.11245002635328        6.15916939016037       -0.23295703049793
H           -0.09890810783523        7.37629201292190        0.79214996471154
H           -0.59317741440067        5.91758988407838       -0.68494106849089
116
 energy: -22.629889403003 gnorm: 0.498067959428 xtb: 6.6.1 (8d0f1dd)
C           -3.21030279306979        0.13907113677264       -0.96064142453364
C           -2.19503131789382       -0.69545559982935       -0.46805354102425
C           -1.06640083004615       -0.06061632863694        0.30613769396328
C           -0.88213255836632        1.34346874059334        0.13418580646585
C           -2.00194025758045        2.11709589770144       -0.27990893024234
C           -3.00035789391559        1.54313997471834       -0.96176847682737
C           -0.38336904032727       -0.85742553006764        1.24288138878058
C            0.92624084461953       -0.50556088956158        1.50192784920175
C            1.17674668311051        0.88792442951620        1.42028335595886
N            0.28921254036856        1.72505195146498        0.75253476054677
C           -0.88935253017912       -1.81074481655038        2.10272468515305
C            0.03387694899674       -2.81250757781891        2.43551213669861
N            1.32782478236366       -2.58184451656131        2.61255739894680
C            1.77249964482703       -1.31384886512641        2.22072831030164
C            2.86725778331694       -0.69526738620530        2.82783216242573
C            3.20037487295007        0.66510569291444        2.56410523737059
C            2.26077190502234        1.54382750124784        2.03699014337652
C           -2.24587284206810       -2.14776353430572        2.24049466420859
C           -2.81292020323009       -3.39205630372959        2.47073244904821
C           -1.93005579111291       -4.35928204604847        2.67035385877862
C           -0.52038542737660       -4.05744995467059        2.73726032125396
O           -3.08190137264281       -1.02511780450141        2.08008071911066
O           -2.04805884629156       -2.12700422615162       -0.64549637102477
C           -4.00401479692952        2.49662033562771       -1.66674015707438
C           -2.29115874791399       -5.79127164742695        2.95286333535904
H           -1.95367849595252        3.25632359205090       -0.31423697191358
H           -4.09330552245712       -0.40504051939482       -1.12510062002245
H            2.41908866990394        2.57167755020973        1.74470416573383
H            3.62609129398201       -1.43770635938951        2.92995562005543
H            0.21384381779058       -4.89169065331993        2.91836385573163
H           -3.87165942774175       -3.72894023574326        2.34004180124768
O           -3.88233798195678        3.70245452059399       -1.47226378404836
O           -4.86870317760804        1.92479243847529       -2.61501974458952
C           -5.78453323934790        3.03117374298009       -2.95007617680643
C            4.46630228182515        1.40689741017237        3.16312806984516
O            4.27546684899387        1.77059940934323        4.35781850623728
O            5.55946476955645        1.68148966197793        2.38422779617530
C            6.64638786514588        2.27409495962841        3.03379068303732
O           -3.37961338969782       -6.27956307119140        3.24023287738325
O           -1.27324197363015       -6.64535526343824        2.49805409398738
C           -1.60889531428215       -8.00980629170040        2.92284452345659
C           -4.27751865226809       -0.90502492875654        2.80512857712767
C           -1.56559021224874       -2.52003439783775       -1.83431556481691
H           -1.22277995805231       -8.87265606239525        2.57527746889195
H           -2.59608033119164       -8.07680264913309        2.75536162008097
H           -1.43743240371180       -8.05928375696263        4.05723804853143
H            7.40876072646107        2.37721986641472        2.25980500255170
H            6.75659213298054        1.40206722838854        3.74662979058546
H            6.37245322347365        3.15041617915608        3.58910009624305
H           -1.80302133571345       -3.61096337893055       -1.92012135997428
H           -0.51852822791961       -2.20245125917373       -1.84114791729187
H           -2.03540043707760       -2.04584169891139       -2.71345186455336
H           -4.28304240944171        0.02298628868019        3.35760834699624
H           -4.71958558351540       -1.74644348724923        3.32453447514050
H           -4.91972695229442       -0.74130594451943        1.92669000131411
H           -5.72372503734905        3.78901756454010       -2.20788722652969
H           -6.75841644382235        2.56220044648445       -3.00915886341862
H           -5.55068447152459        3.60414300792061       -3.98743477639715
C           -1.68612777978480        4.01753004999885        2.72712894303703
C           -1.90192232148111        2.80792223018934        3.42343584999531
C           -1.20697094648662        2.23421066962368        4.52240479298036
C           -0.00424685987316        2.98023743374721        4.81892144409682
C            0.33619370002775        4.16386371858953        4.15912746817398
C           -0.61097301954765        4.80543313384761        3.22931759437880
C           -1.64770393178923        1.24986698530844        5.66190381593977
C           -0.43411127290999        0.61563507513038        6.18557161553238
C            0.85359078395510        1.28761788804512        6.21925886746735
N            0.87174469435787        2.61526076699649        5.88101987510367
C           -2.85496130458991        0.70938308051698        5.99154145963107
C           -2.79076868086377       -0.65085829263128        6.76127585945689
N           -1.68473073221131       -1.18204277653115        7.25045660517511
C           -0.51849433667312       -0.63051016120068        6.97931614660878
C            0.75379470804337       -1.34001988967365        7.33203333138617
C            1.89470494057728       -0.61205581576065        7.24529344272450
C            1.96874788194236        0.75346381626984        6.90340567403887
C           -4.07893110557851        1.45411233023886        5.89758951080292
C           -5.15162600326805        0.66514081969421        5.77411665450433
C           -5.08392619761735       -0.70724004195932        6.21733679338444
C           -3.97793475150782       -1.31564852596316        6.83196367749316
O           -4.16574732236027        2.83977595470250        6.06426693655623
O           -3.04406666079804        2.13681988551209        2.90068136311074
C            0.07834677464961        5.78389860885659        2.28191002847404
C           -6.26008227922553       -1.69872917861960        6.06005063295783
H            1.16461412524486        4.72324725058301        4.54814634056290
H           -2.20994967730698        4.02122794678115        1.70326940705525
H            2.63228296959062        1.54660603844928        7.32390082705081
H            0.85964243603838       -2.30458829882372        7.87872796478072
H           -4.14123958813202       -2.12534649715316        7.49839149814429
H           -5.99791761258042        1.17543832290677        5.44133047915779
O            1.22997872387192        6.21453005153603        2.38673547578833
O           -0.67199699585175        6.13660484390085        1.19907782483940
C            0.20691112247772        6.62244590797287        0.17597661802522
C            3.04901950407554       -1.24580693035449        8.06252290310362
O            3.05210088309550       -2.43247596516402        8.03713620295345
O            3.81711371606591       -0.55070597255664        8.91570464765582
C            4.53954396746976       -1.53302136358312        9.66552010948100
O           -5.86380138243022       -2.87104757403961        5.90191001624762
O           -7.42488736371197       -1.13956828367577        6.18915627220137
C           -8.43424064223460       -2.02480360162931        5.81621161950988
C           -3.52737674062349        3.14708775401479        7.46867690738882
C           -4.31347909222601        2.88240621730793        2.69994856996021
H           -8.89854179061559       -2.32432280132563        6.82197099520360
H           -7.98927793393473       -2.73825097722517        5.17413286063034
H           -9.11800110894346       -1.42318606040188        5.31334477471002
H            4.48594984372240       -2.70394057027377        9.48295203664343
H            4.46639327151810       -1.13582408382613       10.69267509794547
H            5.72883367815001       -1.32352465365106        9.65264079970535
H           -4.47298168789403        3.43906105723719        3.60794356914569
H           -5.09159033354469        2.23050187217612        2.45361922577391
H           -4.22704436425856        3.64827596193112        1.88382927090889
H           -3.78685436054067        2.28091329037191        8.16057831340592
H           -4.33836667409105        3.76276013142951        7.89208175612730
H           -2.50682135264341        3.67578003642569        7.44965243325312
H            1.08318412178061        5.99250626678852        0.31254942587994
H            0.40270155448721        7.59601852738446        0.33832532907749
H           -0.17154757932115        6.43213644001348       -0.83527858782318
116
 energy: -22.623758859702 gnorm: 0.513760058874 xtb: 6.6.1 (8d0f1dd)
C           -2.70523551525334        0.69164570165596       -0.62572653865898
C           -1.92479750217892       -0.14677768318913        0.03335509883045
C           -0.98606398558008        0.29359890459609        0.97749238074449
C           -0.58188918152588        1.63449031795085        0.88097248137222
C           -1.18223305140336        2.42845247348423       -0.04858819384677
C           -2.29073565789812        2.04638932233856       -0.74155091786744
C           -0.47641181412527       -0.57062483404128        2.07193274434854
C            0.82360434596305       -0.16322526314989        2.24483370303638
C            1.25001873477149        1.11620462627275        1.84356340378845
N            0.46906010864867        2.11549372393974        1.43696309850618
C           -0.85357077474521       -1.92334420467831        2.42493169796535
C            0.20226870937931       -2.59371494566472        3.11840722806167
N            1.49722023929254       -2.15860512870269        3.23619259411316
C            1.77731474247833       -0.93975072768654        2.85155335445188
C            3.04794956909499       -0.51578928392844        3.08889343959027
C            3.48604532561298        0.71337072146035        2.67282392909954
C            2.57234279872206        1.60240266201746        2.17986940061298
C           -2.17577139161374       -2.40564089303660        2.25574980376186
C           -2.49392455314251       -3.81880164504193        2.40181296600564
C           -1.51460050798774       -4.64622527626714        3.14207453391929
C           -0.27539090991496       -3.89967651825306        3.29777079271595
O           -3.16106892285197       -1.43925664808220        1.81573946670469
O           -1.73900689819781       -1.38128375497151       -0.80333885224722
C           -2.69524019518458        3.02652637820697       -1.82426820380090
C           -1.58773662241183       -6.14721408686924        3.40000842979950
H           -0.67061788287363        3.27279865466683       -0.49643253558296
H           -3.42039599548037        0.41902482974492       -1.40109202771470
H            2.90940324718891        2.56320727257807        1.80947428778678
H            3.76451087729973       -1.20471024607434        3.53791500894879
H            0.54048613615898       -4.50553024431540        3.43655210944084
H           -3.50651428487650       -4.02404550054456        2.39410614515677
O           -2.18704437739281        3.96418285848184       -2.40177519672699