116
 energy: -22.853951583300 gnorm: 0.417319716634 xtb: 6.6.1 (8d0f1dd)
C            1.64318026941571       -0.09120595550644        1.72050606034439
C            0.68989573311644        0.80896219029949        2.28620714158003
C            0.91360649979580        1.21871031897039        3.66631160101576
C            1.77600253262865        0.36750040526964        4.44794413764803
C            2.82843998666278       -0.33019064635020        3.80123110120117
C            2.69304518029175       -0.53883319192043        2.43717049731956
C            0.17393670804858        2.11947639897166        4.46186978435828
C            0.00910466844697        1.85528291765315        5.81992256133137
C            0.94219343336058        1.00148805959027        6.42251795110914
N            1.74797363515546        0.23748725549698        5.71742369626601
C           -0.85950879286134        3.00593735414745        4.03234690136371
C           -2.02512486664894        3.35497314273664        4.88107275233522
N           -2.02059086513856        3.19837863444068        6.20795345189323
C           -0.91111699141378        2.48436984543843        6.68819723283573
C           -0.77391584990817        2.42259529481075        8.13767588185466
C            0.30749349685868        1.70362570389554        8.69731723278390
C            1.13822910091284        0.98704011037706        7.84193939194775
C           -0.81314148093370        3.73443596571223        2.80177981361169
C           -1.90341670839241        4.50207739753881        2.36021253597777
C           -3.04636857970917        4.69063873709924        3.11341360723913
C           -3.08772577382940        4.15097207844992        4.38244360341096
O            0.35389778538299        3.60973377634614        2.10542003597942
O           -0.46234446388149        1.30371202279721        1.74711648176814
C            3.65690166840311       -1.34301236542841        1.71009262373409
C           -4.16784125943418        5.64035855851603        2.57518404104961
H            3.64157300759757       -0.81888336598594        4.37666424888695
H            1.40353170030277       -0.32992665480343        0.71374349332675
H            1.92509559873578        0.40743161079467        8.38859996443325
H           -1.46979255637909        2.88578354909600        8.77466048397246
H           -3.90854848233038        4.29601823012754        4.94320569877730
H           -1.95973107844005        4.93765475071118        1.35587668643013
O            3.45917305128680       -1.78523603042827        0.63400963815917
O            4.96452594143382       -1.63044506425997        2.24739872589910
C            5.59380180150053       -2.42915659330926        1.34868058347725
C            0.73922207491499        1.95314816360391       10.06826721715147
O            1.52623265262457        1.18527610152961       10.62576251971025
O            0.19283778472339        3.11163823490988       10.60903067847859
C            0.68531687711555        3.26730039104549       11.90753360969924
O           -5.19185332638838        5.84599659451924        3.28608784984035
O           -3.99737140735362        6.07764388644568        1.28009737897911
C           -4.96635682241483        6.94800126055048        0.79977126700864
C            0.29232369266311        4.22864570030367        0.76531538869724
C           -0.51993553833973        1.01767957267999        0.38496322254782
H           -5.99514303538020        6.67363213164055        1.26127090405289
H           -5.11889859662085        6.85996350095147       -0.25294310157382
H           -4.69020267552369        7.98323906487136        1.02109952538676
H            0.86128899812276        2.31782313545076       12.54387844267085
H           -0.03420896841898        3.93164918434018       12.34069001976026
H            1.46571307694860        3.97889536276322       11.81944294446444
H           -0.48021224001657       -0.08222929774431        0.23470767166556
H            0.21641873893440        1.68008477542666       -0.12243840050564
H           -1.61840346842940        1.26686348571116        0.06092660929944
H            0.98698845747261        4.08392889977592       -0.07184135240192
H            0.21978236211294        5.37911014577028        0.79754369152230
H           -0.62708741995314        3.90837399023030        0.31914225978692
H            5.04266441469532       -3.40644172491467        1.27653940759199
H            6.58711296553912       -2.72890428853979        1.52154649498092
H            5.40391846013681       -1.92860615086580        0.37928869393216
C           -2.60755240502527       -2.89331357381106       -1.19332141922877
C           -1.95720323076975       -2.60111068279626        0.08241004477031
C           -2.82898228766329       -2.04624542105668        1.15419055502981
C           -4.05954677064807       -1.40039401090033        0.74134079858947
C           -4.54839725870658       -1.62833405735260       -0.53337818586511
C           -3.80120181900441       -2.30618422576146       -1.52422899160244
C           -2.37596904898512       -1.83785401801435        2.55397818450299
C           -3.19945850616142       -0.97313090110270        3.35061509950140
C           -4.36408983643038       -0.34224305666355        2.75108550889497
N           -4.85499762430042       -0.72614939981676        1.58143681839450
C           -1.30507597176573       -2.45474080195270        3.25480246846444
C           -0.78326295788482       -1.77267110617985        4.43133893334031
N           -1.42700977145415       -0.74779919300504        5.07887712285201
C           -2.64540364825780       -0.42434283966908        4.57371833779821
C           -3.45734158973753        0.51405798615675        5.27068282064621
C           -4.71916748912876        0.76748810176305        4.81468604381580
C           -5.14098963653988        0.42970028626946        3.56262328350450
C           -0.77391397929148       -3.76491363302631        2.87016854700679
C            0.41245143634198       -4.14572406785599        3.52701324158512
C            1.05559496620132       -3.35518039758138        4.42806856465604
C            0.41688439301561       -2.24213210974553        4.93840336484461
O           -1.46807267659103       -4.69480361998970        2.09309511838053
O           -0.66461310438192       -2.91310024048038        0.34031065360023
C           -4.25340389640986       -2.14532044735841       -2.96421406103010
C            2.31499852413299       -3.72966548492332        5.07239419414249
H           -5.26500308782023       -0.90264064617394       -0.91058728707681
H           -2.31207091796407       -3.75579025311988       -1.80630754904835
H           -6.13945970740752        0.94629457452717        3.30202011812645
H           -3.13784643551129        0.80064927505135        6.24598979376838
H            0.86045939800269       -1.84498823107090        5.74555528937299
H            0.86916435349351       -5.06882127880215        3.18617586526250
O           -3.63044968170715       -2.69923044556367       -3.80152455002206
O           -5.21421432393750       -1.07866790567214       -3.13210398983533
C           -5.15403374992806       -0.67041921186774       -4.58157071662772
C           -5.68519514420041        1.72140196982908        5.51928177512081
O           -6.79544630741810        2.03953857391274        5.11615879274611
O           -5.26558957211682        2.27646230906384        6.78470636311119
C           -6.16993537247785        3.14670654435212        7.39934778317187
O            2.87997544728865       -4.69542097089588        4.69322422126604
O            2.81910518142159       -2.91072469931510        6.08146856059855
C            3.95547714973042       -3.43418185013967        6.59659961410595
C           -2.88597522306172       -4.84159160046985        2.06096632466886
C            0.11528705806661       -3.57128157769851       -0.58440373561359
H            4.57540557846813       -2.78971219918156        7.21002165012835
H            4.52358513974554       -3.82030669920091        5.75661900518626
H            3.66044577130826       -4.21812914600494        7.36269007258727
H           -7.09983681861771        3.11566897433849        6.83012710450758
H           -5.89550368951817        4.21955081305543        7.36421321934554
H           -6.45110917686727        2.61932430436545        8.32400018496619
H           -0.42267392771274       -4.31182318332923       -1.22404553426965
H            1.01160697209941       -3.98300325114263       -0.10906238876687
H            0.54358778380414       -2.71038904110400       -1.22824983352421
H           -3.22842546258404       -4.35294728123515        2.99715159197203
H           -3.29407211395056       -5.86977619640574        1.98083898722159
H           -3.30634132199508       -4.13790676445679        1.29386838588510
H           -5.55554391613947       -1.39871746099302       -5.18539306732002
H           -4.10791795342375       -0.44061984593406       -4.85181699261163
H           -5.74758814601986        0.23981364411394       -4.69099463551432
116
 energy: -22.737381852294 gnorm: 0.485569909523 xtb: 6.6.1 (8d0f1dd)
C            1.48370899130732        0.24623567615321        2.33310088502862
C            0.63724966631892        1.12482548285109        3.08429007278755
C            1.10580206620413        1.67466726880423        4.31957503040319
C            2.23710291504700        1.05350429084273        4.94076806931297
C            3.03408000928335        0.24944179273425        4.19485040975377
C            2.73102201436435       -0.11458102151505        2.89203131905112
C            0.36950927020293        2.59738661940845        5.14161095659665
C            0.37811354668784        2.33131420403391        6.55328198573096
C            1.52801926884103        1.73195421599616        7.12547665741823
N            2.39491594625545        1.15552925153192        6.19683385531220
C           -0.48868224131770        3.58443891661243        4.53296697236205
C           -1.60125190731351        3.90183737047595        5.34381350759241
N           -1.72165213960120        3.55975913609550        6.65846333311375
C           -0.63834809876943        2.98190309200930        7.26093982969342
C           -0.63397455399127        2.91158840551386        8.64517379999834
C            0.54074377845559        2.36780949271745        9.30013141039052
C            1.55564141851802        1.76808678241405        8.50311024839422
C           -0.16710318201645        4.27901752785367        3.24330932082965
C           -1.22310171694217        4.94114764342057        2.66405700251764
C           -2.39512352276189        4.99648870369672        3.35101290930871
C           -2.63901544486255        4.52258138742614        4.63745166592184
O            1.02721057711170        4.09827425957187        2.64146941836205
O           -0.62224489234864        1.47165448304383        2.40152964392351
C            3.62452634024567       -1.08304307334810        2.17432404062545
C           -3.48495982409159        5.89918316051140        2.79902920837306
H            4.00566370984817       -0.16114021071750        4.66512819382157
H            1.36137845146829       -0.19887108269631        1.40759583118783
H            2.51668644445953        1.52286159484910        8.83894580697262
H           -1.44605695492127        3.42649462093723        9.00116959257828
H           -3.61794297658298        4.81396259794970        5.00594235167137
H           -1.41841256836897        5.26972535537491        1.65173557101884
O            3.35657154666836       -1.55858462592322        1.01341902150183
O            4.86351744193492       -1.35416451383766        2.71698540530489
C            5.51983972901246       -2.08214507254953        1.76716249394321
C            0.58276881805603        2.49608173474428       10.89740524534958
O            1.70420210103514        2.76845038183435       11.42311544235979
O           -0.61980782865677        2.20394131018899       11.62576967983090
C           -0.45680459107507        2.29588540581321       12.96982452518235
O           -4.33464931533398        6.28481684058431        3.51793072921187
O           -3.33791015278221        5.99989438570491        1.44459991539588
C           -4.33000794495860        6.96701499171779        0.99988813327271
C            1.51415268504167        5.20631113396870        1.96449045608572
C           -0.99030604614297        0.71948562188429        1.24939034141822
H           -5.30313108443091        6.58290818289155        1.25261139634830
H           -4.27187871563573        7.08097692650913       -0.10990160346965
H           -4.18896551112056        8.02924903897935        1.37311983322174
H           -1.48180018163012        2.06457619154323       13.54832052259053
H           -0.24249912639190        3.37436025512047       13.30199742996924
H            0.54988466094617        1.85082844073373       13.41112099493145
H           -0.80067987712165       -0.33262665578519        1.55411674609730
H           -0.58376936206172        1.14367033521272        0.28816147807136
H           -2.11728735778434        0.84688966274986        1.14675202085300
H            0.80830217839234        5.24614122477973        1.08295043644262
H            2.48029091197052        4.85807567546549        1.69877719190026
H            1.33044585489137        6.07355959563620        2.61906663310255
H            4.75243474364043       -2.60175122705087        1.27971542406596
H            6.25797190163275       -2.69414293009450        2.28348226121575
H            5.91308171128102       -1.25349967321627        1.25497793372298
C           -2.93943122738957       -2.79371704245684       -1.56571411938101
C           -2.34166287726276       -2.74880672712398       -0.30422486044949
C           -3.18589651876184       -2.28541223914028        0.69033957149094
C           -4.52203674376539       -1.90665810592280        0.46032003897172
C           -5.16201683431904       -2.18800607557769       -0.85933532320580
C           -4.37197155042155       -2.67120826919289       -1.78396936406942
C           -2.79000192817470       -2.21004279512753        2.10524092381090
C           -3.49339301133773       -1.28716631110134        2.99313659415378
C           -4.75800994418461       -0.76183528509953        2.52477882799096
N           -5.32084575893132       -1.39380053847479        1.46287025227819
C           -1.64019260316773       -2.90854746262961        2.76842615324382
C           -1.00477187677883       -2.17376895177396        3.84307122990891
N           -1.47143175706070       -1.03183151293619        4.37066914520890
C           -2.76368549495958       -0.66934351606985        4.05218220165095
C           -3.43903766771700        0.37812645571935        4.69559084133256
C           -4.70795439381895        0.86710106572596        4.22782237065848
C           -5.23743959968802        0.36834743602937        3.08361678095669
C           -1.15125928269499       -4.25421797841499        2.53309529754484
C            0.17611799221824       -4.61009787299353        2.82705801596428
C            0.83192454150791       -3.75346604036078        3.75476354778609
C            0.31421786977851       -2.52894483772642        4.16952626371431
O           -1.90597104659750       -5.30265684029777        1.90318810098013
O           -1.03573623365514       -3.29139777265250        0.01023831623161
C           -4.92590155835239       -2.97260783241692       -3.09633097378408
C            2.28932686071166       -4.22413859429387        4.04492877685086
H           -6.09094179685677       -1.64589648068566       -0.99313176557239
H           -2.42797459837934       -3.27246481733512       -2.38395719270064
H           -6.06408813458462        0.98589983058817        2.53230708401494
H           -3.01919083888616        0.80818096648651        5.54925443697535
H            0.92231980316931       -1.83001225391904        4.57719942723715
H            0.76938153016932       -5.39697915777527        2.37991084618813
O           -4.19830058007771       -2.75007227250594       -4.07507800722123
O           -6.17526346804512       -3.51768191637008       -3.20800650923366
C           -6.36577113169172       -3.99264288530366       -4.56626155912001
C           -5.31284160231098        2.12083368952802        4.72920083739799
O           -6.38763831829576        2.53446118798549        4.24486767606617
O           -4.76008786792691        2.52588446020955        5.91330494504235
C           -5.55365839253895        3.50031613694801        6.56509431023724
O            2.74785867172402       -5.15661231443108        3.34349723180936
O            2.90532861219152       -3.25084437351373        4.84700366635216
C            4.35985001923992       -3.27404300330320        4.82589250244980
C           -3.24080714211557       -4.90809950133080        1.72029999974695
C           -0.13901231524675       -2.79846391277281       -1.07075475068233
H            4.92809868318702       -2.62905881121783        4.18630917101501
H            4.57995537808759       -4.21050983389080        4.44130468557633
H            4.62894114315401       -3.36348972050761        5.91534104797679
H           -6.44277337681120        3.62163268935604        6.00725485701431
H           -5.18195433920897        4.47761695088726        6.51231538600892
H           -5.56983050787032        3.32044925964798        7.55507626127752
H            0.11403942197586       -3.60420334986973       -1.95315721720651
H            0.64879891575092       -2.30255825503166       -0.49956693593760
H           -0.58814947609372       -1.90700648161537       -1.55577109513717
H           -3.43576521889818       -4.54215743421175        0.64095138612376
H           -3.52983586143281       -4.11399296220049        2.51280279134639
H           -4.00483172714951       -5.73723123181203        2.03814485732299
H           -6.48777362877881       -3.16230548094283       -5.15076741025445
H           -7.38854103545747       -4.45081071817656       -4.60545110576233
H           -5.62244145044341       -4.62484549504663       -4.94804253496192
116
 energy: -22.761229710699 gnorm: 0.472299272298 xtb: 6.6.1 (8d0f1dd)
C            1.55285901285720        0.78461918015960        2.08843908792256
C            0.68004721890011        1.65120774997785        2.84464781649985
C            0.88124082068929        1.74859760298160        4.22690481113241
C            1.92006058870745        0.98058702541441        4.78660990134923
C            2.65556365176475        0.04438965086505        4.02549039476718
C            2.48499659509294       -0.05538469123139        2.72594006498590
C            0.06761193065167        2.55998419975398        4.95178030710936
C            0.01470361134243        2.32613941588298        6.35935747003066
C            0.99998482747077        1.50639384702846        6.92743039312281
N            1.98084789723774        0.95692474282412        6.12976317102092
C           -0.53211852185119        3.81622647697938        4.58654350167122
C           -1.63106116527485        4.28545155506223        5.42403154493831
N           -1.87598814248356        3.81313716814089        6.72404460617373
C           -0.84385295140494        3.03665394992429        7.18135878534062
C           -0.82792741499370        2.68458217074121        8.56760000742189
C            0.06585907896372        1.81860879693743        9.14047688027756
C            1.05999279276656        1.29892122882564        8.34425383425430
C           -0.19477299386238        4.53291157982974        3.41741237980683
C           -1.15353819458631        5.45647757056634        2.97527576071777
C           -2.29398731925663        5.77131483296416        3.70686829272559
C           -2.42468647185452        5.29202401503087        4.94236136516608
O            1.07012914350653        4.39285941120114        2.88924276027488
O           -0.47157559856704        2.24486744938722        2.27543422402290
C            3.38022675557458       -0.78830245467116        1.73982784422887
C           -3.19035866284492        6.82636372535614        3.34478325313412
H            3.47909106688943       -0.54487289583982        4.48610267881060
H            1.57300408419815        0.76991134648020        1.04401017819056
H            1.88348809640026        0.73950678188117        8.87630078541237
H           -1.75794882621525        2.74295868932931        9.01902400014452
H           -3.15586262912239        5.75849211862977        5.60723687173762
H           -1.25799884718680        6.02484635634753        2.06281123723901
O            2.97021884960600       -0.87160316386350        0.64158023536672
O            4.43567307135214       -1.46014404855512        2.27019332930476
C            4.76269183518729       -2.41875021479145        1.32901126545992
C           -0.00908089889229        1.39298121067141       10.55303899512719
O           -0.01164526666333        0.26531000975927       10.94085130031909
O           -0.13874275290280        2.36218262652550       11.54123721034198
C           -0.42131403618216        1.86880330311850       12.77211118926518
O           -4.07804095560703        7.14994470756231        4.22579064080124
O           -3.20885049726420        7.57357268411506        2.08087032874112
C           -4.51226885372922        7.57843995419386        1.44379607520525
C            1.31341019186664        5.02664377168278        1.70996274135127
C           -0.67533201055991        2.08987171592668        0.88365635164743
H           -5.27643187582358        6.91051761145313        1.70785324805727
H           -4.39855680652439        7.72657355679264        0.31042076976449
H           -5.03372736758780        8.48505146886308        1.55808887262774
H           -0.45985392902611        2.69564779160632       13.60620507846552
H            0.45528114071756        1.09224852559859       13.07043749536718
H           -1.16078930251665        0.92260099821884       12.69070472993413
H           -0.62373979283867        1.02216686782867        0.42635559989888
H            0.30190359633827        2.64680674767648        0.51878275071314
H           -1.49700832107824        2.69650627904070        0.47261838270137
H            0.54544609593611        5.08110690526234        1.07902482563037
H            2.24271164724701        4.45167530043535        1.31635703883144
H            1.51413023937656        6.05434245876247        2.02688981275422
H            3.79152060176324       -2.70351955971442        0.78659867840764
H            5.32180628136284       -3.18075171933251        1.78482788860501
H            5.59151283956938       -2.10004196404664        0.59734783829747
C           -3.06226759601175       -3.75222300174144       -1.54966960837992
C           -2.20297471641494       -3.10744484835177       -0.61589591993156
C           -2.79873616227302       -2.31317116791817        0.42192094217741
C           -4.20515239449406       -2.09567931325123        0.43661891771342
C           -4.91840978044242       -2.74595917418931       -0.55436492288609
C           -4.41152275982029       -3.66747088624239       -1.46607892444478
C           -2.17465644850998       -1.79516502622257        1.54420687285775
C           -2.81930620712862       -0.76343712744118        2.24766433313736
C           -4.16495214905180       -0.38844070373392        1.98375135467287
N           -4.90441931693763       -1.11426171527761        1.07170380440722
C           -0.94064246868176       -2.39245201002967        2.00358185773101
C           -0.33215085162819       -1.64506962570948        3.11834690678628
N           -0.93007661186492       -0.53907380990685        3.69425380071849
C           -2.21386291650572       -0.13830651339757        3.39916082555220
C           -2.91756762285172        0.87839477684929        4.03906405439554
C           -4.23983525924006        1.20542169158177        3.84920978412223
C           -4.79033779711564        0.59209724201462        2.70062498362619
C           -0.56089270313430       -3.83363943293819        1.93846553822808
C            0.53376770670250       -4.22607878694446        2.67297335033800
C            1.12982039372487       -3.51920197748201        3.73145757704344
C            0.68437768562458       -2.19713246222048        3.92711387997453
O           -1.10337335921984       -4.80827259495242        1.15595127023450
O           -0.86949725661770       -3.12180880414927       -1.11721735203779
C           -5.31234800943864       -4.58150034196452       -2.30690092782448
C            2.08235741830439       -4.20912190814246        4.61864897504002
H           -5.98245691078338       -2.60209467806011       -0.60431868962814
H           -2.64702143413273       -4.40829747834635       -2.27947896405773
H           -5.75519657323718        0.95792081724677        2.47225075204910
H           -2.53413627679795        1.50331649489497        4.82068254088860
H            1.07154921466270       -1.55158685633344        4.65409878969853
H            0.80335979674434       -5.22106020858573        2.84955043369132
O           -5.16413912055230       -5.76961542796974       -2.12737553055139
O           -6.26758946879341       -3.90562124144320       -3.06637613712532
C           -7.17427809958046       -4.99878360841401       -3.50112675041665
C           -4.91976471802391        2.16729547161892        4.71409596652753
O           -6.12803616817600        2.27698917347396        4.73116855248833
O           -4.16572092510789        2.84102099020612        5.76988593873954
C           -5.11873938257084        3.46503181607933        6.41696614552160
O            2.56373535846177       -5.24428458053589        4.31666508007672
O            2.34455215667507       -3.58720081672211        5.77108969590628
C            3.38592249395655       -4.23611487813202        6.39983361319102
C           -2.16417626083091       -5.56812301917493        1.62275011703244
C           -0.27073975487827       -1.87455747818226       -0.92203919741547
H            3.74304530368382       -5.12888240334322        5.89297882565110
H            3.10338549286585       -4.58323989092798        7.47069089928610
H            4.20700491055959       -3.48026193823579        6.47563106370444
H           -6.11003286827952        2.82440212912379        6.47919855794439
H           -5.28775023304295        4.41811841274592        5.83182438308456
H           -4.81748307015791        3.91334897912667        7.37300830874218
H           -0.87774636410622       -0.93850207406738       -1.05730502024834
H            0.55582672432150       -1.83192884498025       -1.64711112830803
H            0.09459436149596       -1.59609803265816        0.02048714665482
H           -2.32588442440980       -5.43204743388773        2.68498853527252
H           -1.96437033965411       -6.68734653398289        1.43831485125035
H           -3.12500113460106       -5.31072032993789        1.04470027951742
H           -7.34668098171261       -4.93314877395836       -4.60102558295554
H           -8.08531914399271       -4.85425576527343       -2.85900580126564
H           -6.66780027138118       -5.90030539317994       -3.41824940083516
116
 energy: -22.807576071722 gnorm: 0.423929700141 xtb: 6.6.1 (8d0f1dd)
C            0.85605931650399        1.25280129924233        1.26959245687224
C           -0.03175616705829        1.87846115470778        2.16944728232790
C            0.44392404166912        1.86574639243759        3.56013273826542
C            1.42376385519884        0.93288426280870        4.01117369525706
C            2.28508391751727        0.41986606657697        3.08265204650710
C            1.98262651581781        0.52406296624228        1.73289287843336
C           -0.14395985329334        2.71306565221483        4.55755020924635
C           -0.01416412811229        2.28268313603912        5.94201623912773
C            0.81532657469102        1.06552486968086        6.25212074889858
N            1.54802186845444        0.48685062540311        5.27637486207780
C           -0.68998165180057        3.97895287654348        4.37973675397317
C           -1.58792712679960        4.47443556837360        5.48308223229800
N           -1.82222233969653        3.83977168241180        6.64120098366745
C           -0.89339199094130        2.87320909814455        6.94846822167256
C           -0.76332101355301        2.30841617167694        8.23473368635175
C            0.18953851138162        1.33361061860152        8.61146025678698
C            0.99310315765110        0.69726717044579        7.62180448016260
C           -0.39851726555754        4.88615960819452        3.33020072216568
C           -1.04411603293888        6.08009773907700        3.26621207800432
C           -2.04698832801548        6.44382080328462        4.10353544731621
C           -2.29064460869463        5.72674410929510        5.29219876089825
O            0.58434966626010        4.46618117918161        2.45353890811409
O           -1.29384347089527        2.41216022271988        1.86823114787962
C            2.50144535034201       -0.43355564304084        0.75926006858531
C           -2.48040722846255        7.87635382620299        4.02239775243650
H            3.20951610678146       -0.13871768642683        3.42271873217807
H            0.49547414293853        1.21929865009182        0.29232399110965
H            1.43696989188616       -0.32941612943377        7.90076333770281
H           -1.43602702570608        2.49563165089359        9.02475463275375
H           -2.91801990464599        6.17034051078739        6.11152986659939
H           -0.81417032812491        6.79844445855412        2.54761528500051
O            2.31799030931111        0.00138768688335       -0.37847778479034