116
 energy: -22.928061455056 gnorm: 0.329736929581 xtb: 6.6.1 (8d0f1dd)
C           -3.31122850772930        0.79849766164622       -0.92477639677520
C           -2.44380812530352       -0.12270372891954       -0.27661132624697
C           -1.41337090092821        0.39579727573559        0.56335275196199
C           -0.89266158675590        1.65801491088749        0.27377586709581
C           -1.72665675402493        2.51431363229076       -0.49448366572522
C           -2.95444148494349        2.13954154133227       -1.01494489940871
C           -0.74098268209890       -0.43411532818871        1.49825021926784
C            0.56872586496315        0.03782116815119        1.86248088067890
C            1.03782416582094        1.29402317993033        1.50887470833621
N            0.31238977034758        2.07067427098208        0.65193736800696
C           -1.29695700510141       -1.39996043042223        2.41574187746061
C           -0.38243517664656       -2.18060797534842        3.13232615520648
N            0.91308504082021       -1.90366887689689        3.30325166013478
C            1.37712470144904       -0.74872102533751        2.81811050966982
C            2.52149331701875       -0.17739833758153        3.39379298866852
C            2.95849061756259        1.02681208890480        2.95105897606587
C            2.24288949469137        1.78498308775960        2.03503020483770
C           -2.74860936222260       -1.74497937691422        2.38401158947411
C           -3.09416315450955       -2.91614440870436        3.00571134491758
C           -2.16786021984049       -3.77788778654213        3.63251872101904
C           -0.85708937311598       -3.40495313382985        3.68547234358092
O           -3.71994433332149       -0.94984598373544        1.67726658385724
O           -2.55702603277562       -1.47241711578389       -0.57241635275616
C           -3.84297843593025        3.13357444054366       -1.60938954875544
C           -2.68769581069131       -5.03867041417370        4.30484659386931
H           -1.39666850744143        3.51251503834900       -0.76806311868865
H           -4.27662633836220        0.55105838579656       -1.33106614114542
H            2.66329581305412        2.73912661909249        1.72562431984580
H            3.05775395548473       -0.69369546277216        4.16536137542516
H           -0.24710966264510       -4.12034095424229        4.22946223699121
H           -4.11477991332403       -3.04712728052358        3.03244694615357
O           -4.21824883374556        4.03433712717988       -0.87713382485991
O           -4.44510595673734        2.90643496899600       -2.81853501752979
C           -5.44216520282800        3.83300025693726       -3.02488532025093
C            4.23586651889298        1.50004220933226        3.59165660008449
O            5.05927614697201        0.66079890002952        3.91714215179376
O            4.47001334453535        2.86385149488593        3.72605651435371
C            5.79457498613219        3.08584475587818        4.15829123132174
O           -3.82227255313510       -5.27347675879771        4.16636005494405
O           -1.85023202017753       -5.79767454267276        5.06656077253571
C           -2.55119635829503       -6.86252441382958        5.62930343183426
C           -5.07197156564436       -1.42399175670916        1.58830531863830
C           -1.33089900128490       -2.23622472573986       -0.99264499351172
H           -2.54510546830388       -7.76426885143998        4.99136022291012
H           -3.57194749219491       -6.44405511486021        5.74196173723541
H           -2.09133598235598       -7.02043774843818        6.64022264233588
H            5.72707967266424        3.46798026205549        5.10135971236643
H            6.34060091246885        3.78468702308830        3.50069950143490
H            6.17933064298187        2.03010500085905        4.19342358084693
H           -0.91862729772622       -2.57650129080332       -0.01361370304871
H           -0.49769766914251       -1.60651221708571       -1.34094446550576
H           -1.52632419730509       -2.94569707152159       -1.75361447637286
H           -5.11788846557077       -2.41810833635233        1.17520213188926
H           -5.67929807973498       -0.69619639428435        1.04301666067831
H           -5.57598832326623       -1.42383358739762        2.57928294206544
H           -6.13050215934830        3.76035386975488       -2.23272855695873
H           -5.86615610071888        3.45938329385866       -4.02668959924245
H           -5.13479557532099        4.87790991548477       -2.98314551356402
C           -1.38192942069774        3.73616555005018        2.91232598411686
C           -1.84821468128685        2.59982427735607        3.49755545445181
C           -1.05946531454833        2.05730632010638        4.60922730982276
C            0.19893954712228        2.69376791964407        4.86302140881997
C            0.50425395911860        3.94630308659851        4.28768785650746
C           -0.26031777722226        4.46998310053134        3.25072669343212
C           -1.20488993561782        0.74454293276906        5.14851520323437
C           -0.06287609782692        0.02744069315890        5.60930570802864
C            1.19208754369866        0.71421540266195        5.78882868583885
N            1.19428660993148        2.06344359410476        5.62744624321596
C           -2.41361422770794        0.07928500213936        5.25249410304426
C           -2.45851584031083       -1.32662100968547        5.60237876023992
N           -1.29466212405906       -1.98318595734370        5.89916817085159
C           -0.14475655767527       -1.32117560077092        5.98824682881008
C            0.97209270935794       -1.98958449505532        6.53157704134458
C            2.21982707914082       -1.36973967291181        6.68703967237737
C            2.30561929262884       -0.09745313075593        6.26436900324455
C           -3.73018485967715        0.71367583494582        5.25810242262992
C           -4.89964478833448       -0.06184623426677        5.21204641615509
C           -4.82617965800088       -1.39228978090841        5.46901303780036
C           -3.67144193418464       -1.98914944386360        5.67265433266067
O           -3.75568638935321        2.07705011038914        5.52067969627343
O           -2.94192434743730        1.91263938797883        3.01658762327703
C            0.21273512614467        5.50086066357994        2.34765104514621
C           -6.06660304520411       -2.17604633098929        5.80641622556876
H            1.41756699010566        4.38133362238595        4.66974005703471
H           -1.82880610647429        4.11982501512100        2.06992133318584
H            3.26888037378556        0.32655662585251        6.31721410015598
H            0.87146188387207       -3.08471526305024        6.57830423410869
H           -3.67716811065157       -3.05999292755990        5.83019634570050
H           -5.77379677507622        0.43595144608221        4.71017130754348
O            1.34459852619901        5.82615848916894        2.44941456579099
O           -0.74718748219123        6.07961784856304        1.59848183464284
C           -0.21473095568964        7.24015934882472        1.05753806029483
C            3.53228080814219       -2.00967610361154        7.02506769044485
O            3.64093082622715       -3.14437803815732        7.50071391725347
O            4.56565258381079       -1.22937033368332        6.69086985080897
C            5.72579357310716       -1.80692399125161        7.22246151275881
O           -7.04801223588612       -1.95726935745904        5.14194115322235
O           -6.01514389321278       -2.93743591896022        6.94765316328794
C           -7.21292732384718       -3.62681918543340        7.15115816329978
C           -4.95459780685163        2.65960679932188        5.86868674392943
C           -3.68284113682406        2.59129188358641        2.05479246020704
H           -7.43119628931628       -4.22607794725959        6.20622607140901
H           -8.06548455146707       -2.91765848248592        7.29781126410398
H           -7.07314693247270       -4.33087306029711        7.91223421050944
H            6.57332189837178       -1.29353136199234        6.78341268688262
H            5.74663761932316       -2.84282155125561        6.88089468184451
H            5.69426191474290       -1.72781984964892        8.29460302186842
H           -4.10481209541493        3.44288266176275        2.60483747673152
H           -4.49244774344916        1.87419893016926        1.82433103764650
H           -3.18901540870812        2.85154642679373        1.06781919454921
H           -5.55414326821421        2.76698137191684        4.93950725322359
H           -4.78658370641210        3.62090640967288        6.25983200635257
H           -5.43485580473958        1.97242995129449        6.65265772412460
H            0.89164886030839        7.38838561720231        1.13776105146914
H           -0.62894889903848        8.04195665205089        1.64837664327952
H           -0.59282546386754        7.45699159724320        0.03719083132488
116
 energy: -22.516624142026 gnorm: 0.599074787426 xtb: 6.6.1 (8d0f1dd)
C           -3.17231590536213        0.04713377831554       -1.01217154246179
C           -2.22388733476374       -0.88048745352002       -0.49535672097698
C           -1.07912658992889       -0.50467663508634        0.35709230997509
C           -0.63999784143588        0.78371177751724        0.18332149995913
C           -1.55756501310347        1.71998467954992       -0.48081392976210
C           -2.74871910080832        1.34957739967757       -0.98732701769595
C           -0.38716221971015       -1.33859970398593        1.36830411963356
C            0.71510065445666       -0.81401079895596        2.10280269720412
C            1.17978062308930        0.49775106839748        1.70949348277301
N            0.55286423651337        1.17822730148444        0.68945382698813
C           -1.00543733507745       -2.35793129692390        2.23013364307718
C           -0.20290989936149       -3.26314952052977        3.02133308339214
N            1.12230561247044       -2.84787058003654        3.32944773295120
C            1.48263676029309       -1.51395344345791        3.09903879014052
C            2.70315146395207       -0.95146622516036        3.54376543011076
C            3.27002905280129        0.19115742492898        3.14778660057527
C            2.46328926173717        0.93407936545510        2.30798642652885
C           -2.42261151896651       -2.47205187236433        2.34610344870358
C           -2.99650904579239       -3.62360265295201        3.01950362236049
C           -2.05981758024475       -4.49679251267956        3.53094301355538
C           -0.67324264517944       -4.39020220449400        3.67036055913817
O           -3.32690195167844       -1.66407014427386        1.67716101794431
O           -2.57146332358035       -2.15947737093938       -0.95392350762831
C           -3.49617817090906        2.49175559179182       -1.30512334257907
C           -2.95335183839283       -5.75186755122642        3.63553802535162
H           -1.22397269096068        2.72261199799033       -0.67743301489300
H           -4.05345769113457       -0.30077493040363       -1.58610462926296
H            2.91376376322725        1.82789218708787        1.91571098521008
H            3.30899117617484       -1.71065526943765        4.07431328927399
H           -0.01917049364700       -5.05935351676501        4.35674510232898
H           -4.05207471615120       -3.92245872579871        2.98002091009316
O           -4.72506566798445        2.38099497763268       -1.41614533258439
O           -2.67571882415919        3.64038825968423       -1.49934084388467
C           -3.60152934605269        4.63805734742715       -2.13472900814270
C            4.75473643855543        0.54844315002154        3.31492315740087
O            5.46439575393134       -0.03119340342636        4.04642625145376
O            5.15411694114300        1.45916725684428        2.27348587847032
C            6.49020914688223        1.42214372028477        2.09821227462796
O           -4.19365778189664       -5.84883540238554        3.53442480040187
O           -2.08343232583721       -6.92082768023327        3.75244817609555
C           -2.56367105235563       -8.33617825422746        3.28467059617182
C           -4.51101420808368       -2.17916949877724        1.00022784689864
C           -1.68179567316381       -3.00658991029740       -0.68968262263280
H           -2.10537465419614       -9.30519799967324        3.54947580142651
H           -2.49608004185128       -8.17994993490022        2.14226592135012
H           -3.66200450572423       -8.48062924627629        3.57228323466833
H            6.75266424361940        0.32589464469527        2.25850335016656
H            6.74479078244390        2.34636281843444        2.71230996027904
H            6.61680355470216        1.83442945215883        0.99022502575282
H           -2.16753224387106       -3.91910522024671       -0.22212127968850
H           -1.02247799700450       -2.58655944720783        0.04625151858531
H           -1.56387485204705       -3.42814153689354       -1.82135297746291
H           -4.96118204015217       -2.84210064190857        1.78443528234234
H           -4.01383613030129       -2.88445603623340        0.25490335680471
H           -5.08723793689990       -1.17450344676086        1.09270175277455
H           -3.22169561079966        5.02296200933365       -2.92866358794614
H           -4.06319747286263        5.10493884980485       -1.19233094706550
H           -4.39751000658963        3.96511836347131       -2.48516110711542
C           -1.97343726971721        4.46515441883953        3.40477088786497
C           -2.22355732832555        3.26157234506772        4.03955265175771
C           -1.40814849041665        3.05694057007596        5.31587098370779
C           -0.04571064424786        3.65353189111439        5.33886530192382
C            0.08136888324122        4.71563275364703        4.38602415104162
C           -0.92882607650480        5.29065502006651        3.70422407954890
C           -1.46594230145128        1.90463047939744        6.08312859027972
C           -0.28907222578021        1.26201059406094        6.40710538480830
C            0.75358610859197        2.17622922293523        6.72522104842973
N            0.78522712508085        3.51179870643301        6.53105112364246
C           -2.58278885708306        1.04473752764105        6.16416971684882
C           -2.42650985733487       -0.39083900718213        5.97012610752061
N           -1.22880575631230       -1.01108166487167        6.10557651323060
C           -0.17163864657644       -0.16122444527113        6.33504032467507
C            1.08710651694024       -0.48710076730338        6.63312116113879
C            2.10334846920314        0.26903558054733        6.99603672087540
C            1.88446749501985        1.51516840262871        7.25797084922849
C           -3.88681893726786        1.60871705772115        6.13259422782808
C           -5.01225137382133        0.71767042772990        5.92179027997540
C           -4.80640461666099       -0.73450555730910        5.71364679390154
C           -3.52717533283095       -1.34679225237134        5.72345036601616
O           -3.99650012647021        3.08019203669997        6.33139160465664
O           -3.07159457696295        2.21335351101487        3.44755612406604
C           -1.11243346974249        6.54440881285253        2.98322065149322
C           -5.92874485603953       -1.58665526599119        5.68137118329173
H            0.95987778212011        5.41055483664117        4.62771187638436
H           -2.95938238961403        4.93870915116438        2.96751776924545
H            2.70578330216830        2.15707059776323        7.57761033912820
H            1.16482513056657       -1.59879549260904        6.73764544109651
H           -3.38866675083703       -2.34381516281314        5.65265103874062
H           -5.91165321036385        1.04319716136017        5.47175684818978
O           -0.32665310983710        7.40436693448300        3.43798922192326
O           -1.87335290614587        6.71534263364744        1.97356103086916
C           -1.57604745597976        7.87967161508289        1.31534277146110
C            3.43068578008831       -0.40212409457701        7.04713252754442
O            4.46240985954567        0.22312768448961        6.94273542524941
O            3.56640664311853       -1.72435575487575        7.18918924365883
C            4.81414482167314       -2.22763588276179        6.92591465178808
O           -7.02960054172622       -1.05722342896131        5.60258523298460
O           -5.81571822318615       -2.85522980585359        5.27827528545243
C           -6.85319293679487       -3.44822637212465        4.68466953751690
C           -4.85561511278930        3.24778321772352        7.35446825961557
C           -3.37562543076744        2.37180022544607        2.06842414501308
H           -7.13841768684739       -2.87753249385979        3.79900464092457
H           -7.77875757503956       -3.82576302343765        5.07616555675651
H           -6.37130447821205       -4.30690359537680        4.23610726762308
H            5.59129073110666       -1.56186920788199        7.34462221312163
H            4.80491842285272       -2.05102497446010        5.92605221300784
H            4.53000234932677       -3.24185383986783        7.24345847598614
H           -3.45042721504855        3.35095044705524        1.71756474870991
H           -4.19579093614920        1.75812470347940        1.87214211633846
H           -2.60313003793873        1.83673189606135        1.62084125118329
H           -5.83056733767174        3.47759068088233        6.95324649965774
H           -4.46814909548201        3.76427523250902        8.17216461861980
H           -4.94177626658211        2.22849250994327        7.67250955517247
H           -1.22909300905335        7.55908545672590        0.33598376182837
H           -0.75889019045904        8.48231240031175        1.99585357714278
H           -2.55741563220060        8.31219005143466        1.28776791675842
116
 energy: -22.541353910775 gnorm: 0.606749595761 xtb: 6.6.1 (8d0f1dd)
C           -2.03406855492532        0.75581795076757       -0.58848996042013
C           -1.66521692768439       -0.47868348227687        0.11369605213649
C           -0.74986109853235       -0.28367088068028        1.22339279961500
C           -0.05398218025545        0.98642501187859        1.24797487572191
C           -0.31881929104515        2.20826060554490        0.55593952747937
C           -1.35995584200853        1.95185851739624       -0.39448737061633
C           -0.25460526348788       -1.46818878385563        1.97212844422630
C            1.11991501766037       -1.44279043743579        2.16002194733815
C            1.77401033821210       -0.16696400518752        2.04754355417938
N            1.22313891330567        0.96467963592897        1.78025012425294
C           -0.94869679715901       -2.65310687059370        2.36486425802823
C           -0.14159348766590       -3.80123552355854        2.68692877386851
N            1.19057221262337       -3.74481290609240        2.82742293211378
C            1.74752054617289       -2.60436745173641        2.66611118599471
C            3.12176156314560       -2.51620995050900        2.81575895541649
C            3.82177087021835       -1.30506617230972        2.81506843335853
C            3.08916058323594       -0.10967948317620        2.59856142633466
C           -2.39717088927764       -2.76675270164374        2.62497040842024
C           -2.94601417318457       -3.93286740189139        3.00452402089889
C           -2.15858280115372       -5.04076946306201        3.09137765352282
C           -0.80486046903649       -5.01792571781584        2.91581708909514
O           -3.05747570061986       -1.48611343695640        2.60303797835355
O           -2.44906385348561       -1.57032092699565       -0.01522429213776
C           -2.18954555605149        2.98292195056306       -1.20412496757133
C           -2.84484715478214       -6.24638920605194        3.58840555303108
H            0.29011278635586        3.13091543182643        0.77679839204932
H           -3.00811078664996        0.81472026678799       -1.18382405430195
H            3.67286326176039        0.76734328074103        2.55260392185517
H            3.67664442301043       -3.44051976063182        2.73110259461166
H           -0.01741996158273       -5.72070098864757        3.09294240693589
H           -4.14931418819326       -3.93217214669544        3.27936754422449
O           -1.32819263936994        3.89960048935332       -1.34835584157072
O           -3.46746124270829        2.90226300016924       -1.68844888638377
C           -3.61852541674465        3.78538631835970       -2.84131442899421
C            5.24213470530304       -1.25489893151601        3.07472907351103
O            5.89300211885638       -2.30457003507874        2.85816807511817
O            5.88351575560576       -0.13905621067534        3.66369400765370
C            6.75326710057179       -0.84923119812313        4.48941554338604
O           -4.05130799110038       -6.02178005298466        3.68503929251701
O           -2.29484035156975       -7.47496986674892        3.69690821802229
C           -3.26796142985112       -8.46650868813605        4.29493754053009
C           -4.41150932308090       -1.72737302625341        2.42562543662649
C           -2.13998697051357       -2.18811466538809       -1.29935772177534
H           -4.35264125519598       -8.32037597260524        4.26799141957482
H           -3.11208135080472       -8.45057342559802        5.39059942285753
H           -3.11707759816562       -9.39725956673361        3.96137965506073
H            6.61889753929109       -0.45956958655306        5.40147294954698
H            7.85712973656664       -0.55925754585971        4.23209743898788
H            6.60302153846709       -2.02129882896810        4.54247702641453
H           -1.98942786213144       -3.35065892032337       -1.39287076044272
H           -1.35383698495864       -1.65965823857998       -1.79550542445046
H           -3.02983661486578       -1.74602919565350       -1.74026784997477
H           -4.83575369812247       -2.83541991630366        2.36501840054290
H           -4.82444700549862       -1.26560777939971        1.38279800510479
H           -4.68889919045671       -1.69986534724244        3.56336596264914
H           -4.33991205858622        3.40512593269451       -3.58363506771937
H           -2.73437662163038        4.08603666163326       -3.21230579307886
H           -3.76965469043621        4.86562040179076       -2.28566942885324
C           -3.31530577212499        5.40232109032298        3.70709135445752
C           -3.16908248155271        3.93157205646541        3.95498513809933
C           -1.93857737256687        3.51848181639104        4.35161820445294
C           -0.82258520935243        4.38230374070922        4.39513884264551
C           -0.89156035969168        5.55719328417695        3.52216670273355
C           -2.14606810889199        6.18013354706452        3.26741353570076
C           -1.80751951993439        2.14088027492972        4.70386157005129
C           -0.44537074100857        1.75870612247755        5.07247260978210
C            0.65320832310568        2.61921417971947        5.11481875721846
N            0.46472069162342        3.92043129978355        4.54069090397738
C           -2.65482196808668        1.13569269839437        5.03109274670336
C           -2.42782935187229       -0.28441964782228        4.95017447420856
N           -1.12664352247865       -0.65005626835533        5.03482670454323
C           -0.13090741245403        0.24191942795311        5.13795473379638
C            1.20399510980528       -0.13623215836783        5.55565458078353
C            2.11885222831776        0.74236499710427        5.85617544158563
C            1.89637406511230        2.14272831161544        5.41740897721420
C           -3.96621132337351        1.51733942673854        5.55357938265615
C           -4.92557572435747        0.54967859417814        5.72180208784374
C           -4.65174936813779       -0.78513644009248        5.57104982347903
C           -3.32995614746081       -1.25617603408957        5.31237070569093
O           -4.02563051754187        2.77375544932507        6.23217194099634
O           -4.23166583749135        3.08343684543645        3.56830627418911
C           -2.18417095519171        7.69522509566120        3.29069201764515
C           -5.64463488769711       -1.85181254260586        6.02544195351698
H           -0.00765560884877        6.16555292544055        3.50551035933416
H           -4.26195783905248        5.56121530509128        3.46856388537509
H            2.69125769030316        2.62662848319947        4.94546890353768
H            1.20224215034800       -1.15665218417362        5.99218264529317
H           -3.23581076746336       -2.32322124385245        5.10311701787256
H           -5.99114532105434        0.65691582864995        6.02586922623589
O           -1.24363528092940        8.45191197012582        3.53004406839277
O           -3.41555672558328        8.31792209291572        3.12787270255377
C           -3.52919925100122        9.70544084890410        3.60400500917013
C            3.39813227420188        0.02696548786998        6.12744909813413
O            4.46499039951078        0.58476891862442        5.94708304632388
O            3.53849810302671       -1.24445784122406        6.53564246909015
C            4.75495488717534       -1.57859267707733        6.82403265573144
O           -6.53307277611752       -1.61943157075840        6.75319921873118
O           -5.24671702931897       -3.01355352934010        5.42744648321386
C           -6.40406295236953       -3.87788995390823        5.20110695585020
C           -4.84561873019615        2.73062797359142        7.29575619234312
C           -4.29608819012755        2.46569211156244        2.22011927298416
H           -6.46069762677762       -3.97764695321770        4.22724852202015
H           -7.16122587137641       -3.07700361421264        5.53628897719243
H           -6.09730949795115       -4.78116555816338        5.66562561125069
H            4.68808956756738       -2.71201709181138        7.20821955921171
H            5.34748136722637       -0.87154521045618        7.41705880737021
H            5.17207923935638       -1.50933026430249        5.77041086661373
H           -4.65694709620219        3.12166051256041        1.48571431002699
H           -4.72919277933878        1.48653652367240        2.06942269723299
H           -3.20994766395640        2.15290922148612        1.82457589191127
H           -4.70860353206567        1.75735330523191        7.76599454099881
H           -5.90693753389228        2.87554344187787        6.95954135654685
H           -4.71249666802745        3.53845624999055        8.04927794205967
H           -3.95790065874329       10.32445356454816        2.78830318452416
H           -2.60506497374426       10.02883928499037        4.20541696679375
H           -4.35343700436129        9.58598603077812        4.41936975175271
116
 energy: -22.518604263155 gnorm: 0.587242535145 xtb: 6.6.1 (8d0f1dd)
C           -2.03081956200367        0.64344602985384       -0.59599786907503
C           -1.47132806234357       -0.56901630612710       -0.13885150174489
C           -0.28412676392444       -0.52026278957387        0.65454057351672
C            0.72629544461446        0.59325545800475        0.58142471434417
C            0.26780972808483        1.62298219734979       -0.21094916045436
C           -1.11200398917000        1.74962429686290       -0.63300446052711
C           -0.02189228544119       -1.52639961818271        1.74748786774674
C            1.34886700285479       -1.85391400373757        1.95970659699310
C            2.28277019121240       -0.97758881149241        1.45126369904672
N            2.08870612378577        0.18876433360455        0.83166081187171
C           -1.01070243504866       -2.50114694822728        2.25313025259533
C           -0.26811534531877       -3.64054249621706        2.95158767010680
N            1.00119629127222       -3.92738559050479        2.96015273276851
C            1.88189757135562       -3.05958539683056        2.56127312398590
C            3.26094582586507       -3.42396268254090        2.46435672564426
C            4.21892705053473       -2.41850620659944        2.36105967936409
C            3.67318411660628       -1.17512808678012        1.71677197862706
C           -2.40082594530492       -2.27251015440822        2.50094993211862
C           -3.04867367423159       -3.45226292318374        3.14587485023896
C           -2.25765339849770       -4.43976126253774        3.73257717162906
C           -0.96937613234976       -4.62391403259380        3.49239987454705
O           -2.96293811985904       -0.97118954664247        2.26975708459178
O           -2.00028714278615       -1.69829957680047       -0.67854521303277
C           -1.60109746156071        3.15734522572825       -1.00218391301690
C           -2.92641151705642       -5.35373474369947        4.68071725856283
H            0.95001713685643        2.35522125136648       -0.47076203805501
H           -3.01102772364048        0.62886646410399       -1.01676031423245
H            4.45227797523448       -0.41176142751943        1.50388561948708
H            3.79887623839741       -4.05330893360007        3.16783470136962
H           -0.49399832421940       -5.51656242347695        3.96105986709063
H           -3.98285357573979       -3.53050597634793        3.42105801070711
O           -0.84327858821103        4.00057703762941       -1.40670158632608