      -----------------------------------------------------------      
     |                   =====================                   |     
     |                           x T B                           |     
     |                   =====================                   |     
     |                         S. Grimme                         |     
     |          Mulliken Center for Theoretical Chemistry        |     
     |                    University of Bonn                     |     
      -----------------------------------------------------------      

   * xtb version 6.6.1 (8d0f1dd) compiled by 'conda@1efc2f54142f' on 2023-08-01

   xtb is free software: you can redistribute it and/or modify it under
   the terms of the GNU Lesser General Public License as published by
   the Free Software Foundation, either version 3 of the License, or
   (at your option) any later version.
   
   xtb is distributed in the hope that it will be useful,
   but WITHOUT ANY WARRANTY; without even the implied warranty of
   MERCHANTABILITY or FITNESS FOR A PARTICULAR PURPOSE.  See the
   GNU Lesser General Public License for more details.
   
   Cite this work as:
   * C. Bannwarth, E. Caldeweyher, S. Ehlert, A. Hansen, P. Pracht,
     J. Seibert, S. Spicher, S. Grimme, WIREs Comput. Mol. Sci., 2020, 11,
     e01493. DOI: 10.1002/wcms.1493
   
   for GFN2-xTB:
   * C. Bannwarth, S. Ehlert and S. Grimme., J. Chem. Theory Comput., 2019,
     15, 1652-1671. DOI: 10.1021/acs.jctc.8b01176
   for GFN1-xTB:
   * S. Grimme, C. Bannwarth, P. Shushkov, J. Chem. Theory Comput., 2017,
     13, 1989-2009. DOI: 10.1021/acs.jctc.7b00118
   for GFN0-xTB:
   * P. Pracht, E. Caldeweyher, S. Ehlert, S. Grimme, ChemRxiv, 2019, preprint.
     DOI: 10.26434/chemrxiv.8326202.v1
   for GFN-FF:
   * S. Spicher and S. Grimme, Angew. Chem. Int. Ed., 2020, 59, 15665-15673.
     DOI: 10.1002/anie.202004239
   
   for ALPB and GBSA implicit solvation:
   * S. Ehlert, M. Stahn, S. Spicher, S. Grimme, J. Chem. Theory Comput.,
     2021, 17, 4250-4261. DOI: 10.1021/acs.jctc.1c00471
   
   for DFT-D4:
   * E. Caldeweyher, C. Bannwarth and S. Grimme, J. Chem. Phys., 2017,
     147, 034112. DOI: 10.1063/1.4993215
   * E. Caldeweyher, S. Ehlert, A. Hansen, H. Neugebauer, S. Spicher,
     C. Bannwarth and S. Grimme, J. Chem. Phys., 2019, 150, 154122.
     DOI: 10.1063/1.5090222
   * E. Caldeweyher, J.-M. Mewes, S. Ehlert and S. Grimme, Phys. Chem. Chem. Phys.
     2020, 22, 8499-8512. DOI: 10.1039/D0CP00502A
   
   for sTDA-xTB:
   * S. Grimme and C. Bannwarth, J. Chem. Phys., 2016, 145, 054103.
     DOI: 10.1063/1.4959605
   
   in the mass-spec context:
   * V. Asgeirsson, C. Bauer and S. Grimme, Chem. Sci., 2017, 8, 4879.
     DOI: 10.1039/c7sc00601b
   * J. Koopman and S. Grimme, ACS Omega 2019, 4, 12, 15120-15133.
     DOI: 10.1021/acsomega.9b02011
   
   for metadynamics refer to:
   * S. Grimme, J. Chem. Theory Comput., 2019, 155, 2847-2862
     DOI: 10.1021/acs.jctc.9b00143
   
   for SPH calculations refer to:
   * S. Spicher and S. Grimme, J. Chem. Theory Comput., 2021, 17, 1701-1714
     DOI: 10.1021/acs.jctc.0c01306
   
   with help from (in alphabetical order)
   P. Atkinson, C. Bannwarth, F. Bohle, G. Brandenburg, E. Caldeweyher
   M. Checinski, S. Dohm, S. Ehlert, S. Ehrlich, I. Gerasimov, C. Hölzer
   A. Katbashev, J. Koopman, C. Lavigne, S. Lehtola, F. März, M. Müller,
   F. Musil, H. Neugebauer, J. Pisarek, C. Plett, P. Pracht, F. Pultar,
   J. Seibert, P. Shushkov, S. Spicher, M. Stahn, M. Steiner, T. Strunk,
   J. Stückrath, T. Rose, and J. Unsleber
   
 * started run on 2025/03/11 at 11:07:45.217     

           -------------------------------------------------
          |                Calculation Setup                |
           -------------------------------------------------

          program call               : xtb scoord.19 --md --gfnff --input md_settings.inp
          hostname                   : cx3-14-29.cx3.hpc.ic.ac.uk
          coordinate file            : scoord.19
          omp threads                :                     8

   ID    Z sym.   atoms
    1    6 C      1-9, 11, 12, 14-21, 24, 25, 34, 35, 38, 41-43, 59-67, 69,
                  70, 72-79, 82, 83, 92, 93, 96, 99-101
    2    7 N      10, 13, 68, 71
    3    8 O      22, 23, 32, 33, 36, 37, 39, 40, 80, 81, 90, 91, 94, 95, 97,
                  98
    4    1 H      26-31, 44-58, 84-89, 102-116

molecular fragmentation (1/2 indicates fragments):
111111111111111111111111111111111111111111111111111111111122222222222222
22222222222222222222222222222222222222222222
# atoms in fragment 1/2:    58    58
 fragment masses (1/2) :      501.47      501.47
CMA distance (Bohr)    :  15.529
constraining FC (au)   :  0.0500
########################################################################
[WARNING] Please study the warnings concerning your input carefully
-1- set_md: the key 'thermostat' is not recognized by md
########################################################################

          ==================== Thresholds ====================
          CN  :   150.00000
          rep :   500.00000
          disp:  2500.00000
          HB1 :   250.00000
          HB2 :   450.00000

          Pauling EN used:
          Z : 1  EN :  2.20
          Z : 6  EN :  2.55
          Z : 7  EN :  3.04
          Z : 8  EN :  3.44
          electric field strengths (au): 0.000

           ------------------------------------------------- 
          |           Force Field Initialization            |
           ------------------------------------------------- 

          distances ...
          ----------------------------------------
          generating topology and atomic info file ...
          pair mat ...
          computing topology distances matrix with Floyd-Warshall algo ...
          making topology EEQ charges ...
          #fragments for EEQ constrain: 2
          ----------------------------------------
          generating topology and atomic info file ...
          pair mat ...
          computing topology distances matrix with Floyd-Warshall algo ...
          making topology EEQ charges ...
          rings ...
          # BATM   1140
          # H in HB   42
          doing iterative Hueckel for 2 subsystem(s) ...

  atom   neighbors  erfCN metchar sp-hybrid imet pi  qest     coordinates
    1  C       3    2.81   0.00         2    0    1  -0.013   -6.146679   -1.607604    2.993118
    2  C       3    2.85   0.00         2    0    1   0.104   -4.433797   -3.400352    2.395503
    3  C       3    2.81   0.00         2    0    1   0.014   -3.267248   -5.030533    4.143264
    4  C       3    2.89   0.00         2    0    1   0.068   -3.744456   -4.410945    6.709366
    5  C       3    2.83   0.00         2    0    1  -0.010   -5.488094   -2.649782    7.362277
    6  C       3    2.82   0.00         2    0    1   0.024   -6.582374   -1.173467    5.616975
    7  C       3    2.79   0.00         2    0    1   0.003   -1.698493   -7.334581    3.539297
    8  C       3    2.83   0.00         2    0    1   0.018    0.120155   -7.883828    5.651346
    9  C       3    2.85   0.00         2    0    1   0.069   -0.573523   -6.966814    8.129530
   10  N       2    1.98   0.00         2    0    1  -0.182   -2.334366   -5.291804    8.595249
   11  C       3    2.81   0.00         2    0    1   0.014   -1.342489   -8.989549    1.309243
   12  C       3    2.87   0.00         2    0    1   0.068    1.218585  -10.270060    1.175315
   13  N       2    1.97   0.00         2    0    1  -0.182    3.110285  -10.426590    2.834372
   14  C       3    2.87   0.00         2    0    1   0.069    2.314045   -9.446807    5.194468
   15  C       3    2.81   0.00         2    0    1  -0.009    3.254099  -10.609369    7.372970
   16  C       3    2.81   0.00         2    0    1   0.024    2.863892   -9.664494    9.806363
   17  C       3    2.84   0.00         2    0    1  -0.009    1.051980   -7.838093   10.086306
   18  C       3    2.80   0.00         2    0    1   0.104   -3.080980   -9.255545   -0.683421
   19  C       3    2.80   0.00         2    0    1  -0.013   -2.180036  -10.024505   -3.022112
   20  C       3    2.78   0.00         2    0    1   0.024    0.417074  -10.880938   -3.484412
   21  C       3    2.83   0.00         2    0    1  -0.010    2.027486  -11.098904   -1.230318
   22  O       2    1.91   0.00         3    0    1  -0.326   -5.611537   -8.639672   -0.467017
   23  O       2    1.92   0.00         3    0    1  -0.326   -4.106261   -3.809744   -0.174597
   24  C       3    2.91   0.00         2    0    1   0.224   -8.678229    0.856356    6.389981
   25  C       3    2.81   0.00         2    0    1   0.224    1.767948  -10.248645   -6.143284
   26  H       1    0.96   0.01         0    0    0   0.083   -6.508575   -2.909366    9.231574
   27  H       1    0.97   0.01         0    0    0   0.084   -7.364522   -0.732870    1.507589
   28  H       1    0.98   0.00         0    0    0   0.084    0.364897   -7.228140   11.866814
   29  H       1    0.94   0.02         0    0    0   0.084    4.635945  -12.296165    6.799713
   30  H       1    0.98   0.00         0    0    0   0.083    3.807817  -11.727743   -1.334950
   31  H       1    0.97   0.01         0    0    0   0.084   -3.601152  -10.767140   -4.389061
   32  O       1    0.98   0.00         2    0    1  -0.364  -10.957794    0.335051    6.265008
   33  O       2    1.92   0.00         3    0    1  -0.315   -8.064673    3.011862    7.366355
   34  C       4    3.57   0.00         3    0    0   0.037  -10.178968    4.370100    7.934605
   35  C       3    2.87   0.00         2    0    1   0.223    4.793219   -9.919937   11.753449
   36  O       1    0.99   0.00         2    0    1  -0.365    5.931639   -7.964741   12.128602
   37  O       2    1.92   0.00         3    0    1  -0.315    5.557594  -12.282692   12.644550
   38  C       4    3.54   0.00         3    0    0   0.039    7.814371  -11.927859   13.960094
   39  O       1    0.98   0.00         2    0    1  -0.364    0.859599   -9.744638   -8.298130
   40  O       2    1.92   0.00         3    0    1  -0.315    4.139603  -10.274431   -5.700295
   41  C       4    3.51   0.00         3    0    0   0.037    5.868683   -9.385376   -7.512487
   42  C       4    3.44   0.00         3    0    0   0.033   -7.466071   -9.603197   -2.275115
   43  C       4    3.50   0.00         3    0    0   0.033   -1.688466   -3.654401   -1.127310
   44  H       1    0.97   0.01         0    0    0   0.079    7.850120  -10.138260   -7.546859
   45  H       1    0.98   0.00         0    0    0   0.079    5.401919   -7.532791   -7.957276
   46  H       1    0.97   0.01         0    0    0   0.079    5.612520  -10.420878   -9.313897
   47  H       1    0.98   0.00         0    0    0   0.078    7.912523  -12.730524   15.766439
   48  H       1    0.98   0.00         0    0    0   0.078    8.362988  -10.000410   14.187728
   49  H       1    0.97   0.01         0    0    0   0.078    9.424846  -12.418808   12.649993
   50  H       1    0.98   0.00         0    0    0   0.076   -1.387947   -1.698080   -1.313310
   51  H       1    0.97   0.00         0    0    0   0.076   -1.536598   -4.782159   -2.845305
   52  H       1    0.97   0.01         0    0    0   0.076   -0.597963   -4.365050    0.501982
   53  H       1    0.97   0.01         0    0    0   0.076   -6.836872   -8.210215   -3.693969
   54  H       1    0.97   0.00         0    0    0   0.076   -9.235668   -8.862793   -1.528065
   55  H       1    0.91   0.04         0    0    0   0.076   -7.935905  -11.883121   -2.432141
   56  H       1    0.95   0.02         0    0    0   0.079   -9.496630    5.938232    9.340972
   57  H       1    0.96   0.01         0    0    0   0.079  -11.510968    3.049081    8.972130
   58  H       1    0.97   0.01         0    0    0   0.079  -11.155924    5.252417    6.282973
   59  C       3    2.87   0.00         2    0    1  -0.013   -2.052648   14.152037   10.447649
   60  C       3    2.90   0.00         2    0    1   0.104   -2.031792   12.145007    8.988614
   61  C       3    2.90   0.00         2    0    1   0.014   -1.633489    9.895810   10.511819
   62  C       3    2.89   0.00         2    0    1   0.068   -1.162559    9.908657   13.305112
   63  C       3    2.83   0.00         2    0    1  -0.010   -1.183645   12.212689   14.527138
   64  C       3    2.85   0.00         2    0    1   0.024   -1.686595   14.211720   13.062678
   65  C       3    2.86   0.00         2    0    1   0.003   -2.230008    7.659162    9.224410
   66  C       3    2.87   0.00         2    0    1   0.018   -1.514864    5.541622   10.598777
   67  C       3    2.85   0.00         2    0    1   0.069   -0.686304    5.621036   13.148755
   68  N       2    1.94   0.00         2    0    1  -0.182   -1.185126    7.780484   14.714169
   69  C       3    2.83   0.00         2    0    1   0.014   -3.854610    7.335939    7.044709
   70  C       3    2.94   0.00         2    0    1   0.068   -2.854571    5.052139    5.752847
   71  N       2    1.97   0.00         2    0    1  -0.182   -1.703512    3.058811    6.819814
   72  C       3    2.94   0.00         2    0    1   0.069   -1.864483    3.115118    9.298804
   73  C       3    2.84   0.00         2    0    1  -0.009   -1.076970    0.910396   10.458925
   74  C       3    2.82   0.00         2    0    1   0.024   -0.404245    0.888202   12.869254
   75  C       3    2.85   0.00         2    0    1  -0.009   -0.374770    3.209024   14.236231
   76  C       3    2.87   0.00         2    0    1   0.104   -6.072631    8.391363    6.317699
   77  C       3    2.82   0.00         2    0    1  -0.013   -7.470121    7.700622    4.110397
   78  C       3    2.79   0.00         2    0    1   0.024   -6.210969    6.086133    2.365376
   79  C       3    2.83   0.00         2    0    1  -0.010   -4.178120    4.835847    3.308584
   80  O       2    1.92   0.00         3    0    1  -0.326   -7.157468    9.772510    8.155378
   81  O       2    1.92   0.00         3    0    1  -0.326   -2.283701   11.939045    6.325211
   82  C       3    2.91   0.00         2    0    1   0.224   -1.795832   16.664712   14.273735
   83  C       3    2.85   0.00         2    0    1   0.224   -7.650847    4.823952    0.120653
   84  H       1    0.97   0.00         0    0    0   0.083   -0.999268   12.064580   16.569618
   85  H       1    0.97   0.00         0    0    0   0.084   -2.241954   16.014142    9.613272
   86  H       1    0.97   0.00         0    0    0   0.084    0.310222    3.265529   16.171796
   87  H       1    0.96   0.01         0    0    0   0.084   -0.662606   -0.906234    9.343333
   88  H       1    0.98   0.00         0    0    0   0.083   -3.245855    3.602556    2.019226
   89  H       1    0.98   0.00         0    0    0   0.084   -9.161868    8.612866    3.767520
   90  O       1    0.99   0.00         2    0    1  -0.364   -0.228179   17.041153   15.919223
   91  O       2    1.91   0.00         3    0    1  -0.315   -3.895026   18.061116   13.511404
   92  C       4    3.55   0.00         3    0    0   0.037   -3.935694   20.145630   15.257722
   93  C       3    2.88   0.00         2    0    1   0.223    0.344926   -1.219834   14.536930
   94  O       1    0.98   0.00         2    0    1  -0.365   -0.339936   -3.492793   14.153009
   95  O       2    1.92   0.00         3    0    1  -0.315    1.985594   -0.716942   16.476848
   96  C       4    3.50   0.00         3    0    0   0.039    2.432093   -3.001072   17.767556
   97  O       1    0.98   0.00         2    0    1  -0.364   -8.088627    6.318703   -1.673638
   98  O       2    1.91   0.00         3    0    1  -0.315   -7.933879    2.227118    0.264301
   99  C       4    3.52   0.00         3    0    0   0.037   -9.459564    1.489874   -1.856753
  100  C       4    3.52   0.00         3    0    0   0.033   -9.352553   11.012689    7.180501
  101  C       4    3.52   0.00         3    0    0   0.033   -1.781360   14.279234    5.355044
  102  H       1    0.98   0.00         0    0    0   0.079  -10.289185    3.189519   -2.485362
  103  H       1    0.97   0.01         0    0    0   0.079  -10.910407    0.012603   -1.327562
  104  H       1    0.97   0.01         0    0    0   0.079   -8.306653    1.324834   -3.629522
  105  H       1    0.96   0.01         0    0    0   0.078    3.429555   -4.255907   16.320447
  106  H       1    0.97   0.01         0    0    0   0.078    0.438683   -3.388188   18.376837
  107  H       1    0.92   0.03         0    0    0   0.078    3.728236   -2.536486   19.617021
  108  H       1    0.94   0.02         0    0    0   0.076   -3.588525   15.606663    5.653799
  109  H       1    0.97   0.01         0    0    0   0.076   -1.817015   14.200104    3.230915
  110  H       1    0.97   0.01         0    0    0   0.076   -0.037121   14.637374    6.453476
  111  H       1    0.97   0.01         0    0    0   0.076   -9.669374   12.585009    8.536806
  112  H       1    0.96   0.01         0    0    0   0.076  -10.856902    9.466325    7.129179
  113  H       1    0.98   0.00         0    0    0   0.076   -9.004374   11.630439    5.438872
  114  H       1    0.98   0.00         0    0    0   0.079   -5.138195   21.480256   14.810474
  115  H       1    0.97   0.01         0    0    0   0.079   -1.869466   20.591493   15.316966
  116  H       1    0.98   0.00         0    0    0   0.079   -4.477003   19.273705   16.897655

          #atoms :   116
          #bonds :   124
          #angl  :   206
          #tors  :   302
          #nmol  :   2
          #optfrag :   2
           ------------------------------------------------- 
          |                   G F N - F F                   |
          |          A general generic force-field          |
          |                  Version 1.0.3                  | 
           ------------------------------------------------- 
          Number of HB bonds (bound hydrogen)     12343
          Number of HB bonds (unbound hydrogen)   386
          Number of XB bonds                      0

 E+G (total)                   0 d,  0 h,  0 min,  0.006 sec
 distance/D3 list               ...        0 min,  0.000 sec (  0.640%)
 non bonded repulsion           ...        0 min,  0.000 sec (  6.079%)
 dCN                            ...        0 min,  0.000 sec (  6.632%)
 EEQ energy and q               ...        0 min,  0.001 sec ( 12.358%)
 D3                             ...        0 min,  0.001 sec ( 13.777%)
 EEQ gradient                   ...        0 min,  0.000 sec (  2.267%)
 bonds                          ...        0 min,  0.001 sec ( 11.169%)
 bend and torsion               ...        0 min,  0.000 sec (  3.118%)
 bonded ATM                     ...        0 min,  0.000 sec (  2.982%)
 HB/XB (incl list setup)        ...        0 min,  0.003 sec ( 40.335%)

         :::::::::::::::::::::::::::::::::::::::::::::::::::::
         ::                     SUMMARY                     ::
         :::::::::::::::::::::::::::::::::::::::::::::::::::::
         :: total energy             -22.617041405797 Eh    ::
         :: gradient norm              0.546208127532 Eh/a0 ::
         ::.................................................::
         :: bond energy              -23.424871096899 Eh    ::
         :: angle energy               0.170084441646 Eh    ::
         :: torsion energy             0.120583266561 Eh    ::
         :: repulsion energy           1.622308069844 Eh    ::
         :: electrostat energy        -0.936655335994 Eh    ::
         :: dispersion energy         -0.134261921507 Eh    ::
         :: HB energy                 -0.004334667594 Eh    ::
         :: XB energy                  0.000000000000 Eh    ::
         :: bonded atm energy         -0.029894161853 Eh    ::
         :: external energy            0.000000000000 Eh    ::
         :: add. restraining           0.000000000000 Eh    ::
         :: total charge               0.000000000000 e     ::
         :::::::::::::::::::::::::::::::::::::::::::::::::::::

           -------------------------------------------------
          |                Property Printout                |
           -------------------------------------------------

           -------------------------------------------------
          | TOTAL ENERGY              -22.617041405797 Eh   |
          | GRADIENT NORM               0.546208127532 Eh/α |
           -------------------------------------------------
           ------------------------------------------------- 
          |               Molecular Dynamics                |
           ------------------------------------------------- 
 trajectories on xtb.trj or xtb.trj.<n>

 MD time /ps        :   20.00
 dt /fs             :    0.40
 SCC accuracy       :    2.00
 temperature /K     :  775.00
 max steps          : 50000
 block length (av.) :  5000
 dumpstep(trj) /fs  :  500.00  1250
 dumpstep(coords)/fs: 1000.00  2500
 H atoms mass (amu) :     4
 # deg. of freedom  :   348
 SHAKE on. # bonds  :           0  all: F
 Berendsen THERMOSTAT on
         time (ps)    <Epot>      Ekin   <T>   T     Etot
      0    0.00      0.00000   0.8909    0.    0.   -21.72614
est. speed in wall clock h for 100 ps :  0.37
    200    0.08    -22.32460   0.5807 1222. 1054.   -21.78383
    400    0.16    -22.38511   0.6681 1200. 1212.   -21.81524
    600    0.24    -22.40729   0.6106 1175. 1108.   -21.84687
    800    0.32    -22.42933   0.6316 1169. 1146.   -21.87563
   1000    0.40    -22.43986   0.5623 1149. 1020.   -21.89897
   1200    0.48    -22.44966   0.5694 1133. 1033.   -21.92884
   1400    0.56    -22.45635   0.5503 1116.  999.   -21.95520
   1600    0.64    -22.46217   0.5350 1100.  971.   -21.96708
   1800    0.72    -22.46980   0.5164 1089.  937.   -21.98804
   2000    0.80    -22.47574   0.4995 1076.  906.   -22.00984
   2200    0.88    -22.48133   0.5238 1065.  951.   -22.02329
   2400    0.96    -22.48673   0.4892 1054.  888.   -22.03501
   2600    1.04    -22.49001   0.5142 1042.  933.   -22.04907
   2800    1.12    -22.49436   0.5007 1032.  909.   -22.06098
   3000    1.20    -22.49928   0.5153 1024.  935.   -22.07204
   3200    1.28    -22.50306   0.4528 1015.  822.   -22.08753
   3400    1.36    -22.50672   0.5003 1007.  908.   -22.09037
   3600    1.44    -22.51070   0.4751 1000.  862.   -22.10244
   3800    1.52    -22.51439   0.4630  993.  840.   -22.10287
   4000    1.60    -22.51729   0.4318  986.  784.   -22.11256
   4200    1.68    -22.52042   0.4336  979.  787.   -22.11653
   4400    1.76    -22.52303   0.4965  972.  901.   -22.12128
   4600    1.84    -22.52652   0.4424  968.  803.   -22.13600
   4800    1.92    -22.52958   0.4577  963.  831.   -22.13874
block <Epot> / <T> :     -22.53738  958.     drift:  0.99D+02   Tbath : 775.
   5000    2.00    -22.53287   0.4631  958.  840.   -22.14762
   5200    2.08    -22.53588   0.4884  954.  886.   -22.15308
   5400    2.16    -22.53856   0.4184  949.  759.   -22.15616
   5600    2.24    -22.54097   0.4836  944.  878.   -22.16518
   5800    2.32    -22.54374   0.4853  941.  881.   -22.16718
   6000    2.40    -22.54683   0.4907  938.  891.   -22.16810
   6200    2.48    -22.54940   0.4862  934.  882.   -22.17512
   6400    2.56    -22.55195   0.4785  931.  868.   -22.17960
   6600    2.64    -22.55442   0.4149  927.  753.   -22.17969
   6800    2.72    -22.55645   0.4362  923.  792.   -22.18447
   7000    2.80    -22.55802   0.4139  919.  751.   -22.18645
   7200    2.88    -22.55996   0.4696  916.  852.   -22.18522
   7400    2.96    -22.56190   0.4484  913.  814.   -22.18844
   7600    3.04    -22.56403   0.4113  910.  746.   -22.19744
   7800    3.12    -22.56632   0.4450  908.  808.   -22.19935
   8000    3.20    -22.56838   0.4567  906.  829.   -22.20273
   8200    3.28    -22.57028   0.4416  904.  801.   -22.20749
   8400    3.36    -22.57200   0.4733  901.  859.   -22.21196
   8600    3.44    -22.57386   0.4633  899.  841.   -22.20909
   8800    3.52    -22.57550   0.4013  896.  728.   -22.21758
   9000    3.60    -22.57686   0.4299  894.  780.   -22.20538
   9200    3.68    -22.57839   0.3997  891.  725.   -22.21257
   9400    3.76    -22.57983   0.4350  889.  789.   -22.21942
   9600    3.84    -22.58132   0.4192  887.  761.   -22.21177
   9800    3.92    -22.58279   0.4319  885.  784.   -22.21637
  10000    4.00    -22.58448   0.4608  884.  836.   -22.21594
block <Epot> / <T> :     -22.63612  809.     drift:  0.99D+02   Tbath : 775.
  10200    4.08    -22.58593   0.4267  882.  774.   -22.21934
  10400    4.16    -22.58722   0.4366  880.  792.   -22.22487
  10600    4.24    -22.58840   0.4299  878.  780.   -22.21995
  10800    4.32    -22.58967   0.4051  877.  735.   -22.22038
  11000    4.40    -22.59084   0.4544  875.  825.   -22.22259
  11200    4.48    -22.59199   0.4739  873.  860.   -22.21947
  11400    4.56    -22.59319   0.4199  872.  762.   -22.23210
  11600    4.64    -22.59415   0.4574  870.  830.   -22.22456
  11800    4.72    -22.59498   0.4739  868.  860.   -22.22425
  12000    4.80    -22.59613   0.4424  867.  803.   -22.22827
  12200    4.88    -22.59700   0.4008  865.  727.   -22.22313
  12400    4.96    -22.59784   0.4120  864.  748.   -22.22336
  12600    5.04    -22.59872   0.4152  862.  754.   -22.22688
  12800    5.12    -22.59965   0.4063  861.  737.   -22.22861
  13000    5.20    -22.60050   0.4512  860.  819.   -22.22262
  13200    5.28    -22.60116   0.4422  858.  803.   -22.22229
  13400    5.36    -22.60172   0.3991  857.  724.   -22.22889
  13600    5.44    -22.60233   0.4217  855.  765.   -22.22707
  13800    5.52    -22.60308   0.4256  854.  772.   -22.22561
  14000    5.60    -22.60361   0.4048  853.  735.   -22.21992
  14200    5.68    -22.60414   0.4147  852.  753.   -22.22120
  14400    5.76    -22.60480   0.4122  851.  748.   -22.22174
  14600    5.84    -22.60523   0.4077  849.  740.   -22.22205
  14800    5.92    -22.60557   0.4129  848.  749.   -22.22019
  15000    6.00    -22.60588   0.4015  847.  729.   -22.21241
block <Epot> / <T> :     -22.64865  773.     drift:  0.99D+02   Tbath : 775.
  15200    6.08    -22.60641   0.4634  846.  841.   -22.21082
  15400    6.16    -22.60683   0.4389  845.  797.   -22.21489
  15600    6.24    -22.60733   0.4267  844.  774.   -22.21073
  15800    6.32    -22.60790   0.4308  843.  782.   -22.21536
  16000    6.40    -22.60826   0.4337  842.  787.   -22.21278
  16200    6.48    -22.60870   0.4188  842.  760.   -22.21724
  16400    6.56    -22.60896   0.4358  841.  791.   -22.21415
  16600    6.64    -22.60949   0.4264  840.  774.   -22.21582
  16800    6.72    -22.60988   0.4314  839.  783.   -22.21426
  17000    6.80    -22.61025   0.4424  838.  803.   -22.21218
  17200    6.88    -22.61061   0.4534  838.  823.   -22.21900
  17400    6.96    -22.61110   0.4447  837.  807.   -22.21644
  17600    7.04    -22.61158   0.4466  837.  810.   -22.21784
  17800    7.12    -22.61199   0.4424  836.  803.   -22.22314
  18000    7.20    -22.61231   0.4170  835.  757.   -22.21776
  18200    7.28    -22.61272   0.4155  835.  754.   -22.21784
  18400    7.36    -22.61316   0.4119  834.  748.   -22.22431
  18600    7.44    -22.61357   0.4315  834.  783.   -22.22257
  18800    7.52    -22.61404   0.4265  833.  774.   -22.21835
  19000    7.60    -22.61449   0.4281  833.  777.   -22.22754
  19200    7.68    -22.61480   0.4505  832.  818.   -22.21831
  19400    7.76    -22.61512   0.3674  831.  667.   -22.22213
  19600    7.84    -22.61556   0.4743  831.  861.   -22.22644
  19800    7.92    -22.61600   0.4211  830.  764.   -22.22621
  20000    8.00    -22.61651   0.4261  830.  773.   -22.22611
block <Epot> / <T> :     -22.64844  781.     drift: -0.35D-01   Tbath : 775.
  20200    8.08    -22.61685   0.4641  830.  842.   -22.22570
  20400    8.16    -22.61719   0.4029  829.  731.   -22.22634
  20600    8.24    -22.61758   0.4165  829.  756.   -22.22764
  20800    8.32    -22.61796   0.4491  828.  815.   -22.22345
  21000    8.40    -22.61830   0.4085  828.  741.   -22.22690
  21200    8.48    -22.61862   0.4196  827.  762.   -22.22951
  21400    8.56    -22.61894   0.4409  827.  800.   -22.22448
  21600    8.64    -22.61927   0.4096  826.  743.   -22.22330
  21800    8.72    -22.61962   0.4654  826.  845.   -22.22174
  22000    8.80    -22.61993   0.4514  825.  819.   -22.22896
  22200    8.88    -22.62019   0.3821  825.  693.   -22.22629
  22400    8.96    -22.62041   0.3993  824.  725.   -22.22913
  22600    9.04    -22.62069   0.4197  824.  762.   -22.22527
  22800    9.12    -22.62082   0.4095  823.  743.   -22.22639
  23000    9.20    -22.62102   0.4442  823.  806.   -22.21945
  23200    9.28    -22.62123   0.4434  822.  805.   -22.22198
  23400    9.36    -22.62147   0.4476  822.  812.   -22.22701
  23600    9.44    -22.62184   0.4571  821.  830.   -22.22744
  23800    9.52    -22.62208   0.4331  821.  786.   -22.22235
  24000    9.60    -22.62239   0.3953  821.  717.   -22.22206
  24200    9.68    -22.62250   0.4047  820.  735.   -22.22979
  24400    9.76    -22.62283   0.4299  820.  780.   -22.22423
  24600    9.84    -22.62297   0.4292  819.  779.   -22.23161
  24800    9.92    -22.62322   0.4211  819.  764.   -22.22181
  25000   10.00    -22.62339   0.4170  819.  757.   -22.22508
block <Epot> / <T> :     -22.65091  773.     drift: -0.44D-02   Tbath : 775.
  25200   10.08    -22.62361   0.4362  818.  792.   -22.21960
  25400   10.16    -22.62384   0.4008  818.  727.   -22.22051
  25600   10.24    -22.62406   0.4565  818.  829.   -22.22241
  25800   10.32    -22.62428   0.4054  818.  736.   -22.22711
  26000   10.40    -22.62451   0.4036  817.  732.   -22.22451
  26200   10.48    -22.62484   0.4168  817.  756.   -22.22770
  26400   10.56    -22.62500   0.3949  817.  717.   -22.22844
  26600   10.64    -22.62518   0.4399  816.  798.   -22.22789
  26800   10.72    -22.62538   0.3718  816.  675.   -22.22244
  27000   10.80    -22.62559   0.4365  816.  792.   -22.22124
  27200   10.88    -22.62600   0.4321  816.  784.   -22.22557
  27400   10.96    -22.62618   0.4404  815.  799.   -22.22792
  27600   11.04    -22.62639   0.4255  815.  772.   -22.22656
  27800   11.12    -22.62647   0.3991  815.  724.   -22.22923
  28000   11.20    -22.62669   0.4079  814.  740.   -22.21938
  28200   11.28    -22.62677   0.4362  814.  792.   -22.23099
  28400   11.36    -22.62684   0.4063  813.  737.   -22.21795
  28600   11.44    -22.62692   0.4337  813.  787.   -22.21968
  28800   11.52    -22.62707   0.4218  813.  765.   -22.21741
  29000   11.60    -22.62723   0.4153  813.  754.   -22.21409
  29200   11.68    -22.62739   0.3998  812.  726.   -22.22534
  29400   11.76    -22.62740   0.4589  812.  833.   -22.21344
  29600   11.84    -22.62758   0.4179  812.  758.   -22.21787
  29800   11.92    -22.62768   0.4385  811.  796.   -22.21612
  30000   12.00    -22.62780   0.4361  811.  791.   -22.21794
block <Epot> / <T> :     -22.64983  773.     drift: -0.60D-03   Tbath : 775.
  30200   12.08    -22.62795   0.4438  811.  805.   -22.22590
  30400   12.16    -22.62812   0.4191  811.  761.   -22.21904
  30600   12.24    -22.62812   0.4017  810.  729.   -22.21793
  30800   12.32    -22.62817   0.4353  810.  790.   -22.21565
  31000   12.40    -22.62811   0.3989  810.  724.   -22.21029
  31200   12.48    -22.62816   0.4018  809.  729.   -22.21437
  31400   12.56    -22.62828   0.4307  809.  782.   -22.21680
  31600   12.64    -22.62841   0.4377  809.  794.   -22.22075
  31800   12.72    -22.62858   0.4184  809.  759.   -22.21499
  32000   12.80    -22.62867   0.4318  809.  784.   -22.22155
  32200   12.88    -22.62875   0.4336  809.  787.   -22.21277
  32400   12.96    -22.62880   0.4376  808.  794.   -22.21884
  32600   13.04    -22.62885   0.4455  808.  808.   -22.21048
  32800   13.12    -22.62892   0.3948  808.  717.   -22.21372
  33000   13.20    -22.62905   0.3891  808.  706.   -22.20920
  33200   13.28    -22.62912   0.4404  807.  799.   -22.22043
  33400   13.36    -22.62916   0.4137  807.  751.   -22.21220
  33600   13.44    -22.62925   0.4187  807.  760.   -22.20581
  33800   13.52    -22.62926   0.4081  807.  741.   -22.21777
  34000   13.60    -22.62928   0.3851  806.  699.   -22.21067
  34200   13.68    -22.62935   0.4312  806.  783.   -22.21391
  34400   13.76    -22.62940   0.4639  806.  842.   -22.21020
  34600   13.84    -22.62948   0.4358  806.  791.   -22.21513
  34800   13.92    -22.62956   0.3828  806.  695.   -22.21410
  35000   14.00    -22.62955   0.4644  806.  843.   -22.20986
block <Epot> / <T> :     -22.64011  772.     drift:  0.26D-02   Tbath : 775.
  35200   14.08    -22.62958   0.4052  805.  735.   -22.21339
  35400   14.16    -22.62966   0.4566  805.  829.   -22.21035
  35600   14.24    -22.62969   0.4216  805.  765.   -22.21793
  35800   14.32    -22.62973   0.4114  805.  747.   -22.20941
  36000   14.40    -22.62989   0.4824  805.  875.   -22.21571
  36200   14.48    -22.63006   0.4428  805.  804.   -22.22005
  36400   14.56    -22.63016   0.4365  805.  792.   -22.21908
  36600   14.64    -22.63024   0.4301  805.  781.   -22.21632
  36800   14.72    -22.63032   0.4290  804.  779.   -22.21128
  37000   14.80    -22.63037   0.4017  804.  729.   -22.21795
  37200   14.88    -22.63036   0.4270  804.  775.   -22.21290
  37400   14.96    -22.63040   0.4558  804.  827.   -22.21212
  37600   15.04    -22.63046   0.4026  804.  731.   -22.21115
  37800   15.12    -22.63055   0.4333  803.  786.   -22.21392
  38000   15.20    -22.63068   0.4406  803.  800.   -22.21980
  38200   15.28    -22.63077   0.4004  803.  727.   -22.22074
  38400   15.36    -22.63082   0.4079  803.  740.   -22.21868
  38600   15.44    -22.63083   0.3783  803.  687.   -22.21059
  38800   15.52    -22.63081   0.3855  803.  700.   -22.21684
  39000   15.60    -22.63077   0.4147  802.  753.   -22.21251
  39200   15.68    -22.63084   0.4318  802.  784.   -22.21411
  39400   15.76    -22.63090   0.4038  802.  733.   -22.20782
  39600   15.84    -22.63095   0.4641  802.  842.   -22.21222
  39800   15.92    -22.63102   0.4364  802.  792.   -22.20953
  40000   16.00    -22.63111   0.4364  802.  792.   -22.21608
block <Epot> / <T> :     -22.64198  776.     drift:  0.37D-02   Tbath : 775.
  40200   16.08    -22.63120   0.4765  802.  865.   -22.20967
  40400   16.16    -22.63131   0.3781  802.  686.   -22.21457
  40600   16.24    -22.63141   0.4249  802.  771.   -22.21940
  40800   16.32    -22.63155   0.4180  802.  759.   -22.22329
  41000   16.40    -22.63164   0.4209  802.  764.   -22.22340
  41200   16.48    -22.63177   0.4410  802.  800.   -22.22428
  41400   16.56    -22.63184   0.4245  801.  770.   -22.22017
  41600   16.64    -22.63199   0.4169  801.  757.   -22.22502
  41800   16.72    -22.63210   0.3945  801.  716.   -22.22566
  42000   16.80    -22.63214   0.4460  801.  809.   -22.21867
  42200   16.88    -22.63227   0.4643  801.  843.   -22.22386
  42400   16.96    -22.63238   0.4537  801.  823.   -22.22130
  42600   17.04    -22.63255   0.4103  801.  745.   -22.22589
  42800   17.12    -22.63267   0.4358  801.  791.   -22.23124
  43000   17.20    -22.63284   0.4551  801.  826.   -22.22790
  43200   17.28    -22.63295   0.4169  801.  757.   -22.22893
  43400   17.36    -22.63306   0.4184  801.  759.   -22.23210
  43600   17.44    -22.63320   0.3705  801.  672.   -22.22758
  43800   17.52    -22.63331   0.4543  800.  824.   -22.23183
  44000   17.60    -22.63346   0.4384  800.  796.   -22.23387
  44200   17.68    -22.63350   0.3693  800.  670.   -22.23061
  44400   17.76    -22.63359   0.4638  800.  842.   -22.22788
  44600   17.84    -22.63373   0.4378  800.  795.   -22.22985
  44800   17.92    -22.63378   0.4391  800.  797.   -22.22964
  45000   18.00    -22.63386   0.4301  800.  781.   -22.22371
block <Epot> / <T> :     -22.65588  781.     drift: -0.20D-02   Tbath : 775.
  45200   18.08    -22.63395   0.4172  799.  757.   -22.22632
  45400   18.16    -22.63404   0.4631  799.  840.   -22.22983
  45600   18.24    -22.63418   0.4447  799.  807.   -22.22884
  45800   18.32    -22.63428   0.4467  799.  811.   -22.22375
  46000   18.40    -22.63439   0.4118  799.  747.   -22.22318
  46200   18.48    -22.63446   0.4230  799.  768.   -22.23179
  46400   18.56    -22.63454   0.4400  799.  798.   -22.23691
  46600   18.64    -22.63461   0.4230  799.  768.   -22.22712
  46800   18.72    -22.63465   0.3994  799.  725.   -22.23027
  47000   18.80    -22.63468   0.4146  798.  752.   -22.22547
  47200   18.88    -22.63475   0.4333  798.  786.   -22.22646
  47400   18.96    -22.63478   0.4042  798.  734.   -22.22237
  47600   19.04    -22.63483   0.4038  798.  733.   -22.21312
  47800   19.12    -22.63493   0.3676  798.  667.   -22.22227
  48000   19.20    -22.63499   0.4218  798.  765.   -22.22146
  48200   19.28    -22.63506   0.4308  798.  782.   -22.22007
  48400   19.36    -22.63513   0.4587  798.  833.   -22.22112
  48600   19.44    -22.63520   0.4292  798.  779.   -22.21988
  48800   19.52    -22.63530   0.4355  798.  790.   -22.22522
  49000   19.60    -22.63538   0.4310  797.  782.   -22.22586
Note: The following floating-point exceptions are signalling: IEEE_UNDERFLOW_FLAG IEEE_DENORMAL
normal termination of xtb
  49200   19.68    -22.63542   0.4289  797.  778.   -22.22299
  49400   19.76    -22.63550   0.4561  797.  828.   -22.22669
  49600   19.84    -22.63562   0.4237  797.  769.   -22.22169
  49800   19.92    -22.63572   0.3921  797.  712.   -22.22994
 average properties 
 Epot               :  -22.635828070186765     
 Epot (accurate SCC):  -22.636281062953532     
 Ekin               :  0.43926811036971519     
 Etot               :  -22.196559959817055     
 T                  :   797.18407580566952     
 thermostating problem
 normal exit of md()
########################################################################
[WARNING] Runtime exception occurred
-1- gfnff_setup: Could not read topology file.
########################################################################

------------------------------------------------------------------------
 * finished run on 2025/03/11 at 11:11:06.411     
------------------------------------------------------------------------
 total:
 * wall-time:     0 d,  0 h,  3 min, 21.193 sec
 *  cpu-time:     0 d,  0 h, 26 min, 35.679 sec
 * ratio c/w:     7.931 speedup
 SCF:
 * wall-time:     0 d,  0 h,  0 min,  0.010 sec
 *  cpu-time:     0 d,  0 h,  0 min,  0.079 sec
 * ratio c/w:     7.635 speedup
 MD:
 * wall-time:     0 d,  0 h,  3 min, 20.820 sec
 *  cpu-time:     0 d,  0 h, 26 min, 34.523 sec
 * ratio c/w:     7.940 speedup

