116
 energy: -22.617041405797 gnorm: 0.546208127532 xtb: 6.6.1 (8d0f1dd)
C           -3.25268252849111       -0.85070721524098        1.58389008717398
C           -2.34626458335430       -1.79938868154245        1.26764556395035
C           -1.72895333782103       -2.66204329157848        2.19252109083976
C           -1.98148098700988       -2.33417160115428        3.55044381781646
C           -2.90417406853551       -1.40220449437595        3.89594897751443
C           -3.48324226791087       -0.62097188780213        2.97237499788105
C           -0.89880396643250       -3.88129319224933        1.87291528759736
C            0.06358350830154       -4.17194231449912        2.99056364366247
C           -0.30349506180735       -3.68667897184719        4.30196208410012
N           -1.23529345699904       -2.80030188456287        4.54841014779539
C           -0.71041446675171       -4.75706472365621        0.69282163054536
C            0.64484728576640       -5.43468161769004        0.62194981712215
N            1.64589208449070       -5.51751361637624        1.49988528121582
C            1.22453992870460       -4.99903494826080        2.74879383985846
C            1.72199524967612       -5.61423644357233        3.90160790300860
C            1.51550661571817       -5.11422983774147        5.18930404101078
C            0.55668406047620       -4.14774001452321        5.33744345883870
C           -1.63038451843621       -4.89782355867505       -0.36165094928029
C           -1.15362536495791       -5.30473950300140       -1.59923291609531
C            0.22070604790610       -5.75794427418091       -1.84387153239865
C            1.07289932580635       -5.87328691860507       -0.65105600430839
O           -2.96949762606565       -4.57191778538129       -0.24713470289169
O           -2.17293948380582       -2.01602949229097       -0.09239294204502
C           -4.59232091098623        0.45316416495961        3.38143235013335
C            0.93555756708688       -5.42334953101553       -3.25088603277906
H           -3.44418941776126       -1.53957030949117        4.88513842013549
H           -3.89713722751538       -0.38781801598821        0.79778167857099
H            0.19309531422651       -3.82496716340303        6.27964742881755
H            2.45323651122990       -6.50685016643186        3.59825299466015
H            2.01501015844958       -6.20605418715260       -0.70642491660059
H           -1.90564772380050       -5.69772534639845       -2.32259099085954
O           -5.79861491018830        0.17730114574576        3.31529928120708
O           -4.26764127586871        1.59380895318629        3.89810738515240
C           -5.38647799784498        2.31255733562963        4.19881222119344
C            2.53646246792969       -5.24940459710094        6.21965725752059
O            3.13888825338141       -4.21475940120975        6.41817969185368
O            2.94095191489672       -6.49972075094901        6.69120765704502
C            4.13518697403759       -6.31195120124315        7.38736350417101
O            0.45488035579441       -5.15664055056903       -4.39118120425597
O            2.19058361237492       -5.43699473246920       -3.01646600456838
C            3.10557338933581       -4.96652685508419       -3.97543671441989
C           -3.95087445778740       -5.08179274940695       -1.20393887014823
C           -0.89349794256926       -1.93382557560395       -0.59654660246840
H            4.15410456193422       -5.36493595879642       -3.99362563278802
H            2.85857252838679       -3.98618145013929       -4.21080927846037
H            2.97001771954561       -5.51449094263562       -4.92870196618380
H            4.18712693332324       -6.73670297091837        8.34324016869214
H            4.42550264071637       -5.29198893282037        7.50782244589394
H            4.98741384054577       -6.57175042683048        6.69408820723644
H           -0.73446971401985       -0.89858516255900       -0.69497350974240
H           -0.81313263163720       -2.53060955057007       -1.50567078349030
H           -0.31642825821027       -2.30988511559896        0.26563724459796
H           -3.61791697510431       -4.34465890663200       -1.95476419337248
H           -4.88730477005179       -4.68998816303352       -0.80861713820615
H           -4.19949991661070       -6.28827692589304       -1.28703380757269
H           -5.02539997355507        3.14237730806379        4.94302938393499
H           -6.09134201698887        1.61350423168211        4.74784653624409
H           -5.90346091092150        2.77945934855305        3.32480596119838
C           -1.08621434487143        7.48893526983744        5.52865772191244
C           -1.07517797450412        6.42686086284447        4.75656943641818
C           -0.86440499816427        5.23663695195382        5.56261524751671
C           -0.61519968862345        5.24343561889692        7.04076193742630
C           -0.62635809874180        6.46267654835033        7.68743023604223
C           -0.89250742269724        7.52051821197777        6.91247145694299
C           -1.18006959453161        4.05305405612996        4.88134740950114
C           -0.80163148889470        2.93250020729238        5.60863115474723
C           -0.36317650586881        2.97452393987630        6.95802123971498
N           -0.62714166926908        4.11725505934949        7.78640286151759
C           -2.03977158688210        3.88201189244650        3.72789972238514
C           -1.51057397623083        2.67347672948914        3.04427564327291
N           -0.90145966475443        1.61865303325137        3.60889037365466
C           -0.98664206805521        1.64844935265942        4.92071494465100
C           -0.56990782197420        0.48176095984872        5.53462479356373
C           -0.21391730782576        0.47001645237495        6.81011599510565
C           -0.19831985110186        1.69814224013805        7.53348910414646
C           -3.21349778046072        4.44051818924205        3.34318244531675
C           -3.95301804398680        4.07499361022108        2.17512831475808
C           -3.28670350907487        3.22064286972665        1.25170287770557
C           -2.21096594030937        2.55902009948115        1.75082707559332
O           -3.78756891223140        5.17138950146318        4.31564016246398
O           -1.20848239398756        6.31787046126721        3.34715775913663
C           -0.95031359906838        8.81858589539167        7.55333541704101
C           -4.04865393841980        2.55272521782640        0.06384671663447
H           -0.52878976571739        6.38430092580810        8.76826441819631
H           -1.18639110797329        8.47431888219695        5.08712451162314
H            0.16416245917918        1.72804377081829        8.55774603587099
H           -0.35063581628520       -0.47955839164150        4.94427888991123
H           -1.71763233891071        1.90639062071664        1.06852823839386
H           -4.84825150113777        4.55773221015631        1.99368579534341
O           -0.12074732309757        9.01778984399712        8.42408996527512
O           -2.06115910352937        9.55753097229395        7.14992726362685
C           -2.08267943508040       10.66060835562220        8.07403876611027
C            0.18252676161371       -0.64550846940426        7.69261188395411
O           -0.17988617743719       -1.84830663732421        7.48944974806082
O            1.05073128836652       -0.37938936712808        8.71917257534371
C            1.28700830394025       -1.58809868499907        9.40218552432508
O           -4.28031689546572        3.34371373817876       -0.88565101390670
O           -4.19842771577669        1.17853991019967        0.13986209847229
C           -5.00578549418835        0.78840732260558       -0.98255129078883
C           -4.94915790833400        5.82766416371398        3.79975764330333
C           -0.94265524503776        7.55624514031225        2.83376750205078
H           -5.44480216481762        1.68782076867929       -1.31519693181495
H           -5.77353876035445        0.00666907530566       -0.70251554897256
H           -4.39569145519953        0.70107185018564       -1.92066008109719
H            1.81484248324716       -2.25212878921273        8.63640884855863
H            0.23214110314777       -1.79295198167381        9.72460342008183
H            1.97289744547135       -1.34225080967641       10.38088036815431
H           -1.89896549053684        8.25869060305551        2.99186161258573
H           -0.96152269414461        7.51437165208297        1.70972633249975
H           -0.01964383297145        7.74576479284301        3.41503235096223
H           -5.11681253182814        6.65969986348137        4.51748294917437
H           -5.74522514536495        5.00936330843752        3.77259893684713
H           -4.76490942621884        6.15456338852183        2.87812731738680
H           -2.71901574739789       11.36686216338162        7.83736535511131
H           -0.98927900493899       10.89654861176578        8.10538923436063
H           -2.36912819554399       10.19920554013672        8.94185397500183
116
 energy: -22.590282086489 gnorm: 0.568329084015 xtb: 6.6.1 (8d0f1dd)
C           -3.81307445869567       -1.29118345927952        2.44860320157365
C           -2.56767393076106       -1.65119637046940        1.98398906600811
C           -1.86890919834358       -2.60736902974046        2.81614468452677
C           -2.19010890389196       -2.67900161273863        4.12199781436932
C           -3.54859611110930       -2.37356945313279        4.55916597065314
C           -4.38869199091312       -1.70803372235373        3.75449764799986
C           -0.59609390773030       -3.23056790869591        2.29209512615372
C            0.34515971318394       -3.61959456879922        3.29559022983084
C            0.06946072881744       -3.42714260183250        4.64239998870650
N           -1.21812630264845       -3.04492722432469        5.12168853914365
C           -0.42405554148227       -3.58780532453585        0.93012164167335
C            0.81505453760656       -4.21251192709048        0.56452454833146
N            1.81022731736863       -4.54949165487974        1.52364163369343
C            1.57950174080889       -4.22266452505429        2.87502031957854
C            2.49124353013321       -4.42152380774125        3.92197096369182
C            2.18980747545257       -4.42890633739160        5.28024617809389
C            0.99392725586693       -3.85503939661483        5.66068045881566
C           -1.59243583647610       -3.77567132007801        0.03335029141674
C           -1.31951041914122       -4.08779682595778       -1.26310019915911
C            0.01227540839276       -4.36109606588912       -1.67182919123739
C            1.00798290961941       -4.54350937229429       -0.72857966373123
O           -2.82286210584503       -3.55811307880202        0.56523085206216
O           -2.27032459958590       -1.04955727293694        0.76240142711039
C           -5.75014840428071       -1.22290565221996        4.21153495794050
C           -0.10703210282450       -5.12871762674247       -2.96324985369765
H           -3.85217384685622       -2.18130600992993        5.57065649849694
H           -4.61661147157107       -0.88354761313134        1.65810582577699
H            0.54238862368717       -3.90170965654737        6.70361588873729
H            3.49307434303152       -4.71043592901035        3.59652612432874
H            1.88172155897831       -5.24110589825320       -1.11253018072899
H           -1.97600559881977       -4.42927160430006       -2.06953947122196
O           -6.42652769998913       -0.84543239004038        3.26453917374500
O           -6.03559228369963       -1.18819140813135        5.55946490194907
C           -7.33003976770743       -0.74003941575395        5.96674704899046
C            3.28558768684736       -4.96308048543894        6.01332356604916
O            3.05236007424574       -5.73376508353551        6.93721656965441
O            4.56846609728859       -4.53113131412305        5.70253747693992
C            5.46356950571104       -5.11976801132308        6.55567740639965
O           -1.04933550420074       -5.82139421586432       -3.09153105822360
O            0.89475409866293       -5.20458282240289       -3.78837015048333
C            0.76289938991594       -6.09428804528425       -4.93147669019723
C           -3.88159138291397       -3.45174179596920       -0.43482882997946
C           -0.89395312588307       -0.87721346371396        0.31412365572399
H            1.68972067515239       -6.69249533149763       -4.82852427905860
H            0.85158143658135       -5.26428371255621       -5.75180494082983
H           -0.15248421783083       -6.75911335362340       -4.74672491661186
H            5.68522650159041       -6.20275132857627        6.32456981841356
H            5.30105749419218       -4.87263729159455        7.70772648169013
H            6.48974884810896       -4.81977249856017        6.08522265438533
H           -0.39952812642614       -0.63102611245547        1.21741072610580
H           -1.00091225303053        0.08384230791556       -0.28818570916159
H           -0.33583371976773       -1.49542677773381       -0.37785775823630
H           -3.80206964549825       -2.56280245470632       -1.17298115204366
H           -4.75917495475578       -3.20906137661253        0.30658605594114
H           -4.10144738302020       -4.35599382088730       -0.93501359134979
H           -7.99126173898135       -0.40925975705230        5.15549976766050
H           -7.19203598435583       -0.18272074804455        6.84933646622445
H           -7.95232056880261       -1.67165704651562        6.38765850090181
C            0.05715467818478        6.87343471590057        5.77734248367926
C           -0.40875808629144        5.84342895390961        4.96608913436132
C           -1.37401038461976        4.86442008847248        5.45967964620272
C           -1.72023163006588        4.89764969725192        6.86694100695930
C           -1.47100277166756        6.07178671712069        7.59570227123413
C           -0.62024621387329        6.98933489902510        6.97343710951988
C           -1.71062771071442        3.77991170626128        4.62446058581235
C           -1.73653447371939        2.57338209259306        5.44041126308172
C           -1.85957148446296        2.58780708823560        6.92032026170779
N           -1.88493464787225        3.75970786505063        7.56033176849394
C           -1.98839119544703        3.66511850282816        3.17350583863466
C           -1.92976261062577        2.41349028402226        2.59944034636329
N           -1.71720493148586        1.29748878752060        3.42403174952379
C           -1.46727286558343        1.44512923616186        4.68027873301380
C           -1.25310312941442        0.33335844082942        5.62074375605081
C           -1.06107098760752        0.36767173979501        7.05655464086809
C           -1.45584069817697        1.50186226423413        7.62333770403256
C           -2.50517943608119        4.75389030877070        2.25927099032955
C           -2.79806124725867        4.42916946862107        0.99813890395576
C           -2.50074223356192        3.18723339019805        0.40236151705959
C           -2.11855983849196        2.26184244515759        1.24381859354589
O           -2.94038585273525        5.78162650524795        3.07683905314747
O            0.17672045425783        5.55279892850863        3.73774078408974
C           -0.93793189448987        8.36543242961236        7.47979877711461
C           -2.88737575281353        3.04952801020630       -1.08011699740580
H           -2.13654789094398        6.23552906065165        8.49500551691740
H            0.46543677802283        7.77262415623736        5.27365338190847
H           -1.27039035289317        1.67152208850667        8.73329028174710
H           -0.76238897181193       -0.59453649274210        5.26805566361206
H           -1.73009880567577        1.18196231609203        1.10582577630533
H           -3.26491554022151        5.13241880228291        0.20395123391327
O           -1.57471272369655        8.44966474168745        8.51333299845686
O           -0.83500352330987        9.32508749832064        6.48989419619741
C           -1.37862145009807       10.59000164336980        6.86628644278588
C           -0.17956538978638       -0.69008928790877        7.80938354934511
O            0.12378941036035       -1.74350655669626        7.23074115829077
O            0.13263693441167       -0.40482965271123        9.09693201602735
C            1.14213706980462       -1.09018522595348        9.59914834366232
O           -3.66022713931423        3.87836270176940       -1.59112783684385
O           -2.20452995636589        1.94532991981139       -1.61246811733520
C           -2.69592527357178        1.49058063070877       -2.89103321764385
C           -4.20873101092486        5.52217216254676        3.50897924389418
C            1.35165036132962        6.16777484422413        3.36468534494787
H           -2.00528936385415        0.59038763251766       -3.16307939749398
H           -2.37438426354738        2.53506782473455       -3.28152622365182
H           -3.65872685088030        1.19729869365605       -2.90538214299896
H            1.78852288750165       -0.79023486422402        8.68465596956720
H            0.74031624001480       -2.02834762220314        9.66452174210234
H            1.41543628945607       -0.82537990069056       10.55988520807379
H            1.93984160634330        6.60390416971957        4.24979934796716
H            1.19848721825996        7.09783960912984        2.93462436359110
H            1.92823693702108        5.36166347504431        2.88970103099133
H           -4.40143533639045        6.37179516284779        4.17036259993514
H           -4.42031419102323        4.52288496991872        4.03128731190979
H           -4.95637034552119        5.56665452443824        2.79000185479387
H           -1.73328357563156       10.92568405761127        6.00406715234814
H           -0.60741416125914       11.45695278221816        6.95033192165257
H           -2.19901928265087       10.34432218722024        7.70412920162402
116
 energy: -22.528854065178 gnorm: 0.549508294949 xtb: 6.6.1 (8d0f1dd)
C           -3.89476029462931       -1.98534768891677        2.72614430197289
C           -2.61932356580573       -2.35423694427811        2.07130482828508
C           -1.77916173484153       -3.22130407594084        2.91220438672881
C           -1.95272043837798       -2.95266312251635        4.31826201638627
C           -3.28887613751179       -2.68245238339663        4.79102817956714
C           -4.33887078814101       -2.34497942805087        3.94389858251716
C           -0.67370480180205       -3.98252995079355        2.46197841404110
C            0.36986542728581       -4.18875649581078        3.35297361265624
C            0.17907570755653       -3.77092232323952        4.68019099484943
N           -0.97105712027229       -3.20086077446842        5.13347738925125
C           -0.63408637827863       -4.48630621658126        1.06813115236497
C            0.61240773467738       -5.15604172914270        0.74011859631084
N            1.58010255913582       -5.68390924735195        1.60343557629731
C            1.44456791255373       -5.01121454685633        2.83732106241957
C            2.54021363264384       -4.83599763023208        3.53577492751816
C            2.48771985177522       -4.34335583138686        4.86052649243544
C            1.37728864923095       -3.80502326332319        5.37599718470579
C           -1.86713147811237       -4.57649885868726        0.25330937937657
C           -1.68499171210765       -4.58402193798087       -1.19977014405761
C           -0.34340998775423       -4.60977588519893       -1.66479416057183
C            0.68706480977953       -5.03564733859523       -0.76797055914246
O           -3.13718943666880       -4.77198493366959        0.81722406172377
O           -2.53745907128162       -1.82695874699707        0.86438220051612
C           -5.73584600293273       -1.93422592888751        4.44097551882999
C           -0.21608708059129       -4.87812652889019       -3.22094389095589
H           -3.38761306760320       -2.26484127769359        5.76525755689691
H           -4.41352300911374       -1.17393544344547        2.15259333125234
H            1.32991918279433       -3.07625625618296        6.21693536915014
H            3.49321322780131       -5.14362886176837        3.05984584287723
H            1.52933850995499       -5.46381987494982       -1.06970139106261
H           -2.39292021867893       -4.99013803099133       -1.85664514750952
O           -5.98086127209188       -0.82751208959204        4.12768903486485
O           -6.47913930834593       -2.73026708281929        5.28255425216444
C           -7.81078106145060       -2.07014164908380        5.32858513214636
C            3.83223310522627       -3.95076568081015        5.36134020812329
O            3.95912453967140       -3.13421240122372        6.32951120505033
O            4.91011209518730       -4.59323968894828        4.73497990556706
C            5.94423175138052       -4.51121702170563        5.70700122841403
O           -0.98096562643873       -4.42048374523685       -4.06195759110345
O            0.84696708253850       -5.67789096611998       -3.37635748863414
C            0.69814486768920       -6.61719683449446       -4.32338967730566
C           -4.23656698293477       -4.85845341742066       -0.16807257467903
C           -1.20050100044625       -1.27619975856330        0.63000993156664
H            0.70601232171440       -7.52461863565334       -3.77930605699477
H            1.52140673945246       -6.57571111026440       -4.95711705947725
H           -0.23702799041713       -6.63833004860242       -4.81193684485143
H            6.89721514086913       -4.46498123020610        5.39338706205647
H            5.85102081399199       -5.22322711486334        6.45792259723235
H            5.79261999193582       -3.43934603209575        5.90328160119231
H           -0.97391776810458       -1.98152863561148       -0.17832864438359
H           -0.51473837047973       -1.31167057759894        1.55942654672424
H           -1.19515211739722       -0.25411028013969        0.11445763655517
H           -5.17448238785886       -4.73843104440801        0.12997791056443
H           -4.42612012499660       -5.81444761591124       -0.76325657230967
H           -3.82662101151531       -3.97538132876310       -0.91524936144763
H           -7.95704652950471       -0.89923101878751        5.58361187577163
H           -8.37981794645594       -2.46873946076045        6.07207765188094
H           -8.36108418896126       -2.52346910530902        4.55869924281025
C           -0.68375925792930        7.96987498566134        5.66067742774287
C           -0.79659909871927        6.77457787398355        4.85397517153556
C           -0.98817558577325        5.43293273432563        5.40179363167473
C           -0.94210836589224        5.43857903286939        6.86583928637234
C           -0.70149926615730        6.61748512456255        7.56679877415951
C           -0.57258271058009        7.87870737918688        7.03800995525030
C           -1.49891592040315        4.26457824939582        4.67673791565405
C           -1.36175503838801        3.11429565141393        5.40599536274925
C           -1.02141646991116        3.22111387585785        6.84685502123580
N           -1.31005702841162        4.38890553302745        7.62098601252719
C           -1.81854040595766        4.08449496241007        3.30133662823867
C           -1.63639825771426        2.89958254081186        2.67652083563456
N           -1.53428038556900        1.73609321263193        3.34320894621684
C           -1.30281810541351        1.77318600152283        4.68244071073126
C           -1.06271336359829        0.60926942982039        5.39594839811081
C           -0.93123735140128        0.69770053389767        6.81819127272978
C           -0.70459264605486        1.95533285234856        7.46787508081687
C           -2.77368340222403        4.82047918315661        2.50124852547938
C           -2.98428207513610        4.84022954489788        1.06435499656585
C           -2.16812241438647        3.79045223979675        0.51885227775895
C           -1.59164259961443        2.82477934107485        1.24670184732272
O           -3.69528994082802        5.73105837333486        3.09588855276299
O           -0.48880822890923        7.12650874614943        3.51926911396037
C           -0.23889148425894        8.87799063400582        8.03808881810563
C           -1.93121600858925        3.60431424924160       -0.93146582394441
H           -0.11674851133930        6.38841557035112        8.36830578155204
H           -0.71655632288097        8.91416830063586        5.23840495707424
H           -0.30450209597112        1.81324472307652        8.44639470397677
H           -1.46272736113918       -0.31499092159542        5.03270419995554
H           -1.19407084307685        1.96499548765134        0.66205414317045
H           -3.84289494425787        5.22363430546586        0.55177019752420
O           -0.63239568575744        8.71471429750722        9.14091344548108
O            0.08676131199582       10.10272419112731        7.32711398920915
C           -0.36907800685294       11.18649330652230        8.07287471573263
C           -0.94865498002187       -0.62933152853785        7.52612172343077
O           -0.09396039458430       -1.51517718292249        7.43568521252374
O           -2.04104712914290       -0.55226958395412        8.30204556097232
C           -2.18421756226176       -1.78368013129794        9.01823655665409
O           -1.26548023325300        4.32629965427675       -1.65368876116570
O           -2.24117897496798        2.30622065709768       -1.39022276477232
C           -1.40062692129991        1.81449867042670       -2.38852686193483
C           -4.82294491845738        5.25596803286301        3.85792581282689
C           -0.29531842559851        6.19826974670745        2.42823010666899
H           -1.30582293141515        0.64709031821356       -2.27851888944798
H           -0.30126272098107        2.06433185293085       -2.17126604201425
H           -1.72564399953450        1.91382897853959       -3.37995864993483
H           -1.11672670310852       -1.93812172299345        9.41240868775896
H           -2.28768285030800       -2.76669921464353        8.36325625823801
H           -2.93384284593583       -1.60069064433227        9.75605511941737
H            0.42819185327159        6.63771980539138        1.76663382130734
H           -1.22464027312689        6.23815530069666        2.01200686973580
H            0.20902607480843        5.19051996041528        2.74457841153170
H           -5.19290959215576        4.31077615940078        3.51841705873633
H           -5.78494445962706        5.86304612617333        4.05680196189891
H           -4.33228796926824        5.10771351634295        4.87016835215146
H           -0.86695947058222       11.11173098549436        8.99852283517797
H           -1.11352132323781       11.80616118922431        7.50182528390637
H            0.54107997011011       11.63355002058609        8.29018986272576
116
 energy: -22.582894392953 gnorm: 0.526545743661 xtb: 6.6.1 (8d0f1dd)
C           -4.32143356914995       -2.19495767470831        2.72915478639071
C           -3.30193515152803       -2.54838923782508        1.87233719167895
C           -2.12783162025490       -3.12744044863210        2.57056677851096
C           -1.99734212096326       -3.04059579938154        4.04780295339198
C           -3.02113481780291       -2.31717285206752        4.68193284441665
C           -4.14185116895479       -2.01858997074347        4.04535938682615
C           -0.91386023507416       -3.66977178538116        2.03331341952047
C            0.24045673737015       -3.53787580927405        2.84693561873072
C            0.24834859771774       -3.33048127324955        4.25711476879464
N           -0.92450649100949       -3.11401232363020        4.91188976099515
C           -0.63587005467740       -4.45567881968806        0.84005206421450
C            0.69271674716349       -4.44591015309115        0.23973078632958
N            1.73104215157245       -4.44170142334737        1.10726325439350
C            1.55923882206895       -3.96661625669050        2.36050490687014
C            2.60488326919489       -4.12092256229782        3.31213243347873
C            2.65105070959279       -3.86310580482439        4.68826126299485
C            1.40972449753940       -3.48135531344245        5.16645903843939
C           -1.66838255998047       -5.14337773110384        0.08333153934530
C           -1.28518069252111       -5.75627124228867       -1.10364455861200
C           -0.10650273827928       -5.52993070480608       -1.71541547074005
C            0.94491364288159       -4.85710476715606       -1.11891144287228
O           -2.90312097369805       -5.23392071980558        0.65424559117385
O           -3.44777193912296       -2.37346277660503        0.54736254203374
C           -5.39536445475842       -1.46245488638239        4.78083083856287
C            0.22667770273169       -6.53362441137445       -2.83755935610593
H           -2.95341985879966       -2.07759263820352        5.69658602162239
H           -5.45133664250442       -1.80967367394920        2.29508067910088
H            1.19860373841674       -3.45038635639379        6.23919402426616
H            3.52391114385474       -4.42112060228489        2.67237138161584
H            1.95041452087666       -4.87123067012293       -1.47139189768719
H           -1.86743400036695       -6.59762389151225       -1.50270259294278
O           -6.41020419768915       -1.21158957693549        4.20811078627500