116
 energy: -22.928061455056 gnorm: 0.329736929581 xtb: 6.6.1 (8d0f1dd)
C           -3.31122850772930        0.79849766164622       -0.92477639677520
C           -2.44380812530352       -0.12270372891954       -0.27661132624697
C           -1.41337090092821        0.39579727573559        0.56335275196199
C           -0.89266158675590        1.65801491088749        0.27377586709581
C           -1.72665675402493        2.51431363229076       -0.49448366572522
C           -2.95444148494349        2.13954154133227       -1.01494489940871
C           -0.74098268209890       -0.43411532818871        1.49825021926784
C            0.56872586496315        0.03782116815119        1.86248088067890
C            1.03782416582094        1.29402317993033        1.50887470833621
N            0.31238977034758        2.07067427098208        0.65193736800696
C           -1.29695700510141       -1.39996043042223        2.41574187746061
C           -0.38243517664656       -2.18060797534842        3.13232615520648
N            0.91308504082021       -1.90366887689689        3.30325166013478
C            1.37712470144904       -0.74872102533751        2.81811050966982
C            2.52149331701875       -0.17739833758153        3.39379298866852
C            2.95849061756259        1.02681208890480        2.95105897606587
C            2.24288949469137        1.78498308775960        2.03503020483770
C           -2.74860936222260       -1.74497937691422        2.38401158947411
C           -3.09416315450955       -2.91614440870436        3.00571134491758
C           -2.16786021984049       -3.77788778654213        3.63251872101904
C           -0.85708937311598       -3.40495313382985        3.68547234358092
O           -3.71994433332149       -0.94984598373544        1.67726658385724
O           -2.55702603277562       -1.47241711578389       -0.57241635275616
C           -3.84297843593025        3.13357444054366       -1.60938954875544
C           -2.68769581069131       -5.03867041417370        4.30484659386931
H           -1.39666850744143        3.51251503834900       -0.76806311868865
H           -4.27662633836220        0.55105838579656       -1.33106614114542
H            2.66329581305412        2.73912661909249        1.72562431984580
H            3.05775395548473       -0.69369546277216        4.16536137542516
H           -0.24710966264510       -4.12034095424229        4.22946223699121
H           -4.11477991332403       -3.04712728052358        3.03244694615357
O           -4.21824883374556        4.03433712717988       -0.87713382485991
O           -4.44510595673734        2.90643496899600       -2.81853501752979
C           -5.44216520282800        3.83300025693726       -3.02488532025093
C            4.23586651889298        1.50004220933226        3.59165660008449
O            5.05927614697201        0.66079890002952        3.91714215179376
O            4.47001334453535        2.86385149488593        3.72605651435371
C            5.79457498613219        3.08584475587818        4.15829123132174
O           -3.82227255313510       -5.27347675879771        4.16636005494405
O           -1.85023202017753       -5.79767454267276        5.06656077253571
C           -2.55119635829503       -6.86252441382958        5.62930343183426
C           -5.07197156564436       -1.42399175670916        1.58830531863830
C           -1.33089900128490       -2.23622472573986       -0.99264499351172
H           -2.54510546830388       -7.76426885143998        4.99136022291012
H           -3.57194749219491       -6.44405511486021        5.74196173723541
H           -2.09133598235598       -7.02043774843818        6.64022264233588
H            5.72707967266424        3.46798026205549        5.10135971236643
H            6.34060091246885        3.78468702308830        3.50069950143490
H            6.17933064298187        2.03010500085905        4.19342358084693
H           -0.91862729772622       -2.57650129080332       -0.01361370304871
H           -0.49769766914251       -1.60651221708571       -1.34094446550576
H           -1.52632419730509       -2.94569707152159       -1.75361447637286
H           -5.11788846557077       -2.41810833635233        1.17520213188926
H           -5.67929807973498       -0.69619639428435        1.04301666067831
H           -5.57598832326623       -1.42383358739762        2.57928294206544
H           -6.13050215934830        3.76035386975488       -2.23272855695873
H           -5.86615610071888        3.45938329385866       -4.02668959924245
H           -5.13479557532099        4.87790991548477       -2.98314551356402
C           -1.38192942069774        3.73616555005018        2.91232598411686
C           -1.84821468128685        2.59982427735607        3.49755545445181
C           -1.05946531454833        2.05730632010638        4.60922730982276
C            0.19893954712228        2.69376791964407        4.86302140881997
C            0.50425395911860        3.94630308659851        4.28768785650746
C           -0.26031777722226        4.46998310053134        3.25072669343212
C           -1.20488993561782        0.74454293276906        5.14851520323437
C           -0.06287609782692        0.02744069315890        5.60930570802864
C            1.19208754369866        0.71421540266195        5.78882868583885
N            1.19428660993148        2.06344359410476        5.62744624321596
C           -2.41361422770794        0.07928500213936        5.25249410304426
C           -2.45851584031083       -1.32662100968547        5.60237876023992
N           -1.29466212405906       -1.98318595734370        5.89916817085159
C           -0.14475655767527       -1.32117560077092        5.98824682881008
C            0.97209270935794       -1.98958449505532        6.53157704134458
C            2.21982707914082       -1.36973967291181        6.68703967237737
C            2.30561929262884       -0.09745313075593        6.26436900324455
C           -3.73018485967715        0.71367583494582        5.25810242262992
C           -4.89964478833448       -0.06184623426677        5.21204641615509
C           -4.82617965800088       -1.39228978090841        5.46901303780036
C           -3.67144193418464       -1.98914944386360        5.67265433266067
O           -3.75568638935321        2.07705011038914        5.52067969627343
O           -2.94192434743730        1.91263938797883        3.01658762327703
C            0.21273512614467        5.50086066357994        2.34765104514621
C           -6.06660304520411       -2.17604633098929        5.80641622556876
H            1.41756699010566        4.38133362238595        4.66974005703471
H           -1.82880610647429        4.11982501512100        2.06992133318584
H            3.26888037378556        0.32655662585251        6.31721410015598
H            0.87146188387207       -3.08471526305024        6.57830423410869
H           -3.67716811065157       -3.05999292755990        5.83019634570050
H           -5.77379677507622        0.43595144608221        4.71017130754348
O            1.34459852619901        5.82615848916894        2.44941456579099
O           -0.74718748219123        6.07961784856304        1.59848183464284
C           -0.21473095568964        7.24015934882472        1.05753806029483
C            3.53228080814219       -2.00967610361154        7.02506769044485
O            3.64093082622715       -3.14437803815732        7.50071391725347
O            4.56565258381079       -1.22937033368332        6.69086985080897
C            5.72579357310716       -1.80692399125161        7.22246151275881
O           -7.04801223588612       -1.95726935745904        5.14194115322235
O           -6.01514389321278       -2.93743591896022        6.94765316328794
C           -7.21292732384718       -3.62681918543340        7.15115816329978
C           -4.95459780685163        2.65960679932188        5.86868674392943
C           -3.68284113682406        2.59129188358641        2.05479246020704
H           -7.43119628931628       -4.22607794725959        6.20622607140901
H           -8.06548455146707       -2.91765848248592        7.29781126410398
H           -7.07314693247270       -4.33087306029711        7.91223421050944
H            6.57332189837178       -1.29353136199234        6.78341268688262
H            5.74663761932316       -2.84282155125561        6.88089468184451
H            5.69426191474290       -1.72781984964892        8.29460302186842
H           -4.10481209541493        3.44288266176275        2.60483747673152
H           -4.49244774344916        1.87419893016926        1.82433103764650
H           -3.18901540870812        2.85154642679373        1.06781919454921
H           -5.55414326821421        2.76698137191684        4.93950725322359
H           -4.78658370641210        3.62090640967288        6.25983200635257
H           -5.43485580473958        1.97242995129449        6.65265772412460
H            0.89164886030839        7.38838561720231        1.13776105146914
H           -0.62894889903848        8.04195665205089        1.64837664327952
H           -0.59282546386754        7.45699159724320        0.03719083132488
116
 energy: -22.553280509099 gnorm: 0.522822224130 xtb: 6.6.1 (8d0f1dd)
C           -3.28516330636019        0.99461466786543       -1.64381349337132
C           -2.36600108659017       -0.04164649657325       -1.63688952473517
C           -1.18805867872625        0.27480869192074       -0.89807040727942
C           -0.71734767010010        1.68371336775605       -0.90499657119749
C           -1.75727054069635        2.62780299966644       -0.79554546811164
C           -3.06449213198479        2.11909035173135       -0.90944898152208
C           -0.60097639945878       -0.62397533534121        0.07626139191976
C            0.70628103978380       -0.18445469703613        0.50307731091064
C            1.15062713137611        1.12634068560549        0.23952062732677
N            0.53267105437878        2.00867438190745       -0.63535155077771
C           -1.21262743604053       -1.74370382637214        0.87736956511961
C           -0.33086437123085       -2.48233021514214        1.70501633710598
N            0.89967215042111       -2.06699909678989        2.05566927306935
C            1.34240601632474       -0.95975361430417        1.50334199701340
C            2.51765674353791       -0.43243248787651        2.04211780985333
C            2.97637911130922        0.81433126464453        1.66247523905999
C            2.27554469456473        1.64000919458996        0.88169747155281
C           -2.51565086900730       -2.20069140737932        0.78063913579400
C           -2.95561018388927       -3.29209722006313        1.47439130371491
C           -2.04067813600095       -4.01294517458232        2.32029627307098
C           -0.75297050902721       -3.60484581403896        2.33168746719652
O           -3.41802010606102       -1.61132868623975        0.00248744576505
O           -2.74182685065894       -1.13310769177471       -2.53987736292898
C           -4.23983962875324        2.96536206734114       -0.70367892593131
C           -2.41210093136413       -5.30260904565987        3.00754974121636
H           -1.78722557670406        3.60793964681217       -0.32316583496319
H           -4.23617560559166        0.73228132260081       -2.15922009011338
H            2.18075731152844        2.66351338153191        1.18456372426515
H            2.86001292751064       -0.83121622752767        3.02981896816909
H           -0.05272147620345       -4.25371024852595        2.96349294611493
H           -3.95870231828834       -3.41283062828814        1.75628807742062
O           -4.04962307062975        4.12486771212490       -0.44122445624772
O           -5.43780839498851        2.33349010506086       -0.61014482069519
C           -6.56159655747778        3.19578694723278       -0.46215490151193
C            4.15706942439733        1.24495058926579        2.40895843946038
O            4.60122370294681        0.52185972073018        3.26882464316647
O            4.80561304718069        2.31506754138827        1.68545875634193
C            5.86992141041240        2.83619763015291        2.49432506598348
O           -3.20952463815530       -5.94149579901718        2.31471525888855
O           -1.84657587852288       -5.68321019740708        4.20369158923314
C           -2.70409194124769       -6.38857056449975        4.97437228334454
C           -4.19986286209875       -2.65895911262328       -0.71383009202627
C           -1.80030050071454       -2.18063220509039       -2.48658691378712
H           -2.61395040267488       -7.56487472993435        4.67400513216756
H           -3.69981362134308       -5.93802151696613        4.60268936780502
H           -2.68529005425639       -6.38662665026178        6.16055332041710
H            5.25960854421613        2.70418521666119        3.48921525256260
H            5.49022460867953        3.91837629709009        2.58672060622394
H            6.90782223043287        2.29547869045130        2.53076418716474
H           -1.10910344032089       -1.82887373220877       -3.37829956553335
H           -2.14143532036193       -3.07794151725678       -2.77103417373544
H           -1.22040279771502       -2.16501392290374       -1.43168956603070
H           -5.01753798795883       -2.12996378534821       -1.11062793914889
H           -4.93903529949479       -3.34746249987333       -0.11822820398318
H           -3.57449211194787       -3.27051711919827       -1.42910738604333
H           -7.52029716831377        3.06206796714500       -1.03962954451213
H           -6.38191162948741        4.18889781107398       -0.67613807839860
H           -6.80567633804906        2.96675502232720        0.56821320859012
C           -1.46954387421213        3.29480205504636        3.41409284869441
C           -1.93836959234728        2.45933543151522        4.43022302396097
C           -0.90367363556352        2.27180442536212        5.49221099007637
C            0.51936660224622        2.61308776384385        5.35826667775878
C            0.78417008040112        3.56449082601612        4.41450947040648
C           -0.14125352046691        3.71904575949104        3.41822162451205
C           -1.08574338639947        1.14734484561860        6.39631252126235
C            0.12067542801670        0.32689878778610        6.82690398095077
C            1.47136457047296        0.84370367020302        6.71143800207121
N            1.61951522483639        1.92247124375408        5.86592412016963
C           -2.44230399448926        0.89814448371524        7.02703355440812
C           -2.50954746423326       -0.53612389421479        7.14913037920102
N           -1.54150623015843       -1.34590859615026        7.54422446839362
C           -0.30464443773167       -0.82382594888191        7.76813219057062
C            0.72504668879137       -1.42225896436587        8.56122020000909
C            2.08774917108902       -0.93102812617523        8.45224582579195
C            2.41686555890859        0.20153756050883        7.58187507239280
C           -3.72748631428432        1.57276301719442        6.67672699015028
C           -4.82381064553360        0.86633055767462        6.18232303190441
C           -4.72947222354878       -0.51028759682729        6.13068159252063
C           -3.64627889323500       -1.31518719874063        6.60771188978223
O           -3.82168065815596        3.02064535656872        6.95909658792268
O           -2.97367605148434        1.67256411006434        4.23740858609434
C            0.29418085821733        4.60137491420283        2.26452996702963
C           -5.93946923683459       -1.40368439570498        5.94683010473409
H            1.68825371850043        4.25837591612715        4.23535379552424
H           -2.05573056824382        3.50286043737022        2.62827795331149
H            3.33493087760916        0.55411231370419        7.41502825394873
H            0.48408726124149       -2.26838634930727        9.07132939568983
H           -3.46821191481359       -2.33777283636558        6.48440781803248
H           -5.59570621447125        1.78883086490676        6.01700816157514
O            1.38877836015766        4.55989751420989        1.63674754229675
O           -0.71222349361034        5.28506063181428        1.64667952700769
C           -0.06590853576423        5.82503052233440        0.47146397701568
C            3.24079073766803       -1.40598398602839        9.34365857700423
O            3.28931110740183       -2.63484620234576        9.48222180960014
O            4.08968213928983       -0.40582608534438        9.82744585942412
C            5.21945861332033       -1.06696471499930       10.36634435364696
O           -6.99453307300381       -1.13602517840899        6.50327623618513
O           -5.68251369822313       -2.43986299595603        5.13684827129465
C           -6.86212736737685       -3.10715371757086        4.87209875667840
C           -4.51357538856508        3.33700381248226        8.14191481277127
C           -4.05529217833439        2.32630927749745        3.55193417271142
H           -6.82440558943480       -3.94188998687128        5.61199857642273
H           -6.80806177772641       -3.21512866219618        3.76881206253504
H           -7.61623876777426       -2.36537535893000        4.88508753853584
H            6.04167254419660       -0.35981281108366       10.72673284260828
H            5.75402754812375       -1.77846816700202        9.70770306003286
H            4.65694382339649       -1.70431983827504       11.16103240018856
H           -4.17846655207625        3.45592133099671        3.69524561806724
H           -4.89225168410188        1.96716091238539        3.96194117801391
H           -3.94538563420674        2.03772504645611        2.57273854073557
H           -4.00345576561030        2.64545330726992        8.71313345653182
H           -5.53234904380417        3.16649269510497        8.33734723764787
H           -4.22018548322053        4.39280735437075        8.43720387392659
H            0.89934384723742        6.06530366740675        0.64774915114812
H           -0.47864053646191        6.82813372466308        0.17469778845166
H           -0.05112208642925        5.12616364823088       -0.41556718376527
116
 energy: -22.598249028668 gnorm: 0.529347632994 xtb: 6.6.1 (8d0f1dd)
C           -4.08809039418717        0.90621829417259       -1.13548052536695
C           -3.10548511281862        0.01340271509825       -1.12205972362869
C           -1.88148437129824        0.38806639119458       -0.39128573814267
C           -1.45635773408687        1.80525541732134       -0.17363493360721
C           -2.48942436477597        2.71728827387148       -0.53962101763596
C           -3.75530811174065        2.22356096097728       -0.85076217914506
C           -1.04853320427711       -0.53338181947755        0.16690327797239
C            0.15104588352648       -0.00099496449536        0.59195013104241
C            0.56606144180707        1.33841909620797        0.53329599077961
N           -0.27117358377072        2.30638846624347        0.26491114724346
C           -1.44350470984038       -1.83102525512607        0.61158553081310
C           -0.38548050817010       -2.73630366726095        1.11583320227977
N            0.84619788173080       -2.17663165300911        1.38057180620974
C            1.07965139559500       -0.86428825464970        1.19428127611007
C            2.37099796326983       -0.45096677786095        1.61535502275891
C            2.88249582961372        0.74531990927564        1.22082950287167
C            1.90598046310857        1.64395898694705        0.69618548684053
C           -2.79553406012817       -2.26817728419501        0.99208697843754
C           -3.02425357329444       -3.64028518760685        1.27018620855631
C           -1.95063344704937       -4.52752914651431        1.41706749726374
C           -0.71967105644786       -4.04764865644860        1.39274321748516
O           -3.79788204367015       -1.29411098437061        1.14940042933485
O           -3.19749084665246       -1.31966667620853       -1.52824241085004
C           -4.78838815264474        3.02299454800510       -1.54642530668186
C           -2.00438499597831       -6.02582225619838        1.86726469864931
H           -2.56829630526396        3.65889535086941       -0.08699917581568
H           -5.02314654918373        0.45426740009706       -1.61184851579509
H            2.10127090093002        2.68079246114736        0.80862687039979
H            2.89080136107155       -1.16787240108137        2.27057702800700
H            0.13655028099795       -4.75284127470239        1.66588870193292
H           -4.13202316197714       -3.72944952973772        1.17979898427473
O           -5.24114997265660        2.22678680962204       -2.50056190964025
O           -5.32568374025615        4.23676862007747       -1.05993536677882
C           -6.29111338000353        4.75945690362150       -1.85294306981381
C            4.33474389653941        1.16837076404085        1.41954405074298
O            5.07401862345373        0.25674895920222        1.74814649142901
O            4.74208998417298        2.43680659118126        1.28613278826384
C            6.07730742908964        2.53865279322394        1.28212009635037
O           -2.95876857358093       -6.70246293244882        1.62466642379449
O           -1.06774977888728       -6.29384857869859        2.83918941251345
C           -1.22779368416765       -7.53739970372558        3.48163556517761
C           -5.18997475323098       -1.54000963367880        1.07516037021306
C           -2.21831926597240       -1.68531676769387       -2.44473514641474
H           -2.22642594308187       -7.53495757738764        4.04134457888229
H           -0.28408664428884       -7.63474676871054        4.12448824154630
H           -1.33916759878313       -8.39153957837306        2.95922208236015
H            6.58628341099412        3.27886176584595        2.05025007309006
H            5.97801488589274        3.39539310335536        0.55818839998201
H            6.61603515558754        1.79650002049541        0.65033509366583
H           -1.10897500246894       -1.76391068781804       -2.02404822886444
H           -2.05652554644418       -1.06143171056993       -3.37639059966672
H           -2.43948037180819       -2.73247035531001       -2.68743597132232
H           -5.68468217081905       -0.66881837616911        1.49367946283595
H           -5.34323152098531       -2.12977745697023        1.98799083882324
H           -5.50139992065967       -1.64658719939324        0.11562978250329
H           -6.11500982129070        4.62474607059750       -2.98535449092019
H           -5.94110693966898        5.81020102478496       -1.78894573877170
H           -7.25737484992239        4.54308302126915       -1.49990559032438
C           -0.60456515666217        3.64921671597897        3.76284905749923
C           -1.11783338482696        2.49707671134345        4.38627034098330
C           -0.36154077866228        2.04987689498732        5.54212386042510
C            1.07205485822139        2.36273015916372        5.64874629236667
C            1.51084382609310        3.42387083307175        4.82000649853221
C            0.70048321314810        4.03502506167285        3.88537383321016
C           -0.94326801921683        0.98932308553432        6.34495157763216
C            0.00042897452346        0.46408268208260        7.22129872773950
C            1.19435919818755        1.07612692932008        7.37757974819395
N            1.83819079495633        2.01878207985328        6.68732673008023
C           -2.31152636901855        0.53593567079461        6.44411585811991
C           -2.48947808127568       -0.77527677318185        6.95825928143037
N           -1.51050223833521       -1.38054918057015        7.72760917975490
C           -0.33888427677205       -0.69840284780386        7.94846705478207
C            0.55051515968073       -1.13536883661865        9.04566093262348
C            1.68874112548791       -0.44470224912697        9.29964013956237
C            2.08141583239140        0.62668742560536        8.52116809276996
C           -3.48102386258005        1.21979743363369        6.24256922758499
C           -4.61731313603912        0.40472802357250        5.93580602509665
C           -4.72161579396514       -0.95838311618541        6.29952141652216
C           -3.73375384100655       -1.45365991014640        7.08444950665946
O           -3.59136375975575        2.55137630735137        6.33511460877613
O           -2.18867193920988        1.73172278676218        3.86397051761775
C            0.99545116106187        4.96982832573557        2.80378471325722
C           -6.19040538610917       -1.53228825755739        6.20674573158603
H            2.49985131294129        3.76885764166955        5.08118104180853
H           -1.25824983168094        3.87613541242994        2.99380675305012
H            3.05094382482806        0.86333074667328        8.24164450448274
H            0.58884395909213       -1.86513073888797        9.72418564278058
H           -3.70969109705135       -2.51735567188078        7.27426153909039
H           -5.52070406630215        0.99069745996009        5.53360351326678
O            2.07533430568695        5.02443562085440        2.24696812761901
O            0.03827916469335        5.94323747798706        2.55640778260940
C            0.51500700190510        6.87095998497689        1.71504159026419
C            2.45889972446111       -1.10815117454986       10.28811681822767
O            2.01934601184436       -1.84316055286127       11.19654416248052
O            3.71918578120644       -0.50086956984753       10.16106280673870
C            4.63147439995834       -0.73622393104176       11.08757338713995
O           -7.18592686460686       -0.80693923108827        6.25427404621075
O           -6.19121724022288       -2.84377845968124        6.62050155886991
C           -7.48078298200369       -3.29782221282304        7.09366899911226
C           -4.43895059572616        3.11911539735198        5.20402253497230
C           -1.82318528121391        0.39292500640355        3.55792193414779
H           -7.84498965892710       -3.36232218859406        8.14434415408200
H           -7.42483414987819       -4.49219468070994        6.87986612058697
H           -8.36584381668106       -2.91482378524187        6.49839376534113
H            4.97148377451680       -1.69751158589662       11.32210807880835
H            4.26468239659791       -0.33100231223210       12.03268867401984
H            5.46068047844161       -0.05390099018215       10.74965985610548
H           -2.34588436696374        0.11716036596633        2.73556973539927
H           -1.94726542557240       -0.26078185824304        4.35915831930193
H           -0.76995500129548        0.39818224462786        3.11622480141755
H           -4.15822801892253        4.07395691472710        4.96885047844585
H           -5.52147359665009        3.20085244169830        5.27840297351780
H           -4.20456663091501        2.63896854873526        4.31817178821433
H            0.93214192997116        7.65063934810798        2.55547476019144
H           -0.17568392516469        7.48621215014784        1.15707994531939
H            1.20822105525321        6.35135823070216        1.12719135939099
116
 energy: -22.599611693613 gnorm: 0.521914670175 xtb: 6.6.1 (8d0f1dd)
C           -4.61028169120594        1.04898213631965       -0.36076830067600
C           -3.48542393096071        0.08990405268123       -0.22464492574914
C           -2.32414386984713        0.65546213913350        0.33753671776624
C           -2.05287505443736        2.08235478227950        0.02047889652673
C           -3.12676772038218        2.97273403567063       -0.19282367711771
C           -4.38372811470829        2.44735442837143       -0.59349894463913
C           -1.34339053655401       -0.23697709843793        0.87227143958073
C           -0.02160968225269        0.34918694390697        0.82940690288465
C            0.23961978355386        1.75127755714768        0.38016764675115
N           -0.75466110165635        2.52350644221312        0.02927946758389
C           -1.57452526267776       -1.56344318861793        1.06686439627246
C           -0.37149797308191       -2.32735105340907        0.91650762501053
N            0.88384560249272       -1.95282923939858        0.92574390920914
C            1.07444096971900       -0.60060164631631        1.03701551715865
C            2.33586584806944       -0.03867112788138        1.14396211294951
C            2.68607557447171        1.30757385913976        0.68678994635150
C            1.60534396907216        2.22680009504381        0.43145925566093
C           -2.68511081279193       -2.31896924448298        1.53922687498121
C           -2.82443929272242       -3.75735636801670        1.40818073961734
C           -1.72311937031372       -4.39959675936531        0.98352935680903
C           -0.54111935186248       -3.74879354528144        0.80106156654678
O           -3.59405530495451       -1.62360875717668        2.25866227753534
O           -3.40854472108008       -1.27698712425525       -0.70247376015348
C           -5.01801882695076        3.13262921864117       -1.63973206636894
C           -1.84608434803376       -5.88634086036533        1.23169705918173
H           -2.87917948342599        3.83643438527856       -0.67987266732897
H           -5.49836211957494        1.00359294803530       -0.95413320034184
H            1.71502928622655        3.28696334370928        0.28809130667757
H            3.17745760319181       -0.65181514341999        1.43138538927838
H            0.38187193326305       -4.31318662881785        0.81032549382714
H           -3.79226068297433       -4.16395928331553        1.46451788046102
O           -5.84956447543435        2.52532559776641       -2.26708108090942