Optimization of monomers started
      -----------------------------------------------------------      
     |                   =====================                   |     
     |                           x T B                           |     
     |                   =====================                   |     
     |                         S. Grimme                         |     
     |          Mulliken Center for Theoretical Chemistry        |     
     |                    University of Bonn                     |     
      -----------------------------------------------------------      

   * xtb version 6.7.1 (edcfbbe) compiled by 'runner@Mac-1732539442253.local' on 2024-11-25

   xtb is free software: you can redistribute it and/or modify it under
   the terms of the GNU Lesser General Public License as published by
   the Free Software Foundation, either version 3 of the License, or
   (at your option) any later version.
   
   xtb is distributed in the hope that it will be useful,
   but WITHOUT ANY WARRANTY; without even the implied warranty of
   MERCHANTABILITY or FITNESS FOR A PARTICULAR PURPOSE.  See the
   GNU Lesser General Public License for more details.
   
   Cite this work as:
   * C. Bannwarth, E. Caldeweyher, S. Ehlert, A. Hansen, P. Pracht,
     J. Seibert, S. Spicher, S. Grimme, WIREs Comput. Mol. Sci., 2020, 11,
     e01493. DOI: 10.1002/wcms.1493
   
   for GFN2-xTB:
   * C. Bannwarth, S. Ehlert and S. Grimme., J. Chem. Theory Comput., 2019,
     15, 1652-1671. DOI: 10.1021/acs.jctc.8b01176
   for GFN1-xTB:
   * S. Grimme, C. Bannwarth, P. Shushkov, J. Chem. Theory Comput., 2017,
     13, 1989-2009. DOI: 10.1021/acs.jctc.7b00118
   for GFN0-xTB:
   * P. Pracht, E. Caldeweyher, S. Ehlert, S. Grimme, ChemRxiv, 2019, preprint.
     DOI: 10.26434/chemrxiv.8326202.v1
   for GFN-FF:
   * S. Spicher and S. Grimme, Angew. Chem. Int. Ed., 2020, 59, 15665-15673.
     DOI: 10.1002/anie.202004239
   
   for ALPB and GBSA implicit solvation:
   * S. Ehlert, M. Stahn, S. Spicher, S. Grimme, J. Chem. Theory Comput.,
     2021, 17, 4250-4261. DOI: 10.1021/acs.jctc.1c00471
   
   for ddCOSMO and CPCM-X implicit solvation:
   * M. Stahn, S. Ehlert, S. Grimme, J. Phys. Chem. A,
     2023, XX, XXXX-XXXX. DOI: 10.1021/acs.jpca.3c04382
   
   for DFT-D4:
   * E. Caldeweyher, C. Bannwarth and S. Grimme, J. Chem. Phys., 2017,
     147, 034112. DOI: 10.1063/1.4993215
   * E. Caldeweyher, S. Ehlert, A. Hansen, H. Neugebauer, S. Spicher,
     C. Bannwarth and S. Grimme, J. Chem. Phys., 2019, 150, 154122.
     DOI: 10.1063/1.5090222
   * E. Caldeweyher, J.-M. Mewes, S. Ehlert and S. Grimme, Phys. Chem. Chem. Phys.
     2020, 22, 8499-8512. DOI: 10.1039/D0CP00502A
   
   for sTDA-xTB:
   * S. Grimme and C. Bannwarth, J. Chem. Phys., 2016, 145, 054103.
     DOI: 10.1063/1.4959605
   
   in the mass-spec context:
   * V. Asgeirsson, C. Bauer and S. Grimme, Chem. Sci., 2017, 8, 4879.
     DOI: 10.1039/c7sc00601b
   * J. Koopman and S. Grimme, ACS Omega 2019, 4, 12, 15120-15133.
     DOI: 10.1021/acsomega.9b02011
   
   for metadynamics refer to:
   * S. Grimme, J. Chem. Theory Comput., 2019, 155, 2847-2862
     DOI: 10.1021/acs.jctc.9b00143
   
   for SPH calculations refer to:
   * S. Spicher and S. Grimme, J. Chem. Theory Comput., 2021, 17, 1701-1714
     DOI: 10.1021/acs.jctc.0c01306
   
   for ONIOM refer to:
   * C. Plett, A. Katbashev, S. Ehlert, S. Grimme, M. Bursch,
     Phys. Chem. Chem. Phys., 2023, 25, 17860-17868. DOI: 10.1039/D3CP02178E
   
   for DIPRO refer to:
   * J. Kohn, N. Gildemeister, S. Grimme, D. Fazzi, A. Hansen,
     J. Chem. Phys., 2023, just accepted.
   
   for PTB refer to:
   * S. Grimme, M. Mueller, A. Hansen, J. Chem. Phys., 2023, 158, 124111.
     DOI: 10.1063/5.0137838
   
   with help from (in alphabetical order)
   P. Atkinson, C. Bannwarth, F. Bohle, G. Brandenburg, E. Caldeweyher
   M. Checinski, S. Dohm, S. Ehlert, S. Ehrlich, I. Gerasimov, C. Hölzer
   A. Katbashev, J. Kohn, J. Koopman, C. Lavigne, S. Lehtola, F. März, M. Müller,
   F. Musil, H. Neugebauer, J. Pisarek, C. Plett, P. Pracht, F. Pultar,
   J. Seibert, P. Shushkov, S. Spicher, M. Stahn, M. Steiner, T. Strunk,
   J. Stückrath, T. Rose, and J. Unsleber
   
 * started run on 2025/03/04 at 11:17:58.250     
   ID    Z sym.   atoms
    1    6 C      1-9, 11, 12, 14-21, 24-35, 42, 43
    2    7 N      10, 13
    3    8 O      22, 23
    4    1 H      36-41, 44-76

           -------------------------------------------------
          |                Calculation Setup                |
           -------------------------------------------------

          program call               : xtb Base3tBu.mol --opt tight --cycles 500 --chrg 0 --uhf 1 --spinpol --tblite
          coordinate file            : Base3tBu.mol
          omp threads                :                     8

repulsion energy          9.7623309485373E-01 Eh
dispersion energy         5.6497307361390E-04 Eh
interaction energy        0.0000000000000E+00 Eh
number of electrons       1.9300000000000E+02 e
integral cutoff           1.7347787504999E+01 bohr

------------------------------------------------------------
  cycle        total energy    energy error   density error
------------------------------------------------------------
      1     -103.0721809547  -1.0404898E+02   1.0892012E-01
      2     -103.1662067139  -9.4025759E-02   6.4790329E-02
      3     -102.9960378991   1.7016881E-01   5.6101443E-02
      4     -103.2679914571  -2.7195356E-01   2.8827988E-02
      5     -103.4177941876  -1.4980273E-01   9.0364652E-03
      6     -103.4225888928  -4.7947053E-03   5.1927968E-03
      7     -103.4251443568  -2.5554640E-03   3.3605394E-03
      8     -103.4255806917  -4.3633485E-04   2.3711213E-03
      9     -103.4261703508  -5.8965916E-04   1.2630173E-03
     10     -103.4262252762  -5.4925389E-05   8.2024475E-04
     11     -103.4262176345   7.6417256E-06   6.8817320E-04
     12     -103.4262621706  -4.4536173E-05   3.2724733E-04
     13     -103.4262676802  -5.5095915E-06   1.9641643E-04
     14     -103.4262713613  -3.6810597E-06   1.2483283E-04
     15     -103.4262730802  -1.7188981E-06   7.0476780E-05
     16     -103.4262732361  -1.5592295E-07   4.1830291E-05
     17     -103.4262733480  -1.1183565E-07   2.4157664E-05
     18     -103.4262733929  -4.4980553E-08   1.3885217E-05
------------------------------------------------------------

electronic energy        -1.0440307146086E+02 Eh
total energy             -1.0342627339293E+02 Eh

 total:                                   0.810 sec
 - repulsion                              0.000 sec (  0%)
 - dispersion                             0.006 sec (  0%)
 - coulomb                                0.002 sec (  0%)
 - hamiltonian                            0.011 sec (  1%)
 - scc                                    0.790 sec ( 97%)

      ----------------------------------------------------------- 
     |                   =====================                   |
     |                        A N C O P T                        |
     |                   =====================                   |
     |               Approximate Normal Coordinate               |
     |                Rational Function Optimizer                |
      ----------------------------------------------------------- 
      ----------------------------------------------------------- 
     |                   =====================                   |
     |                        A N C O P T                        |
     |                   =====================                   |
     |               Approximate Normal Coordinate               |
     |                Rational Function Optimizer                |
      ----------------------------------------------------------- 

          ...................................................
          :                      SETUP                      :
          :.................................................:
          :   optimization level             tight          :
          :   max. optcycles                   500          :
          :   ANC micro-cycles                  20          :
          :   degrees of freedom               222          :
          :.................................................:
          :   RF solver                   davidson          :
          :   write xtbopt.log                true          :
          :   linear?                        false          :
          :   energy convergence         0.1000000E-05 Eh   :
          :   grad. convergence          0.8000000E-03 Eh/α :
          :   maxmium RF displ.          1.0000000          :
          :   Hlow (freq-cutoff)         0.1000000E-01      :
          :   Hmax (freq-cutoff)         5.0000000          :
          :   S6 in model hess.         20.0000000          :
          ...................................................

generating ANC from exact Hessian ...
Using Lindh-Hessian (1995)
 Shifting diagonal of input Hessian by    1.0131760126574452E-002
 Lowest  eigenvalues of input Hessian
    0.010000    0.010022    0.010042    0.010077    0.010081    0.000000
    0.010094    0.000000    0.000000    0.000000    0.000000    0.000000
    0.010271    0.010381    0.010445    0.010555    0.010617    0.010783
 Highest eigenvalues
    1.169183    1.169787    1.219763    1.220655    1.407608    2.384335


........................................................................
.............................. CYCLE    1 ..............................
........................................................................
------------------------------------------------------------
  cycle        total energy    energy error   density error
------------------------------------------------------------
      1     -103.4262731891  -1.0440307E+02   3.0645094E-05
      2     -103.4262729416   2.4747082E-07   4.5408235E-05
      3     -103.4262734025  -4.6093088E-07   5.6697717E-06
------------------------------------------------------------

 total:                                   0.146 sec
 * total energy  :  -103.4262734 Eh     change       -0.9609508E-08 Eh
   gradient norm :     0.5456430 Eh/α   predicted     0.0000000E+00 (-100.00%)
   displ. norm   :     0.7928252 α      lambda       -0.3675768E+00
   maximum displ.:     0.3174331 α      in ANC's #103, #105, #143, ...

........................................................................
.............................. CYCLE    2 ..............................
........................................................................
------------------------------------------------------------
  cycle        total energy    energy error   density error
------------------------------------------------------------
      1     -103.7410788442  -1.0471418E+02   1.0028800E-02
      2     -103.7414485608  -3.6971657E-04   6.1475902E-03
      3     -103.7386383479   2.8102129E-03   4.8377896E-03
      4     -103.7418893208  -3.2509729E-03   9.9524932E-04
      5     -103.7419806416  -9.1320844E-05   6.3166093E-04
      6     -103.7420231126  -4.2471024E-05   2.7129900E-04
      7     -103.7420283651  -5.2524854E-06   1.7804231E-04
      8     -103.7420302831  -1.9179381E-06   9.2141187E-05
      9     -103.7420310709  -7.8785935E-07   5.1974556E-05
     10     -103.7420311710  -1.0005598E-07   3.4330253E-05
     11     -103.7420312197  -4.8760228E-08   2.2817971E-05
     12     -103.7420312604  -4.0635683E-08   1.2466534E-05
------------------------------------------------------------

 total:                                   0.676 sec
 * total energy  :  -103.7420313 Eh     change       -0.3157579E+00 Eh
   gradient norm :     0.3700606 Eh/α   predicted    -0.2993305E+00 (  -5.20%)
   displ. norm   :     0.8356381 α      lambda       -0.2836256E+00
   maximum displ.:     0.3714456 α      in ANC's #103, #105, #56, ...

........................................................................
.............................. CYCLE    3 ..............................
........................................................................
------------------------------------------------------------
  cycle        total energy    energy error   density error
------------------------------------------------------------
      1     -103.9801190295  -1.0500398E+02   9.8589797E-03
      2     -103.9802013463  -8.2316873E-05   6.1693122E-03
      3     -103.9773542889   2.8470575E-03   5.1602722E-03
      4     -103.9809533293  -3.5990404E-03   9.0593059E-04
      5     -103.9810677621  -1.1443279E-04   4.6998773E-04
      6     -103.9810904537  -2.2691667E-05   2.5077093E-04
      7     -103.9810949098  -4.4560853E-06   1.4056240E-04
      8     -103.9810951262  -2.1635178E-07   8.2670677E-05
      9     -103.9810956889  -5.6274123E-07   4.7941791E-05
     10     -103.9810957797  -9.0789115E-08   2.8868410E-05
     11     -103.9810958168  -3.7123783E-08   2.0447534E-05
     12     -103.9810958535  -3.6648103E-08   1.0219902E-05
------------------------------------------------------------

 total:                                   0.469 sec
 * total energy  :  -103.9810959 Eh     change       -0.2390646E+00 Eh
   gradient norm :     0.2380498 Eh/α   predicted    -0.2408395E+00 (   0.74%)
   displ. norm   :     0.8486631 α      lambda       -0.1924412E+00
   maximum displ.:     0.3972652 α      in ANC's #103, #105, #56, ...

........................................................................
.............................. CYCLE    4 ..............................
........................................................................
------------------------------------------------------------
  cycle        total energy    energy error   density error
------------------------------------------------------------
      1     -104.1450669779  -1.0525530E+02   8.5074065E-03
      2     -104.1449192167   1.4776116E-04   5.4008051E-03
      3     -104.1428151405   2.1040763E-03   4.6941624E-03
      4     -104.1457767978  -2.9616573E-03   7.3186662E-04
      5     -104.1458573778  -8.0580007E-05   3.2663636E-04
      6     -104.1458628665  -5.4887172E-06   1.9610273E-04
      7     -104.1458639807  -1.1142383E-06   1.1314380E-04
      8     -104.1458647140  -7.3324293E-07   6.1177630E-05
      9     -104.1458648253  -1.1130128E-07   4.1564883E-05
     10     -104.1458649398  -1.1455724E-07   2.0276242E-05
     11     -104.1458649550  -1.5115745E-08   1.2102368E-05
------------------------------------------------------------

 total:                                   0.493 sec
 * total energy  :  -104.1458650 Eh     change       -0.1647691E+00 Eh
   gradient norm :     0.1669999 Eh/α   predicted    -0.1655223E+00 (   0.46%)
   displ. norm   :     0.8482265 α      lambda       -0.1356362E+00
   maximum displ.:     0.4327189 α      in ANC's #56, #103, #105, ...

........................................................................
.............................. CYCLE    5 ..............................
........................................................................
------------------------------------------------------------
  cycle        total energy    energy error   density error
------------------------------------------------------------
      1     -104.2610262166  -1.0546638E+02   7.5609413E-03
      2     -104.2609068251   1.1939149E-04   4.8652481E-03
      3     -104.2595343479   1.3724772E-03   4.0924070E-03
      4     -104.2617276867  -2.1933388E-03   7.2825111E-04
      5     -104.2618076944  -8.0007694E-05   2.8252705E-04
      6     -104.2618106233  -2.9289086E-06   1.7621601E-04
      7     -104.2618111719  -5.4862919E-07   1.0825014E-04
      8     -104.2618120318  -8.5988280E-07   5.2577785E-05
      9     -104.2618121061  -7.4324305E-08   3.5703425E-05
     10     -104.2618122019  -9.5737022E-08   1.5926497E-05
------------------------------------------------------------

 total:                                   0.469 sec
 * total energy  :  -104.2618122 Eh     change       -0.1159472E+00 Eh
   gradient norm :     0.1198854 Eh/α   predicted    -0.1166124E+00 (   0.57%)
   displ. norm   :     0.8513681 α      lambda       -0.9574404E-01
   maximum displ.:     0.5209625 α      in ANC's #56, #103, #105, ...

........................................................................
.............................. CYCLE    6 ..............................
........................................................................
------------------------------------------------------------
  cycle        total energy    energy error   density error
------------------------------------------------------------
      1     -104.3436266841  -1.0563248E+02   6.3600772E-03
      2     -104.3436551155  -2.8431366E-05   4.0180852E-03
      3     -104.3427582429   8.9687261E-04   3.2014679E-03
      4     -104.3441032119  -1.3449690E-03   6.1628170E-04
      5     -104.3441629421  -5.9730171E-05   2.1727646E-04
      6     -104.3441647897  -1.8476172E-06   1.2977860E-04
      7     -104.3441654575  -6.6775321E-07   8.1293044E-05
      8     -104.3441658264  -3.6899401E-07   4.0995339E-05
      9     -104.3441659215  -9.5061679E-08   2.5579349E-05
     10     -104.3441659633  -4.1775706E-08   1.1286958E-05
------------------------------------------------------------

 total:                                   0.431 sec
 * total energy  :  -104.3441660 Eh     change       -0.8235376E-01 Eh
   gradient norm :     0.0884104 Eh/α   predicted    -0.8257103E-01 (   0.26%)
   displ. norm   :     0.8589280 α      lambda       -0.6945231E-01
   maximum displ.:     0.5613552 α      in ANC's #56, #17, #103, ...

........................................................................
.............................. CYCLE    7 ..............................
........................................................................
------------------------------------------------------------
  cycle        total energy    energy error   density error
------------------------------------------------------------
      1     -104.4039750090  -1.0575851E+02   5.0815520E-03
      2     -104.4040509804  -7.5971365E-05   3.0898611E-03
      3     -104.4035364396   5.1454083E-04   2.2447319E-03
      4     -104.4042004083  -6.6396870E-04   4.3173940E-04
      5     -104.4042300244  -2.9616143E-05   1.6904614E-04
      6     -104.4042316279  -1.6034455E-06   9.2178891E-05
      7     -104.4042320425  -4.1461865E-07   5.8838696E-05
      8     -104.4042322414  -1.9890905E-07   3.1003517E-05
      9     -104.4042322912  -4.9819093E-08   1.8667907E-05
------------------------------------------------------------

 total:                                   0.454 sec
 * total energy  :  -104.4042323 Eh     change       -0.6006633E-01 Eh
   gradient norm :     0.0646922 Eh/α   predicted    -0.6034579E-01 (   0.47%)
   displ. norm   :     0.8657649 α      lambda       -0.5137185E-01
   maximum displ.:     0.5406258 α      in ANC's #56, #17, #19, ...

........................................................................
.............................. CYCLE    8 ..............................
........................................................................
------------------------------------------------------------
  cycle        total energy    energy error   density error
------------------------------------------------------------
      1     -104.4482041350  -1.0585103E+02   4.4870136E-03
      2     -104.4482726197  -6.8484688E-05   2.6642243E-03
      3     -104.4480193570   2.5326265E-04   1.5680318E-03
      4     -104.4483221523  -3.0279532E-04   2.9881959E-04
      5     -104.4483321273  -9.9749758E-06   1.6386476E-04
      6     -104.4483344801  -2.3527854E-06   8.4953291E-05
      7     -104.4483348016  -3.2153203E-07   5.4675818E-05
      8     -104.4483349740  -1.7234737E-07   2.6576254E-05
      9     -104.4483350005  -2.6504594E-08   1.6571769E-05
------------------------------------------------------------

 total:                                   0.425 sec
 * total energy  :  -104.4483350 Eh     change       -0.4410271E-01 Eh
   gradient norm :     0.0531639 Eh/α   predicted    -0.4493879E-01 (   1.90%)
   displ. norm   :     0.8902196 α      lambda       -0.4125762E-01
   maximum displ.:     0.4711664 α      in ANC's #56, #17, #18, ...

........................................................................
.............................. CYCLE    9 ..............................
........................................................................
------------------------------------------------------------
  cycle        total energy    energy error   density error
------------------------------------------------------------
      1     -104.4809759579  -1.0593257E+02   4.6681610E-03
      2     -104.4810266963  -5.0738341E-05   2.7902528E-03
      3     -104.4807397804   2.8691587E-04   1.6221798E-03
      4     -104.4810849298  -3.4514944E-04   2.4592692E-04
      5     -104.4810921809  -7.2510658E-06   1.2370724E-04
      6     -104.4810932819  -1.1009754E-06   6.0510756E-05
      7     -104.4810935069  -2.2507285E-07   3.6207294E-05
      8     -104.4810935781  -7.1136441E-08   2.2455138E-05
      9     -104.4810935895  -1.1452514E-08   1.4132013E-05
------------------------------------------------------------

 total:                                   0.438 sec
 * total energy  :  -104.4810936 Eh     change       -0.3275859E-01 Eh
   gradient norm :     0.0567027 Eh/α   predicted    -0.3697696E-01 (  12.88%)
   displ. norm   :     0.8708705 α      lambda       -0.3497180E-01
   maximum displ.:     0.3851315 α      in ANC's #56, #17, #19, ...

........................................................................
.............................. CYCLE   10 ..............................
........................................................................
------------------------------------------------------------
  cycle        total energy    energy error   density error
------------------------------------------------------------
      1     -104.5086332801  -1.0599320E+02   4.7539263E-03
      2     -104.5086825165  -4.9236419E-05   2.8251041E-03
      3     -104.5085132090   1.6930750E-04   1.2132338E-03
      4     -104.5087162246  -2.0301558E-04   1.7641908E-04
      5     -104.5087177503  -1.5257580E-06   1.0094492E-04
      6     -104.5087185972  -8.4691337E-07   4.5703763E-05
      7     -104.5087187389  -1.4169086E-07   2.3771349E-05
      8     -104.5087187795  -4.0522849E-08   1.3527643E-05
------------------------------------------------------------

 total:                                   0.293 sec
 * total energy  :  -104.5087188 Eh     change       -0.2762519E-01 Eh
   gradient norm :     0.0363517 Eh/α   predicted    -0.3074748E-01 (  11.30%)
   displ. norm   :     0.8742293 α      lambda       -0.2636072E-01
   maximum displ.:     0.3862332 α      in ANC's #19, #17, #18, ...

........................................................................
.............................. CYCLE   11 ..............................
........................................................................
------------------------------------------------------------
  cycle        total energy    energy error   density error
------------------------------------------------------------
      1     -104.5290041243  -1.0604813E+02   4.2380280E-03
      2     -104.5290418368  -3.7712474E-05   2.5213757E-03
      3     -104.5288478363   1.9400043E-04   1.1922613E-03
      4     -104.5290652447  -2.1740834E-04   2.7613563E-04
      5     -104.5290772622  -1.2017542E-05   1.0521037E-04
      6     -104.5290780342  -7.7204038E-07   3.8492621E-05
      7     -104.5290781021  -6.7875561E-08   2.2188124E-05
      8     -104.5290781358  -3.3646330E-08   1.2529667E-05
------------------------------------------------------------

 total:                                   0.303 sec
 * total energy  :  -104.5290781 Eh     change       -0.2035936E-01 Eh
   gradient norm :     0.0470736 Eh/α   predicted    -0.2325383E-01 (  14.22%)
   displ. norm   :     0.8528258 α      lambda       -0.2433930E-01
   maximum displ.:     0.4110095 α      in ANC's #17, #19, #18, ...

........................................................................
.............................. CYCLE   12 ..............................
........................................................................
------------------------------------------------------------
  cycle        total energy    energy error   density error
------------------------------------------------------------
      1     -104.5469499808  -1.0610102E+02   3.9901848E-03
      2     -104.5469871846  -3.7203801E-05   2.3717549E-03
      3     -104.5468665468   1.2063776E-04   9.4430925E-04
      4     -104.5470068585  -1.4031170E-04   1.9536446E-04
      5     -104.5470113681  -4.5096114E-06   9.8833792E-05
      6     -104.5470123221  -9.5402849E-07   3.8701350E-05
      7     -104.5470124225  -1.0031707E-07   1.8224224E-05
------------------------------------------------------------

 total:                                   0.333 sec
 * total energy  :  -104.5470124 Eh     change       -0.1793429E-01 Eh
   gradient norm :     0.0331180 Eh/α   predicted    -0.2102079E-01 (  17.21%)
   displ. norm   :     0.8229641 α      lambda       -0.1684347E-01
   maximum displ.:     0.3653170 α      in ANC's #17, #19, #18, ...

........................................................................
.............................. CYCLE   13 ..............................
........................................................................
------------------------------------------------------------
  cycle        total energy    energy error   density error
------------------------------------------------------------
      1     -104.5595059938  -1.0613022E+02   3.4630305E-03
      2     -104.5595242033  -1.8209462E-05   2.0406559E-03
      3     -104.5594726562   5.1547049E-05   6.1544948E-04
      4     -104.5595312985  -5.8642229E-05   1.5954275E-04
      5     -104.5595331463  -1.8477908E-06   8.7697827E-05
      6     -104.5595341512  -1.0049265E-06   2.7332145E-05
      7     -104.5595342076  -5.6444819E-08   1.5599559E-05
------------------------------------------------------------

 total:                                   0.301 sec
 * total energy  :  -104.5595342 Eh     change       -0.1252179E-01 Eh
   gradient norm :     0.0317040 Eh/α   predicted    -0.1412552E-01 (  12.81%)
   displ. norm   :     0.8179737 α      lambda       -0.1575689E-01
   maximum displ.:     0.3784802 α      in ANC's #19, #17, #15, ...

........................................................................
.............................. CYCLE   14 ..............................
........................................................................
------------------------------------------------------------
  cycle        total energy    energy error   density error
------------------------------------------------------------
      1     -104.5688859135  -1.0615166E+02   4.1222064E-03
      2     -104.5689138799  -2.7966374E-05   2.4429151E-03
      3     -104.5688574770   5.6402904E-05   6.8682778E-04
      4     -104.5689220244  -6.4547396E-05   1.6028353E-04
      5     -104.5689244403  -2.4159865E-06   8.6422140E-05
      6     -104.5689252324  -7.9202395E-07   3.4348370E-05
      7     -104.5689253251  -9.2718267E-08   1.5150980E-05
------------------------------------------------------------

 total:                                   0.295 sec
 * total energy  :  -104.5689253 Eh     change       -0.9391117E-02 Eh
   gradient norm :     0.0379568 Eh/α   predicted    -0.1314977E-01 (  40.02%)
   displ. norm   :     0.6977759 α      lambda       -0.1079759E-01
   maximum displ.:     0.2885758 α      in ANC's #19, #15, #17, ...

........................................................................
.............................. CYCLE   15 ..............................
........................................................................
------------------------------------------------------------
  cycle        total energy    energy error   density error
------------------------------------------------------------
      1     -104.5750864860  -1.0617635E+02   3.5863010E-03
      2     -104.5751081806  -2.1694580E-05   2.1054686E-03
      3     -104.5750444177   6.3762833E-05   5.4973355E-04
      4     -104.5751154764  -7.1058672E-05   1.6761412E-04
      5     -104.5751186868  -3.2104142E-06   8.1552754E-05
      6     -104.5751191988  -5.1194093E-07   3.1115845E-05
      7     -104.5751192473  -4.8564573E-08   1.6345524E-05
------------------------------------------------------------

 total:                                   0.332 sec
 * total energy  :  -104.5751192 Eh     change       -0.6193922E-02 Eh
   gradient norm :     0.0361982 Eh/α   predicted    -0.8027420E-02 (  29.60%)
   displ. norm   :     0.6564914 α      lambda       -0.8893117E-02
   maximum displ.:     0.3057613 α      in ANC's #15, #19, #17, ...

........................................................................
.............................. CYCLE   16 ..............................
........................................................................
------------------------------------------------------------
  cycle        total energy    energy error   density error
------------------------------------------------------------
      1     -104.5792654181  -1.0618140E+02   3.5382442E-03
      2     -104.5792876088  -2.2190709E-05   2.0685776E-03
      3     -104.5791755893   1.1201951E-04   7.9405264E-04
      4     -104.5793021263  -1.2653695E-04   1.5831182E-04
      5     -104.5793040071  -1.8808751E-06   7.4717120E-05
      6     -104.5793045216  -5.1447155E-07   2.8600339E-05
      7     -104.5793046190  -9.7404012E-08   1.1313611E-05
------------------------------------------------------------

 total:                                   0.264 sec
 * total energy  :  -104.5793046 Eh     change       -0.4185372E-02 Eh
   gradient norm :     0.0256560 Eh/α   predicted    -0.6362943E-02 (  52.03%)
   displ. norm   :     0.5415458 α      lambda       -0.4860207E-02
   maximum displ.:     0.2747090 α      in ANC's #15, #19, #22, ...

........................................................................
.............................. CYCLE   17 ..............................
........................................................................
------------------------------------------------------------
  cycle        total energy    energy error   density error
------------------------------------------------------------
      1     -104.5816359611  -1.0618794E+02   3.0487792E-03
      2     -104.5816522345  -1.6273451E-05   1.7781156E-03
      3     -104.5816118627   4.0371772E-05   5.4398729E-04
      4     -104.5816596480  -4.7785248E-05   1.2723074E-04
      5     -104.5816600350  -3.8699542E-07   7.0091831E-05
      6     -104.5816607736  -7.3857872E-07   2.0690835E-05
      7     -104.5816608248  -5.1214187E-08   8.7952063E-06
------------------------------------------------------------

 total:                                   0.326 sec
 * total energy  :  -104.5816608 Eh     change       -0.2356206E-02 Eh
   gradient norm :     0.0262879 Eh/α   predicted    -0.3142786E-02 (  33.38%)
   displ. norm   :     0.5110290 α      lambda       -0.4609578E-02
   maximum displ.:     0.2353573 α      in ANC's #15, #19, #22, ...

........................................................................
.............................. CYCLE   18 ..............................
........................................................................
------------------------------------------------------------
  cycle        total energy    energy error   density error
------------------------------------------------------------
      1     -104.5827594638  -1.0620364E+02   2.9466183E-03
      2     -104.5827748194  -1.5355550E-05   1.7507885E-03
      3     -104.5827011664   7.3652981E-05   6.4678438E-04
      4     -104.5827819134  -8.0746977E-05   1.4275082E-04
      5     -104.5827846812  -2.7678286E-06   6.0485014E-05
      6     -104.5827850149  -3.3373284E-07   2.6154279E-05
      7     -104.5827850458  -3.0865380E-08   1.2191165E-05
------------------------------------------------------------

 total:                                   0.345 sec
 * total energy  :  -104.5827850 Eh     change       -0.1124221E-02 Eh
   gradient norm :     0.0320213 Eh/α   predicted    -0.2906691E-02 ( 158.55%)
   displ. norm   :     0.2773044 α      lambda       -0.2796283E-02
   maximum displ.:     0.1326085 α      in ANC's #15, #12, #19, ...

........................................................................
.............................. CYCLE   19 ..............................
........................................................................
------------------------------------------------------------
  cycle        total energy    energy error   density error
------------------------------------------------------------
      1     -104.5841841620  -1.0620437E+02   2.0092113E-03
      2     -104.5841920223  -7.8603455E-06   1.1897316E-03
      3     -104.5841759861   1.6036161E-05   3.2520097E-04
      4     -104.5841947211  -1.8734942E-05   8.5756203E-05
      5     -104.5841952567  -5.3566178E-07   4.2335389E-05
      6     -104.5841954166  -1.5988473E-07   1.8492055E-05
------------------------------------------------------------

 total:                                   0.306 sec
 * total energy  :  -104.5841954 Eh     change       -0.1410371E-02 Eh
   gradient norm :     0.0157322 Eh/α   predicted    -0.1505659E-02 (   6.76%)
   displ. norm   :     0.3231027 α      lambda       -0.1952018E-02
   maximum displ.:     0.1268812 α      in ANC's #15, #12, #7, ...

........................................................................
.............................. CYCLE   20 ..............................
........................................................................
------------------------------------------------------------
  cycle        total energy    energy error   density error
------------------------------------------------------------
      1     -104.5843096241  -1.0620193E+02   2.4762636E-03
      2     -104.5843177894  -8.1652648E-06   1.4663447E-03
      3     -104.5842207473   9.7042108E-05   6.8823165E-04
      4     -104.5843279716  -1.0722436E-04   1.0790619E-04
      5     -104.5843291014  -1.1297409E-06   4.9024288E-05
      6     -104.5843292642  -1.6286782E-07   2.3469319E-05
      7     -104.5843293340  -6.9762919E-08   1.0039274E-05
------------------------------------------------------------

 total:                                   0.275 sec
 * total energy  :  -104.5843293 Eh     change       -0.1339174E-03 Eh
   gradient norm :     0.0247555 Eh/α   predicted    -0.1077903E-02 ( 704.90%)
   displ. norm   :     0.2127659 α      lambda       -0.1755307E-02
   maximum displ.:     0.0605132 α      in ANC's #15, #59, #17, ...
 * RMSD in coord.:     1.2325078 α      energy gain  -0.1158056E+01 Eh

generating ANC from exact Hessian ...
Using Lindh-Hessian (1995)
 Shifting diagonal of input Hessian by    9.8608971620417433E-003
 Lowest  eigenvalues of input Hessian
    0.000000    0.000000    0.000000    0.000000    0.000000    0.000000
    0.010000    0.010129    0.010209    0.010325    0.010414    0.010523
    0.011096    0.011142    0.011412    0.011527    0.011667    0.012502
 Highest eigenvalues
    1.995755    2.030413    2.044084    2.100564    2.201589    2.208977


........................................................................
.............................. CYCLE   21 ..............................
........................................................................
------------------------------------------------------------
  cycle        total energy    energy error   density error
------------------------------------------------------------
      1     -104.5852040193  -1.0620497E+02   1.8896234E-03
      2     -104.5852078456  -3.8263022E-06   1.1086204E-03
      3     -104.5851265290   8.1316679E-05   6.8102152E-04
      4     -104.5852185690  -9.2040085E-05   1.0798825E-04
      5     -104.5852196620  -1.0929382E-06   5.2275003E-05
      6     -104.5852199676  -3.0560766E-07   1.3643734E-05
------------------------------------------------------------

 total:                                   0.274 sec
 * total energy  :  -104.5852200 Eh     change       -0.8906336E-03 Eh
   gradient norm :     0.0141234 Eh/α   predicted     0.0000000E+00 (-100.00%)
   displ. norm   :     0.1733945 α      lambda       -0.8020430E-03
   maximum displ.:     0.0629619 α      in ANC's #7, #18, #11, ...

........................................................................
.............................. CYCLE   22 ..............................
........................................................................
------------------------------------------------------------
  cycle        total energy    energy error   density error
------------------------------------------------------------
      1     -104.5858198180  -1.0620653E+02   1.0296010E-03
      2     -104.5858221074  -2.2893574E-06   6.0944448E-04
      3     -104.5858175255   4.5818959E-06   1.7824720E-04
      4     -104.5858227556  -5.2300754E-06   4.9620496E-05
      5     -104.5858229854  -2.2987066E-07   2.5184772E-05
      6     -104.5858230440  -5.8608677E-08   1.1059193E-05
------------------------------------------------------------

 total:                                   0.312 sec
 * total energy  :  -104.5858230 Eh     change       -0.6030765E-03 Eh
   gradient norm :     0.0054400 Eh/α   predicted    -0.4130816E-03 ( -31.50%)
   displ. norm   :     0.3369244 α      lambda       -0.7528052E-03
   maximum displ.:     0.1324362 α      in ANC's #7, #11, #6, ...

........................................................................
.............................. CYCLE   23 ..............................
........................................................................
------------------------------------------------------------
  cycle        total energy    energy error   density error
------------------------------------------------------------
      1     -104.5863553585  -1.0620630E+02   1.4034329E-03
      2     -104.5863595664  -4.2079029E-06   8.4394889E-04
      3     -104.5863299758   2.9590608E-05   4.0910185E-04
      4     -104.5863631243  -3.3148493E-05   6.9889454E-05
      5     -104.5863635189  -3.9461158E-07   3.9283500E-05
      6     -104.5863636749  -1.5600619E-07   1.7017503E-05
------------------------------------------------------------

 total:                                   0.287 sec
 * total energy  :  -104.5863637 Eh     change       -0.5406309E-03 Eh
   gradient norm :     0.0060131 Eh/α   predicted    -0.4191592E-03 ( -22.47%)
   displ. norm   :     0.3715765 α      lambda       -0.4997575E-03
   maximum displ.:     0.1527973 α      in ANC's #7, #6, #11, ...

........................................................................
.............................. CYCLE   24 ..............................
........................................................................
------------------------------------------------------------
  cycle        total energy    energy error   density error
------------------------------------------------------------
      1     -104.5867377764  -1.0620479E+02   1.2622662E-03
      2     -104.5867399901  -2.2137025E-06   7.6925027E-04
      3     -104.5867033694   3.6620642E-05   4.5541240E-04
      4     -104.5867442736  -4.0904184E-05   5.7470559E-05
      5     -104.5867445469  -2.7328615E-07   3.3297246E-05
      6     -104.5867446619  -1.1494681E-07   1.3789623E-05
------------------------------------------------------------

 total:                                   0.302 sec
 * total energy  :  -104.5867447 Eh     change       -0.3809869E-03 Eh
   gradient norm :     0.0092027 Eh/α   predicted    -0.2843798E-03 ( -25.36%)
   displ. norm   :     0.4019557 α      lambda       -0.4823990E-03
   maximum displ.:     0.1711384 α      in ANC's #6, #7, #8, ...

........................................................................
.............................. CYCLE   25 ..............................
........................................................................
------------------------------------------------------------
  cycle        total energy    energy error   density error
------------------------------------------------------------
      1     -104.5871180927  -1.0620412E+02   1.2234208E-03
      2     -104.5871194217  -1.3290031E-06   7.4124830E-04
      3     -104.5870875010   3.1920749E-05   4.2436612E-04
      4     -104.5871228830  -3.5382000E-05   5.0541605E-05
      5     -104.5871231402  -2.5722817E-07   2.7953923E-05
      6     -104.5871232104  -7.0236467E-08   1.1556489E-05
------------------------------------------------------------

 total:                                   0.281 sec
 * total energy  :  -104.5871232 Eh     change       -0.3785486E-03 Eh
   gradient norm :     0.0079710 Eh/α   predicted    -0.2801712E-03 ( -25.99%)
   displ. norm   :     0.4184390 α      lambda       -0.4407007E-03
   maximum displ.:     0.1954844 α      in ANC's #6, #7, #1, ...

........................................................................
.............................. CYCLE   26 ..............................
........................................................................
------------------------------------------------------------
  cycle        total energy    energy error   density error
------------------------------------------------------------
      1     -104.5874475852  -1.0620508E+02   1.2513884E-03
      2     -104.5874488037  -1.2184898E-06   7.4850542E-04
      3     -104.5874179284   3.0875214E-05   4.0800002E-04
      4     -104.5874519864  -3.4057949E-05   5.3627496E-05
      5     -104.5874522232  -2.3683472E-07   2.9426083E-05
      6     -104.5874523103  -8.7043773E-08   1.0544617E-05
------------------------------------------------------------

 total:                                   0.213 sec
 * total energy  :  -104.5874523 Eh     change       -0.3290999E-03 Eh
   gradient norm :     0.0042279 Eh/α   predicted    -0.2589330E-03 ( -21.32%)
   displ. norm   :     0.4364383 α      lambda       -0.2839448E-03
   maximum displ.:     0.2167348 α      in ANC's #6, #1, #7, ...

........................................................................
.............................. CYCLE   27 ..............................
........................................................................
------------------------------------------------------------
  cycle        total energy    energy error   density error
------------------------------------------------------------
      1     -104.5876599239  -1.0620551E+02   1.3062036E-03
      2     -104.5876609663  -1.0423875E-06   7.7838673E-04
      3     -104.5876347201   2.6246261E-05   3.6252186E-04
      4     -104.5876633462  -2.8626101E-05   5.2280826E-05
      5     -104.5876635007  -1.5456358E-07   2.8609788E-05
      6     -104.5876635969  -9.6141491E-08   8.9985970E-06
------------------------------------------------------------

 total:                                   0.229 sec
 * total energy  :  -104.5876636 Eh     change       -0.2112866E-03 Eh
   gradient norm :     0.0050432 Eh/α   predicted    -0.1690198E-03 ( -20.00%)
   displ. norm   :     0.3742799 α      lambda       -0.2555440E-03
   maximum displ.:     0.2022989 α      in ANC's #6, #1, #8, ...

........................................................................
.............................. CYCLE   28 ..............................
........................................................................
------------------------------------------------------------
  cycle        total energy    energy error   density error
------------------------------------------------------------
      1     -104.5878265984  -1.0620889E+02   1.0718772E-03
      2     -104.5878277529  -1.1545324E-06   6.2628419E-04
      3     -104.5878176961   1.0056791E-05   2.2725489E-04
      4     -104.5878285682  -1.0872126E-05   5.9336868E-05
      5     -104.5878288788  -3.1052775E-07   2.4033599E-05
      6     -104.5878289365  -5.7758797E-08   7.5119003E-06
------------------------------------------------------------

 total:                                   0.273 sec
 * total energy  :  -104.5878289 Eh     change       -0.1653397E-03 Eh
   gradient norm :     0.0055191 Eh/α   predicted    -0.1456728E-03 ( -11.89%)
   displ. norm   :     0.4365669 α      lambda       -0.2055350E-03
   maximum displ.:     0.2413308 α      in ANC's #6, #1, #8, ...

........................................................................
.............................. CYCLE   29 ..............................
........................................................................
------------------------------------------------------------
  cycle        total energy    energy error   density error
------------------------------------------------------------
      1     -104.5879745738  -1.0620893E+02   1.2654672E-03
      2     -104.5879754748  -9.0103310E-07   7.5200089E-04
      3     -104.5879660713   9.4035416E-06   2.1217184E-04
      4     -104.5879763732  -1.0301962E-05   4.4204230E-05
      5     -104.5879764193  -4.6048157E-08   2.2675627E-05
      6     -104.5879764962  -7.6935564E-08   8.6407830E-06
------------------------------------------------------------

 total:                                   0.247 sec
 * total energy  :  -104.5879765 Eh     change       -0.1475597E-03 Eh
   gradient norm :     0.0048682 Eh/α   predicted    -0.1223537E-03 ( -17.08%)
   displ. norm   :     0.2810155 α      lambda       -0.1550190E-03
   maximum displ.:     0.1661835 α      in ANC's #6, #1, #3, ...

........................................................................
.............................. CYCLE   30 ..............................
........................................................................
------------------------------------------------------------
  cycle        total energy    energy error   density error
------------------------------------------------------------
      1     -104.5881061795  -1.0621024E+02   7.5994012E-04
      2     -104.5881065816  -4.0210151E-07   4.5046900E-04
      3     -104.5881035226   3.0589354E-06   1.2440548E-04
      4     -104.5881068114  -3.2887477E-06   3.1456676E-05
      5     -104.5881068965  -8.5067370E-08   1.2695548E-05
------------------------------------------------------------

 total:                                   0.293 sec
 * total energy  :  -104.5881069 Eh     change       -0.1304002E-03 Eh
   gradient norm :     0.0029767 Eh/α   predicted    -0.8363046E-04 ( -35.87%)
   displ. norm   :     0.3867848 α      lambda       -0.2034335E-03
   maximum displ.:     0.2321435 α      in ANC's #6, #1, #3, ...

........................................................................
.............................. CYCLE   31 ..............................
........................................................................
------------------------------------------------------------
  cycle        total energy    energy error   density error
------------------------------------------------------------
      1     -104.5882674753  -1.0621093E+02   1.0182884E-03
      2     -104.5882685502  -1.0748868E-06   6.0420137E-04
      3     -104.5882625072   6.0429340E-06   1.7187969E-04
      4     -104.5882692479  -6.7406342E-06   3.4066649E-05
      5     -104.5882693201  -7.2245513E-08   2.3117318E-05
      6     -104.5882693737  -5.3583648E-08   8.7977196E-06
------------------------------------------------------------

 total:                                   0.321 sec
 * total energy  :  -104.5882694 Eh     change       -0.1624772E-03 Eh
   gradient norm :     0.0028743 Eh/α   predicted    -0.1169332E-03 ( -28.03%)
   displ. norm   :     0.4384294 α      lambda       -0.1759262E-03
   maximum displ.:     0.2651500 α      in ANC's #6, #1, #3, ...

........................................................................
.............................. CYCLE   32 ..............................
........................................................................
------------------------------------------------------------
  cycle        total energy    energy error   density error
------------------------------------------------------------
      1     -104.5884133994  -1.0620996E+02   1.1225191E-03
      2     -104.5884143056  -9.0616832E-07   6.6528938E-04
      3     -104.5884124966   1.8089656E-06   1.0821357E-04
      4     -104.5884145949  -2.0983290E-06   3.3116265E-05
      5     -104.5884146405  -4.5624589E-08   2.3342483E-05
      6     -104.5884147113  -7.0773240E-08   8.0235588E-06
------------------------------------------------------------

 total:                                   0.366 sec
 * total energy  :  -104.5884147 Eh     change       -0.1453376E-03 Eh
   gradient norm :     0.0038319 Eh/α   predicted    -0.1048718E-03 ( -27.84%)
   displ. norm   :     0.3911459 α      lambda       -0.1561934E-03
   maximum displ.:     0.2303878 α      in ANC's #6, #1, #3, ...

........................................................................
.............................. CYCLE   33 ..............................
........................................................................
------------------------------------------------------------
  cycle        total energy    energy error   density error
------------------------------------------------------------
      1     -104.5885457450  -1.0620914E+02   9.8340155E-04
      2     -104.5885465134  -7.6837267E-07   5.8173651E-04
      3     -104.5885448920   1.6213250E-06   1.0200177E-04
      4     -104.5885467838  -1.8917593E-06   3.2878720E-05
      5     -104.5885468473  -6.3526741E-08   1.4650380E-05
------------------------------------------------------------

 total:                                   0.220 sec
 * total energy  :  -104.5885468 Eh     change       -0.1321360E-03 Eh
   gradient norm :     0.0044419 Eh/α   predicted    -0.9004996E-04 ( -31.85%)
   displ. norm   :     0.4214825 α      lambda       -0.1656591E-03
   maximum displ.:     0.2451569 α      in ANC's #6, #1, #3, ...

........................................................................
.............................. CYCLE   34 ..............................
........................................................................
------------------------------------------------------------
  cycle        total energy    energy error   density error
------------------------------------------------------------
      1     -104.5886837758  -1.0620799E+02   1.0503645E-03
      2     -104.5886847106  -9.3479930E-07   6.2012520E-04
      3     -104.5886797087   5.0019669E-06   1.7955666E-04
      4     -104.5886852351  -5.5263896E-06   4.7066629E-05
      5     -104.5886853351  -1.0002499E-07   2.4757362E-05
      6     -104.5886854390  -1.0391054E-07   7.4555670E-06
------------------------------------------------------------

 total:                                   0.346 sec
 * total energy  :  -104.5886854 Eh     change       -0.1385917E-03 Eh
   gradient norm :     0.0036763 Eh/α   predicted    -0.9754395E-04 ( -29.62%)
   displ. norm   :     0.4502667 α      lambda       -0.1660762E-03
   maximum displ.:     0.2576816 α      in ANC's #1, #6, #3, ...

........................................................................
.............................. CYCLE   35 ..............................
........................................................................
------------------------------------------------------------
  cycle        total energy    energy error   density error
------------------------------------------------------------
      1     -104.5888100008  -1.0620730E+02   1.1676359E-03
      2     -104.5888110687  -1.0679111E-06   6.8907757E-04
      3     -104.5887940751   1.6993570E-05   2.9505454E-04
      4     -104.5888128014  -1.8726261E-05   5.3714056E-05
      5     -104.5888128753  -7.3896146E-08   2.9882732E-05
      6     -104.5888130227  -1.4745052E-07   9.4138954E-06
------------------------------------------------------------

 total:                                   0.262 sec
 * total energy  :  -104.5888130 Eh     change       -0.1275837E-03 Eh
   gradient norm :     0.0034004 Eh/α   predicted    -0.9987482E-04 ( -21.72%)
   displ. norm   :     0.3795729 α      lambda       -0.1083782E-03
   maximum displ.:     0.2258224 α      in ANC's #1, #6, #3, ...

........................................................................
.............................. CYCLE   36 ..............................
........................................................................
------------------------------------------------------------
  cycle        total energy    energy error   density error
------------------------------------------------------------
      1     -104.5888905397  -1.0620716E+02   9.6018099E-04
      2     -104.5888915084  -9.6875189E-07   5.6633596E-04
      3     -104.5888809802   1.0528204E-05   2.3705199E-04
      4     -104.5888924543  -1.1474105E-05   4.9590984E-05
      5     -104.5888926224  -1.6801833E-07   2.3296822E-05
      6     -104.5888926954  -7.3058956E-08   8.7436314E-06
------------------------------------------------------------

 total:                                   0.247 sec
 * total energy  :  -104.5888927 Eh     change       -0.7967269E-04 Eh
   gradient norm :     0.0024146 Eh/α   predicted    -0.6200018E-04 ( -22.18%)
   displ. norm   :     0.2599118 α      lambda       -0.6813769E-04
   maximum displ.:     0.1582599 α      in ANC's #1, #6, #3, ...

........................................................................
.............................. CYCLE   37 ..............................
........................................................................
------------------------------------------------------------
  cycle        total energy    energy error   density error
------------------------------------------------------------
      1     -104.5889395616  -1.0620866E+02   7.2722483E-04
      2     -104.5889399594  -3.9779692E-07   4.2872030E-04
      3     -104.5889326228   7.3366218E-06   1.9020731E-04
      4     -104.5889406359  -8.0131052E-06   3.6148928E-05
      5     -104.5889407021  -6.6219854E-08   1.6479419E-05
------------------------------------------------------------

 total:                                   0.219 sec
 * total energy  :  -104.5889407 Eh     change       -0.4800669E-04 Eh
   gradient norm :     0.0021169 Eh/α   predicted    -0.3637378E-04 ( -24.23%)
   displ. norm   :     0.2376079 α      lambda       -0.4840165E-04
   maximum displ.:     0.1504933 α      in ANC's #1, #6, #3, ...

........................................................................
.............................. CYCLE   38 ..............................
........................................................................
------------------------------------------------------------
  cycle        total energy    energy error   density error
------------------------------------------------------------
      1     -104.5889759328  -1.0620925E+02   6.0441557E-04
      2     -104.5889766266  -6.9386068E-07   3.5950463E-04
      3     -104.5889701493   6.4773040E-06   1.7748393E-04
      4     -104.5889775746  -7.4252519E-06   2.6735523E-05
      5     -104.5889776408  -6.6210632E-08   1.4918231E-05
------------------------------------------------------------

 total:                                   0.247 sec
 * total energy  :  -104.5889776 Eh     change       -0.3693869E-04 Eh
   gradient norm :     0.0015815 Eh/α   predicted    -0.2556757E-04 ( -30.78%)
   displ. norm   :     0.2641905 α      lambda       -0.4055587E-04
   maximum displ.:     0.1701629 α      in ANC's #1, #3, #6, ...

........................................................................
.............................. CYCLE   39 ..............................
........................................................................
------------------------------------------------------------
  cycle        total energy    energy error   density error
------------------------------------------------------------
      1     -104.5890207012  -1.0621085E+02   7.1013726E-04
      2     -104.5890214331  -7.3181046E-07   4.2336484E-04
      3     -104.5890160488   5.3843033E-06   1.8860328E-04
      4     -104.5890220896  -6.0408013E-06   3.5929396E-05
      5     -104.5890222324  -1.4282382E-07   1.5194927E-05
------------------------------------------------------------

 total:                                   0.306 sec
 * total energy  :  -104.5890222 Eh     change       -0.4459159E-04 Eh
   gradient norm :     0.0020570 Eh/α   predicted    -0.2091095E-04 ( -53.11%)
   displ. norm   :     0.1705398 α      lambda       -0.3720929E-04
   maximum displ.:     0.1093420 α      in ANC's #1, #3, #11, ...

........................................................................
.............................. CYCLE   40 ..............................
........................................................................
------------------------------------------------------------
  cycle        total energy    energy error   density error
------------------------------------------------------------
      1     -104.5890538957  -1.0621057E+02   4.6312393E-04
      2     -104.5890540732  -1.7746568E-07   2.7713412E-04
      3     -104.5890488483   5.2249022E-06   1.5994575E-04
      4     -104.5890546364  -5.7881841E-06   2.1577429E-05
      5     -104.5890546907  -5.4281088E-08   1.1426304E-05
------------------------------------------------------------

 total:                                   0.193 sec
 * total energy  :  -104.5890547 Eh     change       -0.3245835E-04 Eh
   gradient norm :     0.0019926 Eh/α   predicted    -0.1915005E-04 ( -41.00%)
   displ. norm   :     0.3947570 α      lambda       -0.6790712E-04
   maximum displ.:     0.2449377 α      in ANC's #1, #11, #3, ...

........................................................................
.............................. CYCLE   41 ..............................
........................................................................
------------------------------------------------------------
  cycle        total energy    energy error   density error
------------------------------------------------------------
      1     -104.5891263049  -1.0621111E+02   1.1027026E-03
      2     -104.5891270284  -7.2350637E-07   6.5871277E-04
      3     -104.5891189848   8.0436148E-06   1.9513018E-04
      4     -104.5891278594  -8.8746835E-06   3.5312858E-05
      5     -104.5891278826  -2.3178359E-08   2.1617719E-05
      6     -104.5891279527  -7.0041750E-08   7.5748701E-06
------------------------------------------------------------

 total:                                   0.432 sec
 * total energy  :  -104.5891280 Eh     change       -0.7326193E-04 Eh
   gradient norm :     0.0028591 Eh/α   predicted    -0.3630775E-04 ( -50.44%)
   displ. norm   :     0.2573570 α      lambda       -0.5644254E-04
   maximum displ.:     0.1585349 α      in ANC's #1, #11, #3, ...

........................................................................
.............................. CYCLE   42 ..............................
........................................................................
------------------------------------------------------------
  cycle        total energy    energy error   density error
------------------------------------------------------------
      1     -104.5891752359  -1.0621015E+02   7.1895593E-04
      2     -104.5891755921  -3.5619178E-07   4.3131064E-04
      3     -104.5891712110   4.3811066E-06   1.4603346E-04
      4     -104.5891759992  -4.7882147E-06   2.7198977E-05
      5     -104.5891760416  -4.2333994E-08   1.4260310E-05
------------------------------------------------------------

 total:                                   0.446 sec
 * total energy  :  -104.5891760 Eh     change       -0.4808892E-04 Eh
   gradient norm :     0.0029789 Eh/α   predicted    -0.3009380E-04 ( -37.42%)
   displ. norm   :     0.4390680 α      lambda       -0.1073168E-03
   maximum displ.:     0.2620547 α      in ANC's #1, #11, #2, ...
 * RMSD in coord.:     0.7249717 α      energy gain  -0.4846708E-02 Eh

generating ANC from exact Hessian ...
Using Lindh-Hessian (1995)
 Shifting diagonal of input Hessian by    9.8518062327686718E-003
 Lowest  eigenvalues of input Hessian
    0.000000    0.000000    0.000000    0.000000    0.000000    0.000000
    0.010000    0.010118    0.010192    0.010314    0.010413    0.010530
    0.010964    0.011145    0.011366    0.011567    0.011610    0.012644
 Highest eigenvalues
    1.994971    2.029371    2.052236    2.110842    2.201963    2.208725


........................................................................
.............................. CYCLE   43 ..............................
........................................................................
------------------------------------------------------------
  cycle        total energy    energy error   density error
------------------------------------------------------------
      1     -104.5892592384  -1.0620945E+02   1.2243674E-03
      2     -104.5892604925  -1.2540585E-06   7.3752411E-04
      3     -104.5892402395   2.0252984E-05   3.2539677E-04
      4     -104.5892626017  -2.2362212E-05   4.4448696E-05
      5     -104.5892627187  -1.1700349E-07   2.8430422E-05
      6     -104.5892627891  -7.0369666E-08   1.1123105E-05
------------------------------------------------------------

 total:                                   0.340 sec
 * total energy  :  -104.5892628 Eh     change       -0.8674749E-04 Eh
   gradient norm :     0.0035035 Eh/α   predicted     0.0000000E+00 (-100.00%)
   displ. norm   :     0.0429456 α      lambda       -0.4660517E-04
   maximum displ.:     0.0181506 α      in ANC's #11, #12, #2, ...

........................................................................
.............................. CYCLE   44 ..............................
........................................................................
------------------------------------------------------------
  cycle        total energy    energy error   density error
------------------------------------------------------------
      1     -104.5893003514  -1.0620995E+02   2.3593203E-04
      2     -104.5893004169  -6.5475419E-08   1.4454636E-04
      3     -104.5892987931   1.6237865E-06   9.5087891E-05
      4     -104.5893006367  -1.8436234E-06   1.1315748E-05
      5     -104.5893006524  -1.5680016E-08   6.4851775E-06
------------------------------------------------------------

 total:                                   0.175 sec
 * total energy  :  -104.5893007 Eh     change       -0.3786334E-04 Eh
   gradient norm :     0.0015939 Eh/α   predicted    -0.2335258E-04 ( -38.32%)
   displ. norm   :     0.1969466 α      lambda       -0.8257997E-04
   maximum displ.:     0.0967489 α      in ANC's #11, #2, #12, ...

........................................................................
.............................. CYCLE   45 ..............................
........................................................................
------------------------------------------------------------
  cycle        total energy    energy error   density error
------------------------------------------------------------
      1     -104.5893663877  -1.0621065E+02   9.3996825E-04
      2     -104.5893671273  -7.3962505E-07   5.6511320E-04
      3     -104.5893558065   1.1320811E-05   2.3690459E-04
      4     -104.5893681809  -1.2374406E-05   3.3657217E-05
      5     -104.5893682561  -7.5149018E-08   1.9635154E-05
------------------------------------------------------------

 total:                                   0.224 sec
 * total energy  :  -104.5893683 Eh     change       -0.6760365E-04 Eh
   gradient norm :     0.0035714 Eh/α   predicted    -0.4200324E-04 ( -37.87%)
   displ. norm   :     0.0935908 α      lambda       -0.3919017E-04
   maximum displ.:     0.0564629 α      in ANC's #11, #2, #6, ...

........................................................................
.............................. CYCLE   46 ..............................
........................................................................
------------------------------------------------------------
  cycle        total energy    energy error   density error
------------------------------------------------------------
      1     -104.5894048349  -1.0621051E+02   3.7853623E-04
      2     -104.5894049415  -1.0669095E-07   2.3331876E-04
      3     -104.5894007037   4.2378244E-06   1.5429967E-04
      4     -104.5894055560  -4.8522563E-06   1.9224805E-05
      5     -104.5894056163  -6.0335594E-08   7.3684234E-06
------------------------------------------------------------

 total:                                   0.201 sec
 * total energy  :  -104.5894056 Eh     change       -0.3736025E-04 Eh
   gradient norm :     0.0030577 Eh/α   predicted    -0.2002666E-04 ( -46.40%)
   displ. norm   :     0.2681680 α      lambda       -0.1184606E-03
   maximum displ.:     0.1561841 α      in ANC's #11, #6, #2, ...

........................................................................
.............................. CYCLE   47 ..............................
........................................................................
------------------------------------------------------------
  cycle        total energy    energy error   density error
------------------------------------------------------------
      1     -104.5894981376  -1.0620961E+02   1.0060405E-03
      2     -104.5894987749  -6.3724534E-07   6.1102372E-04
      3     -104.5894894499   9.3249979E-06   2.0848225E-04
      4     -104.5894997151  -1.0265234E-05   2.9174547E-05
      5     -104.5894997055   9.5922985E-09   1.9138130E-05
------------------------------------------------------------

 total:                                   0.315 sec
 * total energy  :  -104.5894997 Eh     change       -0.9408919E-04 Eh
   gradient norm :     0.0023124 Eh/α   predicted    -0.6350102E-04 ( -32.51%)
   displ. norm   :     0.2756218 α      lambda       -0.8610031E-04
   maximum displ.:     0.1621876 α      in ANC's #11, #6, #2, ...

........................................................................
.............................. CYCLE   48 ..............................
........................................................................
------------------------------------------------------------
  cycle        total energy    energy error   density error
------------------------------------------------------------
      1     -104.5895563920  -1.0620863E+02   9.6090136E-04
      2     -104.5895571022  -7.1027098E-07   5.8633097E-04
      3     -104.5895415491   1.5553148E-05   2.6558690E-04
      4     -104.5895584871  -1.6937988E-05   3.9796515E-05
      5     -104.5895586398  -1.5269457E-07   2.0260531E-05
      6     -104.5895586708  -3.0998478E-08   6.9304040E-06
------------------------------------------------------------

 total:                                   0.422 sec
 * total energy  :  -104.5895587 Eh     change       -0.5896527E-04 Eh
   gradient norm :     0.0051537 Eh/α   predicted    -0.4632480E-04 ( -21.44%)
   displ. norm   :     0.1597900 α      lambda       -0.6080165E-04
   maximum displ.:     0.0950153 α      in ANC's #11, #6, #2, ...

........................................................................
.............................. CYCLE   49 ..............................
........................................................................
------------------------------------------------------------
  cycle        total energy    energy error   density error
------------------------------------------------------------
      1     -104.5896107375  -1.0620884E+02   4.9018028E-04
      2     -104.5896109705  -2.3293433E-07   2.9758738E-04
      3     -104.5896101644   8.0609608E-07   7.3115223E-05
      4     -104.5896110814  -9.1704979E-07   1.7601744E-05
------------------------------------------------------------

 total:                                   0.206 sec
 * total energy  :  -104.5896111 Eh     change       -0.5241064E-04 Eh
   gradient norm :     0.0053674 Eh/α   predicted    -0.3117907E-04 ( -40.51%)
   displ. norm   :     0.3357391 α      lambda       -0.1581015E-03
   maximum displ.:     0.2004006 α      in ANC's #11, #6, #2, ...

........................................................................
.............................. CYCLE   50 ..............................
........................................................................
------------------------------------------------------------
  cycle        total energy    energy error   density error
------------------------------------------------------------
      1     -104.5897275450  -1.0620968E+02   1.0376771E-03
      2     -104.5897284667  -9.2175094E-07   6.3169512E-04
      3     -104.5897129689   1.5497779E-05   3.0456329E-04
      4     -104.5897299855  -1.7016539E-05   4.2545223E-05
      5     -104.5897301998  -2.1429376E-07   2.1482058E-05
      6     -104.5897302329  -3.3104882E-08   8.1664060E-06
------------------------------------------------------------

 total:                                   0.582 sec
 * total energy  :  -104.5897302 Eh     change       -0.1191514E-03 Eh
   gradient norm :     0.0044936 Eh/α   predicted    -0.8796162E-04 ( -26.18%)
   displ. norm   :     0.3777063 α      lambda       -0.1279651E-03
   maximum displ.:     0.2276256 α      in ANC's #11, #6, #2, ...

........................................................................
.............................. CYCLE   51 ..............................
........................................................................
------------------------------------------------------------
  cycle        total energy    energy error   density error
------------------------------------------------------------
      1     -104.5898201461  -1.0620936E+02   1.2407108E-03
      2     -104.5898218096  -1.6634360E-06   7.5349948E-04
      3     -104.5898146888   7.1207974E-06   2.1242681E-04
      4     -104.5898227346  -8.0457936E-06   4.3244967E-05
      5     -104.5898229087  -1.7414345E-07   2.4734329E-05
      6     -104.5898229577  -4.9049888E-08   9.4518768E-06
------------------------------------------------------------

 total:                                   0.293 sec
 * total energy  :  -104.5898230 Eh     change       -0.9272488E-04 Eh
   gradient norm :     0.0052549 Eh/α   predicted    -0.7311465E-04 ( -21.15%)
   displ. norm   :     0.2709376 α      lambda       -0.1482990E-03
   maximum displ.:     0.1515111 α      in ANC's #11, #6, #2, ...

........................................................................
.............................. CYCLE   52 ..............................
........................................................................
------------------------------------------------------------
  cycle        total energy    energy error   density error
------------------------------------------------------------
      1     -104.5898974187  -1.0621153E+02   9.3355265E-04
      2     -104.5898992924  -1.8736940E-06   5.6346855E-04
      3     -104.5898926646   6.6277644E-06   2.2143487E-04
      4     -104.5898999862  -7.3215889E-06   4.9286935E-05
      5     -104.5899002823  -2.9610088E-07   2.4494390E-05
      6     -104.5899003504  -6.8027816E-08   9.1698236E-06
------------------------------------------------------------

 total:                                   0.244 sec
 * total energy  :  -104.5899004 Eh     change       -0.7739261E-04 Eh
   gradient norm :     0.0036233 Eh/α   predicted    -0.7959568E-04 (   2.85%)
   displ. norm   :     0.3675822 α      lambda       -0.1063078E-03
   maximum displ.:     0.2228124 α      in ANC's #11, #6, #2, ...

........................................................................
.............................. CYCLE   53 ..............................
........................................................................
------------------------------------------------------------
  cycle        total energy    energy error   density error
------------------------------------------------------------
      1     -104.5899326612  -1.0620985E+02   1.2784799E-03
      2     -104.5899348775  -2.2163112E-06   7.7762856E-04
      3     -104.5899265555   8.3220571E-06   2.1691783E-04
      4     -104.5899360854  -9.5299081E-06   4.6756450E-05
      5     -104.5899362793  -1.9388719E-07   2.7700851E-05
      6     -104.5899363516  -7.2352663E-08   9.6721503E-06
------------------------------------------------------------

 total:                                   0.263 sec
 * total energy  :  -104.5899364 Eh     change       -0.3600127E-04 Eh
   gradient norm :     0.0049770 Eh/α   predicted    -0.6034729E-04 (  67.63%)
   displ. norm   :     0.1196098 α      lambda       -0.8080239E-04
   maximum displ.:     0.0667645 α      in ANC's #11, #6, #2, ...

........................................................................
.............................. CYCLE   54 ..............................
........................................................................
------------------------------------------------------------
  cycle        total energy    energy error   density error
------------------------------------------------------------
      1     -104.5899870825  -1.0621100E+02   3.9112672E-04
      2     -104.5899873992  -3.1671505E-07   2.3580661E-04
      3     -104.5899856684   1.7308070E-06   1.0849107E-04
      4     -104.5899876794  -2.0109740E-06   1.8526535E-05
      5     -104.5899877058  -2.6420508E-08   1.0992474E-05
------------------------------------------------------------

 total:                                   0.196 sec
 * total energy  :  -104.5899877 Eh     change       -0.5135417E-04 Eh
   gradient norm :     0.0014063 Eh/α   predicted    -0.4098726E-04 ( -20.19%)
   displ. norm   :     0.1524376 α      lambda       -0.4286742E-04
   maximum displ.:     0.0622575 α      in ANC's #11, #3, #28, ...

........................................................................
.............................. CYCLE   55 ..............................
........................................................................
------------------------------------------------------------
  cycle        total energy    energy error   density error
------------------------------------------------------------
      1     -104.5900216920  -1.0621152E+02   5.6770512E-04
      2     -104.5900221117  -4.1970766E-07   3.4405206E-04
      3     -104.5900144749   7.6368490E-06   2.0142183E-04
      4     -104.5900229064  -8.4315159E-06   2.7184838E-05
      5     -104.5900229630  -5.6632985E-08   1.3971902E-05
------------------------------------------------------------

 total:                                   0.273 sec
 * total energy  :  -104.5900230 Eh     change       -0.3525724E-04 Eh
   gradient norm :     0.0019959 Eh/α   predicted    -0.2168242E-04 ( -38.50%)
   displ. norm   :     0.1084522 α      lambda       -0.1755527E-04
   maximum displ.:     0.0584035 α      in ANC's #11, #3, #7, ...

........................................................................
.............................. CYCLE   56 ..............................
........................................................................
------------------------------------------------------------
  cycle        total energy    energy error   density error
------------------------------------------------------------
      1     -104.5900429813  -1.0621115E+02   3.4036551E-04
      2     -104.5900431881  -2.0673706E-07   2.0402286E-04
      3     -104.5900417860   1.4020968E-06   9.2874701E-05
      4     -104.5900433366  -1.5505927E-06   2.0582763E-05
      5     -104.5900433831  -4.6553012E-08   9.3654162E-06
------------------------------------------------------------

 total:                                   0.260 sec
 * total energy  :  -104.5900434 Eh     change       -0.2042009E-04 Eh
   gradient norm :     0.0014336 Eh/α   predicted    -0.8827416E-05 ( -56.77%)
   displ. norm   :     0.1360386 α      lambda       -0.2271014E-04
   maximum displ.:     0.0614749 α      in ANC's #7, #3, #28, ...

........................................................................
.............................. CYCLE   57 ..............................
........................................................................
------------------------------------------------------------
  cycle        total energy    energy error   density error
------------------------------------------------------------
      1     -104.5900642680  -1.0621043E+02   4.4370526E-04
      2     -104.5900645695  -3.0152320E-07   2.6383759E-04
      3     -104.5900618634   2.7061614E-06   1.3157806E-04
      4     -104.5900648764  -3.0130635E-06   2.2846791E-05
      5     -104.5900649014  -2.4993568E-08   1.5323581E-05
------------------------------------------------------------

 total:                                   0.177 sec
 * total energy  :  -104.5900649 Eh     change       -0.2151831E-04 Eh
   gradient norm :     0.0009206 Eh/α   predicted    -0.1145204E-04 ( -46.78%)
   displ. norm   :     0.0729054 α      lambda       -0.7997791E-05
   maximum displ.:     0.0349119 α      in ANC's #7, #3, #18, ...

........................................................................
.............................. CYCLE   58 ..............................
........................................................................
------------------------------------------------------------
  cycle        total energy    energy error   density error
------------------------------------------------------------
      1     -104.5900732054  -1.0621038E+02   2.4310684E-04
      2     -104.5900731702   3.5233029E-08   1.5181200E-04
      3     -104.5900716038   1.5663730E-06   1.2000059E-04
      4     -104.5900738740  -2.2701487E-06   1.7234403E-05
      5     -104.5900739225  -4.8485589E-08   5.0939703E-06
------------------------------------------------------------

 total:                                   0.210 sec
 * total energy  :  -104.5900739 Eh     change       -0.9021036E-05 Eh
   gradient norm :     0.0008555 Eh/α   predicted    -0.4008541E-05 ( -55.56%)
   displ. norm   :     0.0907264 α      lambda       -0.8900443E-05
   maximum displ.:     0.0426527 α      in ANC's #7, #3, #6, ...

........................................................................
.............................. CYCLE   59 ..............................
........................................................................
------------------------------------------------------------
  cycle        total energy    energy error   density error
------------------------------------------------------------
      1     -104.5900827044  -1.0621059E+02   2.4212609E-04
      2     -104.5900827406  -3.6200390E-08   1.4433200E-04
      3     -104.5900820981   6.4248518E-07   4.9861532E-05
      4     -104.5900828084  -7.1026197E-07   7.0345657E-06
[...]
    28   6 C       66   1 H                                       1.0881052
    28   6 C       67   1 H                                       1.0856360
    27   6 C       68   1 H                                       1.0878724
    27   6 C       69   1 H                                       1.0876659
    27   6 C       70   1 H                                       1.0881935
    43   6 C       71   1 H                                       1.0890602
    43   6 C       72   1 H                                       1.0939175
    43   6 C       73   1 H                                       1.0966422
    42   6 C       74   1 H                                       1.0890073
    42   6 C       75   1 H                                       1.0959325
    42   6 C       76   1 H                                       1.0940559
    77   6 C       78   6 C                                       1.3791757
    78   6 C       79   6 C                                       1.4123544
    79   6 C       80   6 C                                       1.4310834
    80   6 C       81   6 C                                       1.4126143
    77   6 C       82   6 C                                       1.4081131
    81   6 C       82   6 C                                       1.3711833
    79   6 C       83   6 C                                       1.4278908
    83   6 C       84   6 C                                       1.4014819
    84   6 C       85   6 C                                       1.4210879
    80   6 C       86   7 N                                       1.3366009
    85   6 C       86   7 N                                       1.3346641
    83   6 C       87   6 C                                       1.4281165
    87   6 C       88   6 C                                       1.4292048
    88   6 C       89   7 N                                       1.3380712
    84   6 C       90   6 C                                       1.4218355
    89   7 N       90   6 C                                       1.3321220
    90   6 C       91   6 C                                       1.4123509
    91   6 C       92   6 C                                       1.3863745
    85   6 C       93   6 C                                       1.4080301
    92   6 C       93   6 C                                       1.3916544
    87   6 C       94   6 C                                       1.4148983
    94   6 C       95   6 C                                       1.3810793
    95   6 C       96   6 C                                       1.4050067
    88   6 C       97   6 C                                       1.4101025
    96   6 C       97   6 C                                       1.3736027
    94   6 C       98   8 O                                       1.3584122
    78   6 C       99   8 O                                       1.3740813
   101   6 C      103   6 C                                       1.5314375
   101   6 C      104   6 C                                       1.5351847
   101   6 C      105   6 C                                       1.5349098
   102   6 C      106   6 C                                       1.5350159
   102   6 C      107   6 C                                       1.5348642
   102   6 C      108   6 C                                       1.5305991
   100   6 C      109   6 C                                       1.5367642 (max)
   100   6 C      110   6 C                                       1.5307337
   100   6 C      111   6 C                                       1.5306388
    81   6 C      112   1 H                                       1.0762057
    77   6 C      113   1 H                                       1.0794909
    93   6 C      114   1 H                                       1.0775125
    91   6 C      115   1 H                                       1.0762494
    97   6 C      116   1 H                                       1.0773525
    95   6 C      117   1 H                                       1.0754971 (min)
    98   8 O      118   6 C                                       1.4033479
    99   8 O      119   6 C                                       1.4163934
Note: The following floating-point exceptions are signalling: IEEE_UNDERFLOW_FLAG
normal termination of xtb
   111   6 C      120   1 H                                       1.0872503
   111   6 C      121   1 H                                       1.0882379
   111   6 C      122   1 H                                       1.0873146
   110   6 C      123   1 H                                       1.0854781
   110   6 C      124   1 H                                       1.0864059
   110   6 C      125   1 H                                       1.0880477
   109   6 C      126   1 H                                       1.0868628
   109   6 C      127   1 H                                       1.0881151
   109   6 C      128   1 H                                       1.0881834
   106   6 C      129   1 H                                       1.0863446
   106   6 C      130   1 H                                       1.0883054
   106   6 C      131   1 H                                       1.0879952
   108   6 C      132   1 H                                       1.0873750
   108   6 C      133   1 H                                       1.0873117
   108   6 C      134   1 H                                       1.0882471
   107   6 C      135   1 H                                       1.0862345
   107   6 C      136   1 H                                       1.0880001
   107   6 C      137   1 H                                       1.0880093
   105   6 C      138   1 H                                       1.0881321
   105   6 C      139   1 H                                       1.0860976
   105   6 C      140   1 H                                       1.0880259
   104   6 C      141   1 H                                       1.0880538
   104   6 C      142   1 H                                       1.0880433
   104   6 C      143   1 H                                       1.0857507
   103   6 C      144   1 H                                       1.0878127
   103   6 C      145   1 H                                       1.0877248
   103   6 C      146   1 H                                       1.0882043
   119   6 C      147   1 H                                       1.0897954
   119   6 C      148   1 H                                       1.0925012
   119   6 C      149   1 H                                       1.0956018
   118   6 C      150   1 H                                       1.0890745
   118   6 C      151   1 H                                       1.0957275
   118   6 C      152   1 H                                       1.0941697

 * 4 distinct bonds (by element types)

   Z      Z             #   av. dist./Å        max./Å        min./Å
   1 H    6 C          78     1.0867122     1.0966422     1.0754971
   6 C    6 C          60     1.4441404     1.5367642     1.3706513
   6 C    7 N           8     1.3355018     1.3398668     1.3321220
   6 C    8 O           8     1.3883745     1.4163934     1.3581614


optimized geometry written to: xtbopt.mol


           -------------------------------------------------
          | TOTAL ENERGY             -209.202505372457 Eh   |
          | GRADIENT NORM               0.000190895329 Eh/α |
           -------------------------------------------------

------------------------------------------------------------------------
 * finished run on 2025/03/04 at 11:22:57.718     
------------------------------------------------------------------------
 total:
 * wall-time:     0 d,  0 h,  3 min, 14.922 sec
 *  cpu-time:     0 d,  0 h, 11 min, 37.097 sec
 * ratio c/w:     3.576 speedup
 SCF:
 * wall-time:     0 d,  0 h,  0 min, 12.525 sec
 *  cpu-time:     0 d,  0 h,  0 min, 50.005 sec
 * ratio c/w:     3.992 speedup
 ANC optimizer:
 * wall-time:     0 d,  0 h,  3 min,  2.061 sec
 *  cpu-time:     0 d,  0 h, 10 min, 47.087 sec
 * ratio c/w:     3.554 speedup

      -----------------------------------------------------------      
     |                   =====================                   |     
     |                           x T B                           |     
     |                   =====================                   |     
     |                         S. Grimme                         |     
     |          Mulliken Center for Theoretical Chemistry        |     
     |                    University of Bonn                     |     
      -----------------------------------------------------------      

   * xtb version 6.7.1 (edcfbbe) compiled by 'runner@Mac-1732539442253.local' on 2024-11-25

   xtb is free software: you can redistribute it and/or modify it under
   the terms of the GNU Lesser General Public License as published by
   the Free Software Foundation, either version 3 of the License, or
   (at your option) any later version.
   
   xtb is distributed in the hope that it will be useful,
   but WITHOUT ANY WARRANTY; without even the implied warranty of
   MERCHANTABILITY or FITNESS FOR A PARTICULAR PURPOSE.  See the
   GNU Lesser General Public License for more details.
   
   Cite this work as:
   * C. Bannwarth, E. Caldeweyher, S. Ehlert, A. Hansen, P. Pracht,
     J. Seibert, S. Spicher, S. Grimme, WIREs Comput. Mol. Sci., 2020, 11,
     e01493. DOI: 10.1002/wcms.1493
   
   for GFN2-xTB:
   * C. Bannwarth, S. Ehlert and S. Grimme., J. Chem. Theory Comput., 2019,
     15, 1652-1671. DOI: 10.1021/acs.jctc.8b01176
   for GFN1-xTB:
   * S. Grimme, C. Bannwarth, P. Shushkov, J. Chem. Theory Comput., 2017,
     13, 1989-2009. DOI: 10.1021/acs.jctc.7b00118
   for GFN0-xTB:
   * P. Pracht, E. Caldeweyher, S. Ehlert, S. Grimme, ChemRxiv, 2019, preprint.
     DOI: 10.26434/chemrxiv.8326202.v1
   for GFN-FF:
   * S. Spicher and S. Grimme, Angew. Chem. Int. Ed., 2020, 59, 15665-15673.
     DOI: 10.1002/anie.202004239
   
   for ALPB and GBSA implicit solvation:
   * S. Ehlert, M. Stahn, S. Spicher, S. Grimme, J. Chem. Theory Comput.,
     2021, 17, 4250-4261. DOI: 10.1021/acs.jctc.1c00471
   
   for ddCOSMO and CPCM-X implicit solvation:
   * M. Stahn, S. Ehlert, S. Grimme, J. Phys. Chem. A,
     2023, XX, XXXX-XXXX. DOI: 10.1021/acs.jpca.3c04382
   
   for DFT-D4:
   * E. Caldeweyher, C. Bannwarth and S. Grimme, J. Chem. Phys., 2017,
     147, 034112. DOI: 10.1063/1.4993215
   * E. Caldeweyher, S. Ehlert, A. Hansen, H. Neugebauer, S. Spicher,
     C. Bannwarth and S. Grimme, J. Chem. Phys., 2019, 150, 154122.
     DOI: 10.1063/1.5090222
   * E. Caldeweyher, J.-M. Mewes, S. Ehlert and S. Grimme, Phys. Chem. Chem. Phys.
     2020, 22, 8499-8512. DOI: 10.1039/D0CP00502A
   
   for sTDA-xTB:
   * S. Grimme and C. Bannwarth, J. Chem. Phys., 2016, 145, 054103.
     DOI: 10.1063/1.4959605
   
   in the mass-spec context:
   * V. Asgeirsson, C. Bauer and S. Grimme, Chem. Sci., 2017, 8, 4879.
     DOI: 10.1039/c7sc00601b
   * J. Koopman and S. Grimme, ACS Omega 2019, 4, 12, 15120-15133.
     DOI: 10.1021/acsomega.9b02011
   
   for metadynamics refer to:
   * S. Grimme, J. Chem. Theory Comput., 2019, 155, 2847-2862
     DOI: 10.1021/acs.jctc.9b00143
   
   for SPH calculations refer to:
   * S. Spicher and S. Grimme, J. Chem. Theory Comput., 2021, 17, 1701-1714
     DOI: 10.1021/acs.jctc.0c01306
   
   for ONIOM refer to:
   * C. Plett, A. Katbashev, S. Ehlert, S. Grimme, M. Bursch,
     Phys. Chem. Chem. Phys., 2023, 25, 17860-17868. DOI: 10.1039/D3CP02178E
   
   for DIPRO refer to:
   * J. Kohn, N. Gildemeister, S. Grimme, D. Fazzi, A. Hansen,
     J. Chem. Phys., 2023, just accepted.
   
   for PTB refer to:
   * S. Grimme, M. Mueller, A. Hansen, J. Chem. Phys., 2023, 158, 124111.
     DOI: 10.1063/5.0137838
   
   with help from (in alphabetical order)
   P. Atkinson, C. Bannwarth, F. Bohle, G. Brandenburg, E. Caldeweyher
   M. Checinski, S. Dohm, S. Ehlert, S. Ehrlich, I. Gerasimov, C. Hölzer
   A. Katbashev, J. Kohn, J. Koopman, C. Lavigne, S. Lehtola, F. März, M. Müller,
   F. Musil, H. Neugebauer, J. Pisarek, C. Plett, P. Pracht, F. Pultar,
   J. Seibert, P. Shushkov, S. Spicher, M. Stahn, M. Steiner, T. Strunk,
   J. Stückrath, T. Rose, and J. Unsleber
   
 * started run on 2025/03/04 at 11:22:57.765     
   ID    Z sym.   atoms
    1    6 C      1-9, 11, 12, 14-21, 24-35, 42, 43, 77-85, 87, 88, 90-97,
                  100-111, 118, 119
    2    7 N      10, 13, 86, 89
    3    8 O      22, 23, 98, 99
    4    1 H      36-41, 44-76, 112-117, 120-152

           -------------------------------------------------
          |                Calculation Setup                |
           -------------------------------------------------

          program call               : xtb opt_dimer.mol --dipro 0.3 --chrg 0 --uhf 2 --spinpol --tblite
          coordinate file            : opt_dimer.mol
          omp threads                :                     8


molecular fragmentation (1/2 indicates fragments):
111111111111111111111111111111111111111111111111111111111111111111111111
111122222222222222222222222222222222222222222222222222222222222222222222
22222222
# atoms in fragment 1/2:    76    76
 fragment masses (1/2) :      495.68      495.68
CMA distance (Bohr)    :  13.996
constraining FC (au)   :  0.0500
Wavefunction read from restart file
           -------------------------------------------------
          |                    D I P R O                    |
           -------------------------------------------------
Calculation for dimer 
--------------------- 
  
charge of dimer :   0.
unpaired e- of dimer :  2
repulsion energy          3.2404072446844E+00 Eh
dispersion energy         9.8826447123807E-03 Eh
number of electrons       3.8600000000000E+02 e
integral cutoff           1.7347787504999E+01 bohr

------------------------------------------------------------
  cycle        total energy    energy error   density error
------------------------------------------------------------
      1     -208.7482939618  -2.1199858E+02   1.2432050E-01
      2     -209.1105272373  -3.6223328E-01   6.1334191E-02
      3     -209.0729157886   3.7611449E-02   3.6264505E-02
      4     -209.1604186515  -8.7502863E-02   1.5764329E-02
      5     -209.1962691014  -3.5850450E-02   5.0003300E-03
      6     -209.1972059285  -9.3682707E-04   2.5988964E-03
      7     -209.1981683295  -9.6240101E-04   1.3201778E-03
      8     -209.1983950577  -2.2672822E-04   5.8230723E-04
      9     -209.1984364405  -4.1382723E-05   2.1013700E-04
     10     -209.1984413296  -4.8891588E-06   8.6468122E-05
     11     -209.1984421959  -8.6627560E-07   3.7405544E-05
     12     -209.1984422905  -9.4554679E-08   1.9165305E-05
------------------------------------------------------------

electronic energy        -2.1244873217985E+02 Eh
total energy             -2.0919844229046E+02 Eh

 total:                                   1.054 sec
 - repulsion                              0.000 sec (  0%)
 - dispersion                             0.007 sec (  0%)
 - coulomb                                0.002 sec (  0%)
 - hamiltonian                            0.007 sec (  0%)
 - scc                                    1.038 sec ( 98%)

Found 2 fragments!
Fragment 1:  1-76
Fragment 2:  77-152

[Info] Fragment spin read from .UHFfrag
Calculation for fragment 1
 ------------------------------
   
charge of fragment :   0.
unpaired e- of fragment :  1
------------------------------------------------------------
  cycle        total energy    energy error   density error
------------------------------------------------------------
      1     -104.3594219430  -1.0598091E+02   1.2384155E-01
      2     -104.5418419798  -1.8242004E-01   6.0685209E-02
      3     -104.5229127062   1.8929274E-02   3.6500891E-02
      4     -104.5686581888  -4.5745483E-02   1.5810114E-02
      5     -104.5867218041  -1.8063615E-02   4.9594820E-03
      6     -104.5871557915  -4.3398736E-04   2.4495410E-03
      7     -104.5874978417  -3.4205028E-04   1.2454055E-03
      8     -104.5875826076  -8.4765831E-05   5.8083745E-04
      9     -104.5876045860  -2.1978392E-05   2.0419743E-04
     10     -104.5876069043  -2.3183771E-06   8.3846018E-05
     11     -104.5876073537  -4.4934526E-07   3.5239097E-05
     12     -104.5876073955  -4.1834980E-08   1.7120775E-05
------------------------------------------------------------

 total:                                   0.242 sec
Calculation for fragment 2
 ------------------------------
   
charge of fragment :   0.
unpaired e- of fragment :  1
------------------------------------------------------------
  cycle        total energy    energy error   density error
------------------------------------------------------------
      1     -104.3583634401  -1.0597882E+02   1.2510626E-01
      2     -104.5396837898  -1.8132035E-01   6.2427030E-02
      3     -104.5184232784   2.1260511E-02   3.6978191E-02
      4     -104.5671201140  -4.8696836E-02   1.6306823E-02
      5     -104.5860149518  -1.8894838E-02   4.8839588E-03
      6     -104.5864613130  -4.4636117E-04   2.2969399E-03
      7     -104.5867164824  -2.5516942E-04   1.2114695E-03
      8     -104.5867898497  -7.3367281E-05   5.8771848E-04
      9     -104.5868132184  -2.3368662E-05   2.1037585E-04
     10     -104.5868158439  -2.6255773E-06   8.7032879E-05
     11     -104.5868163457  -5.0180633E-07   3.5377217E-05
     12     -104.5868163856  -3.9875516E-08   1.7399077E-05
------------------------------------------------------------

 total:                                   0.337 sec
   
   ::::::::::::::::::::::::::::::::::::::::::::::
   ::     D I P R O      C O U P L I N G S     ::
   ::::::::::::::::::::::::::::::::::::::::::::::
   
energy threshhold for near-degenerate orbitals near HOMO and LUMO considered for DIPRO:  0.300 eV
no. of orbitals within energy window of frag 1         2
no. of orbitals within energy window of frag 2         2
   
  Fragment 1 SOMO   Fragment 2 SOMO 
--------------------------------------
E_mon(orb) frag1 frag2              -9.514    -9.399 eV
J(AB):               -0.006 eV
S(AB):             0.00031056 Eh
|J(AB,eff)|:            0.003 eV
   
  Fragment 1 SOMO   Fragment 2 LUMO 
--------------------------------------
E_mon(orb) frag1 frag2              -9.514    -8.997 eV
J(AB):                0.009 eV
S(AB):            -0.00049757 Eh
|J(AB,eff)|:            0.005 eV
   
  Fragment 1 LUMO   Fragment 2 SOMO 
--------------------------------------
E_mon(orb) frag1 frag2              -9.094    -9.399 eV
J(AB):                0.004 eV
S(AB):            -0.00015909 Eh
|J(AB,eff)|:            0.002 eV
   
  Fragment 1 LUMO   Fragment 2 LUMO 
--------------------------------------
E_mon(orb) frag1 frag2              -9.094    -8.997 eV
J(AB):               -0.014 eV
S(AB):             0.00055514 Eh
|J(AB,eff)|:            0.009 eV
   
..............................................................................
:  total |J(AB,eff)| for hole transport (occ. MOs) :               0.003 eV  :
:  total |J(AB,eff)| for charge transport (unocc. MOs) :           0.009 eV  :
:  total |J(AB,eff)| for charge transfer (CT) :                    0.005 eV  :
..............................................................................
  
 Please remember, DIPRO is not available for restart!
   
normal termination of dipro
----------------------------------------------------------
 * finished run on 2025/03/04 at 11:22:59.419     
----------------------------------------------------------
 dipro:
 * wall-time:     0 d,  0 h,  0 min,  1.644 sec
 *  cpu-time:     0 d,  0 h,  0 min,  5.549 sec
 * ratio c/w:     3.374 speedup
Reorganization energy (electron): 0.0807353643823222 eV
Reorganization energy (hole): 0.19922960599639994 eV
Electron Transfer integral J: 0.009 eV
Hole Transfer integral J: 0.003 eV
