152
 energy: -209.177885933951 gnorm: 0.098785009087 xtb: 6.7.1 (edcfbbe)
C           -2.86860000000000        1.99800000000000       -2.30080000000000
C           -2.78200000000000        0.88590000000000       -1.46760000000000
C           -1.73700000000000        0.85190000000000       -0.48730000000000
C           -0.65590000000000        1.76650000000000       -0.61590000000000
C           -0.78780000000000        2.83790000000000       -1.51800000000000
C           -1.89870000000000        2.99580000000000       -2.31850000000000
C           -1.69040000000000       -0.07790000000000        0.59810000000000
C           -0.44090000000000       -0.28350000000000        1.19380000000000
C            0.62030000000000        0.62350000000000        0.93940000000000
N            0.49080000000000        1.67280000000000        0.10040000000000
C           -2.78980000000000       -0.78790000000000        1.18310000000000
C           -2.49010000000000       -1.96130000000000        1.92390000000000
N           -1.22910000000000       -2.29720000000000        2.29570000000000
C           -0.25700000000000       -1.38450000000000        2.07120000000000
C            0.98160000000000       -1.51580000000000        2.71350000000000
C            2.00210000000000       -0.59250000000000        2.54730000000000
C            1.81920000000000        0.44220000000000        1.64220000000000
C           -4.13430000000000       -0.29640000000000        1.17900000000000
C           -5.14030000000000       -1.11620000000000        1.68410000000000
C           -4.87220000000000       -2.35120000000000        2.27070000000000
C           -3.55910000000000       -2.74700000000000        2.38970000000000
O           -4.36060000000000        1.01800000000000        0.77660000000000
O           -3.69400000000000       -0.16640000000000       -1.68330000000000
C           -2.07110000000000        4.19800000000000       -3.25730000000000
C           -5.97190000000000       -3.20820000000000        2.91400000000000
C            3.32180000000000       -0.71610000000000        3.32210000000000
C           -7.37880000000000       -2.67340000000000        2.58560000000000
C           -5.87300000000000       -4.65460000000000        2.39440000000000
C           -5.78070000000000       -3.18880000000000        4.44210000000000
C            4.37140000000000       -1.38760000000000        2.42320000000000
C            3.81850000000000        0.68200000000000        3.73960000000000
C            3.13800000000000       -1.55610000000000        4.60300000000000
C           -3.41620000000000        4.88550000000000       -2.95710000000000
C           -2.04980000000000        3.70950000000000       -4.71630000000000
C           -0.94660000000000        5.23420000000000       -3.06870000000000
H            0.01540000000000        3.54920000000000       -1.55230000000000
H           -3.69530000000000        2.04180000000000       -2.98460000000000
H            2.60920000000000        1.14520000000000        1.45850000000000
H            1.10860000000000       -2.35400000000000        3.37140000000000
H           -3.32160000000000       -3.65790000000000        2.90640000000000
H           -6.15040000000000       -0.75910000000000        1.66420000000000
C           -5.70450000000000        1.33260000000000        0.49880000000000
C           -3.08480000000000       -1.42760000000000       -1.87800000000000
H           -0.91330000000000        5.59190000000000       -2.04000000000000
H           -1.10440000000000        6.09750000000000       -3.71460000000000
H            0.02520000000000        4.81060000000000       -3.32000000000000
H           -2.86040000000000        3.00830000000000       -4.90990000000000
H           -1.11060000000000        3.20390000000000       -4.93870000000000
H           -2.15700000000000        4.54390000000000       -5.40870000000000
H           -4.25410000000000        4.21200000000000       -3.13090000000000
H           -3.55670000000000        5.76110000000000       -3.59020000000000
H           -3.45810000000000        5.20960000000000       -1.91760000000000
H            4.53950000000000       -0.80300000000000        1.51940000000000
H            4.04210000000000       -2.38160000000000        2.12190000000000
H            5.32370000000000       -1.48880000000000        2.94310000000000
H            2.92010000000000       -2.59740000000000        4.37040000000000
H            2.32350000000000       -1.16270000000000        5.20940000000000
H            4.04220000000000       -1.54320000000000        5.21040000000000
H            4.10800000000000        1.28120000000000        2.87820000000000
H            4.69050000000000        0.60520000000000        4.38680000000000
H            3.03950000000000        1.21920000000000        4.27910000000000
H           -5.83410000000000       -2.16900000000000        4.82140000000000
H           -4.80990000000000       -3.59460000000000        4.72370000000000
H           -6.54920000000000       -3.77800000000000        4.94150000000000
H           -5.96530000000000       -4.68000000000000        1.30910000000000
H           -6.66470000000000       -5.27390000000000        2.81500000000000
H           -4.92100000000000       -5.11110000000000        2.66090000000000
H           -7.53680000000000       -2.62580000000000        1.50860000000000
H           -7.53010000000000       -1.67850000000000        3.00310000000000
H           -8.14640000000000       -3.32290000000000        3.00560000000000
H           -3.86070000000000       -2.16440000000000       -2.08660000000000
H           -2.53500000000000       -1.73150000000000       -0.98920000000000
H           -2.40150000000000       -1.37140000000000       -2.72580000000000
H           -5.74140000000000        2.32220000000000        0.04220000000000
H           -6.28820000000000        1.34650000000000        1.41960000000000
H           -6.11040000000000        0.60440000000000       -0.20470000000000
C           -2.48770000000000        1.15400000000000        4.21070000000000
C           -1.94450000000000        0.19590000000000        5.06270000000000
C           -0.79300000000000        0.56160000000000        5.84030000000000
C           -0.03400000000000        1.69250000000000        5.42710000000000
C           -0.63150000000000        2.60270000000000        4.53580000000000
C           -1.88530000000000        2.39320000000000        3.99920000000000
C           -0.30470000000000       -0.17640000000000        6.96630000000000
C            1.05090000000000       -0.02270000000000        7.27600000000000
C            1.79100000000000        1.03990000000000        6.69260000000000
N            1.23400000000000        1.93070000000000        5.84360000000000
C           -1.05160000000000       -1.06180000000000        7.80510000000000
C           -0.32860000000000       -2.01940000000000        8.56450000000000
N            1.01630000000000       -1.97480000000000        8.72420000000000
C            1.67530000000000       -0.93320000000000        8.17030000000000
C            3.03770000000000       -0.75350000000000        8.44850000000000
C            3.77410000000000        0.29190000000000        7.91140000000000
C            3.13910000000000        1.17700000000000        7.05430000000000
C           -2.47530000000000       -0.99370000000000        7.94700000000000
C           -3.12420000000000       -2.04780000000000        8.58370000000000
C           -2.42860000000000       -3.10140000000000        9.17370000000000
C           -1.05150000000000       -3.04640000000000        9.19670000000000
O           -3.13320000000000        0.14860000000000        7.49960000000000
O           -2.53990000000000       -1.07500000000000        5.05480000000000
C           -2.57360000000000        3.46660000000000        3.14170000000000
C           -3.15010000000000       -4.29320000000000        9.82010000000000
C            5.25280000000000        0.51310000000000        8.26600000000000
C           -4.67840000000000       -4.20010000000000        9.64500000000000
C           -2.66810000000000       -5.59570000000000        9.15450000000000
C           -2.83060000000000       -4.32810000000000       11.32490000000000
C            6.09540000000000        0.55550000000000        6.97800000000000
C            5.39420000000000        1.84780000000000        9.01900000000000
C            5.79950000000000       -0.61520000000000        9.16150000000000
C           -4.10280000000000        3.40140000000000        3.32670000000000
C           -2.23430000000000        3.23160000000000        1.66640000000000
C           -2.10690000000000        4.87850000000000        3.55040000000000
H           -0.07650000000000        3.48850000000000        4.29180000000000
H           -3.36740000000000        0.88060000000000        3.65960000000000
H            3.68400000000000        2.00610000000000        6.64320000000000
H            3.49630000000000       -1.45670000000000        9.11690000000000
H           -0.49180000000000       -3.80600000000000        9.71010000000000
H           -4.19420000000000       -2.03140000000000        8.64070000000000
C           -4.53250000000000        0.03360000000000        7.40270000000000
C           -1.64000000000000       -2.16100000000000        5.19120000000000
H           -2.24570000000000        5.03760000000000        4.61940000000000
H           -2.67500000000000        5.64290000000000        3.02080000000000
H           -1.05570000000000        5.03600000000000        3.31360000000000
H           -2.62270000000000        2.26950000000000        1.33900000000000
H           -1.15580000000000        3.23280000000000        1.51250000000000
H           -2.67130000000000        4.00210000000000        1.03210000000000
H           -4.50990000000000        2.46740000000000        2.94360000000000
H           -4.59360000000000        4.21290000000000        2.79020000000000
H           -4.36850000000000        3.48320000000000        4.38020000000000
H            5.80230000000000        1.38710000000000        6.33930000000000
H            5.97890000000000       -0.36700000000000        6.41010000000000
H            7.15340000000000        0.67550000000000        7.20950000000000
H            5.71170000000000       -1.58310000000000        8.66870000000000
H            5.26500000000000       -0.65860000000000       10.10990000000000
H            6.85340000000000       -0.45350000000000        9.38660000000000
H            5.06030000000000        2.68370000000000        8.40570000000000
H            6.43150000000000        2.03080000000000        9.29790000000000
H            4.79530000000000        1.84110000000000        9.92920000000000
H           -3.14630000000000       -3.40300000000000       11.80630000000000
H           -1.76240000000000       -4.44850000000000       11.49980000000000
H           -3.34400000000000       -5.15580000000000       11.81330000000000
H           -2.86640000000000       -5.57550000000000        8.08310000000000
H           -3.17820000000000       -6.46140000000000        9.57590000000000
H           -1.59770000000000       -5.74000000000000        9.29350000000000
H           -4.95000000000000       -4.16020000000000        8.59030000000000
H           -5.07840000000000       -3.31590000000000       10.14030000000000
H           -5.17050000000000       -5.06970000000000       10.07990000000000
H           -1.80680000000000       -2.66190000000000        6.14400000000000
H           -0.60780000000000       -1.81810000000000        5.12360000000000
H           -1.82120000000000       -2.87510000000000        4.39020000000000
H           -4.91900000000000        0.92690000000000        6.91110000000000
H           -4.97320000000000       -0.04220000000000        8.39720000000000
H           -4.78660000000000       -0.83830000000000        6.79890000000000
152
 energy: -209.191314980631 gnorm: 0.042123145544 xtb: 6.7.1 (edcfbbe)
C           -2.86006980241010        1.98601697072291       -2.30823951416326
C           -2.77207158173069        0.88882224414829       -1.47220197718082
C           -1.74499470093259        0.84137952896366       -0.49709917539972
C           -0.66069796620056        1.75911119242401       -0.61945960387970
C           -0.78340062317954        2.84087429416309       -1.51592907562256
C           -1.89345148688385        3.00144326344414       -2.31305962381142
C           -1.70037708353068       -0.07134859084684        0.59819716598857
C           -0.45202981448208       -0.27901743853696        1.19370837993664
C            0.61725142297916        0.61767289056598        0.92753340597905
N            0.47569635942238        1.65893161195392        0.09599973020351
C           -2.79963824793100       -0.77284034404329        1.18735728691232
C           -2.49283768492647       -1.94821900375842        1.92916748636018
N           -1.23596582109783       -2.28087045294669        2.28454331540459
C           -0.26659872102158       -1.37731977509089        2.07447585420297
C            0.97944492305780       -1.52037839491396        2.71341449908193
C            2.00266692624534       -0.59429903205412        2.54543835425738
C            1.82162486151892        0.44281646670554        1.63616509256779
C           -4.14117113529913       -0.31602980748710        1.16918769038371
C           -5.13939646815287       -1.12035811334176        1.69027606258533
C           -4.86528275552287       -2.35748552628825        2.28230395652544
C           -3.55245507405836       -2.75362097743865        2.39204204524530
O           -4.36854349167003        0.97520900796272        0.74914776213033
O           -3.68178013790311       -0.14822990022447       -1.66984718117366
C           -2.06737250529464        4.19644401914285       -3.25071393844936
C           -5.96991220050213       -3.20795805339501        2.90989475460820
C            3.31578059530090       -0.71443982051127        3.32077398408617
C           -7.37343127637914       -2.67617021711866        2.58589266209921
C           -5.87168917953134       -4.65060220290000        2.39267470361536
C           -5.77813440863796       -3.18682217544499        4.43464638371079
C            4.36177132745130       -1.38615244385019        2.42016920957456
C            3.81404283327347        0.67910983958274        3.73269377961473
C            3.13768394667455       -1.55489838301618        4.59487168293404
C           -3.41177182462289        4.87861207092070       -2.95336919989427
C           -2.04886987176579        3.70675511966757       -4.70697006230937
C           -0.94975961180234        5.23176701729134       -3.06912452343892
H            0.03396116566878        3.53871057058902       -1.54925103288889
H           -3.69260468280085        2.02374544279923       -2.99215243686933
H            2.60616344717958        1.15628555225468        1.45275027659032
H            1.10027697623590       -2.36538704984613        3.36863268598261
H           -3.30146261113725       -3.66429918307387        2.90857175440534
H           -6.15262280706080       -0.76490251700146        1.66750804859764
C           -5.70654358299362        1.32508358668034        0.48787039501136
C           -3.08133797511436       -1.41262396935306       -1.87885756442343
H           -0.91827930539648        5.59034000437801       -2.04222609921391
H           -1.12288342498378        6.08709800916805       -3.71994861366832
H            0.01976075256459        4.81030887322377       -3.32612244996231
H           -2.85960598840759        3.00799532439003       -4.90117494323774
H           -1.10852017242817        3.20479324076238       -4.92765515613640
H           -2.15648464598282        4.54641776795554       -5.39169901404575
H           -4.24849716163165        4.20655467934042       -3.12907628631463
H           -3.54292603906925        5.75149329923660       -3.59078726162365
H           -3.44944671036052        5.20458336301002       -1.91554695247756
H            4.53001247397276       -0.79967678107169        1.51890138927435
H            4.03307985263950       -2.38061485821406        2.12278437036855
H            5.30953616875366       -1.48239529596585        2.94750441256035
H            2.92973969298955       -2.59770798046227        4.36486362508887
H            2.32590801797160       -1.16183105634004        5.20268284338989
H            4.04520433959322       -1.52827789665941        5.19452611626225
H            4.11182848739284        1.27283344567390        2.87228585559935
H            4.68189727710299        0.58603987821425        4.38136843107674
H            3.03617486204207        1.21693411688261        4.26985652746189
H           -5.83323734079691       -2.16609160211226        4.80949857506456
H           -4.80870377249379       -3.59266370053444        4.71452220319325
H           -6.55172811305037       -3.77671094420919        4.92433941204768
H           -5.96547900549185       -4.67257127453476        1.30853843614848
H           -6.66720892952920       -5.26028698795392        2.81783705201859
H           -4.92191534962122       -5.10611635270671        2.66086462922514
H           -7.53269792691237       -2.63036434014134        1.50993581779115
H           -7.52858706148169       -1.68591545592673        3.01041999182454
H           -8.12969531372462       -3.33492942319827        3.00900126657203
H           -3.88104314909124       -2.12358925914213       -2.08481427241831
H           -2.53014408747926       -1.75274314514788       -1.00009966768665
H           -2.40245529840426       -1.37542833000801       -2.73640475765074
H           -5.69975978149522        2.31854250727089        0.03912351533674
H           -6.29551389603281        1.36031587457541        1.40969141368310
H           -6.14440345766951        0.61409993041799       -0.21674249125911
C           -2.47681289374387        1.14906206838574        4.20656957744429
C           -1.93237872276737        0.20303471827927        5.05821824920114
C           -0.79883283568878        0.55117063761448        5.83665677286771
C           -0.03764947168457        1.68608341692272        5.42666007661105
C           -0.62862867908429        2.60907781535133        4.53906741686637
C           -1.88256035749626        2.40295072374869        4.00581320845026
C           -0.31486719768323       -0.17371931155418        6.96773897559833
C            1.04073739343606       -0.01909615367853        7.28064603150474
C            1.78608689918056        1.03716739862009        6.68944127533642
N            1.21848032816254        1.92043650272559        5.85349905923061
C           -1.06341343973207       -1.04745973350212        7.81228375632491
C           -0.33281614149858       -2.00767864373837        8.57052175087538
N            1.00484838585709       -1.96154178943363        8.71705343923599
C            1.66526387345255       -0.92469964053586        8.18092453892178
C            3.03651941850962       -0.75564813669256        8.45524213623755
C            3.77271398544333        0.29336676349383        7.91778967923092
C            3.13861797701595        1.18290510751168        7.05585252032416
C           -2.47521906844084       -1.00160165258555        7.95529369539895
C           -3.12091156022651       -2.04588856246327        8.59274806571220
C           -2.41929620827518       -3.10854694055761        9.17546927818287
C           -1.04364976619693       -3.05083041437142        9.19920374188693
O           -3.12628965805483        0.11857278450132        7.49424222218179
O           -2.51297994133891       -1.05342175029603        5.05735654910359
C           -2.57278650345918        3.47110491859023        3.15490033254540
C           -3.14815200374146       -4.28999897874160        9.81759151852568
C            5.24751024545315        0.50878090046650        8.26739212284835
C           -4.67155683438327       -4.20077866476569        9.64543619051798
C           -2.66628469414060       -5.58905531093881        9.15355958490832
C           -2.82884022867443       -4.32524998691221       11.31911284834070
C            6.08791667861192        0.55487371602805        6.98202083876314
C            5.38707895127570        1.84312511461589        9.01569071345918
C            5.79785441308001       -0.61198832038590        9.15947924120821
C           -4.09697888172245        3.40226375206744        3.33424451719872
C           -2.23065399209373        3.23873534188347        1.68153165797094
C           -2.10754111474213        4.87797457506406        3.55737416789065
H           -0.05914681757129        3.48825201671279        4.29511926561699
H           -3.36612097855468        0.87126869956816        3.66594124600392
H            3.67794751472171        2.01777429653548        6.64036588493710
H            3.48904404550374       -1.46959750482416        9.12009147697569
H           -0.47114502981879       -3.80116272442375        9.71748092785677
H           -4.19315136627149       -2.03321699724520        8.64784108261516
C           -4.52760390551002        0.03074788186899        7.40006850260164
C           -1.64027903084758       -2.16144963415929        5.19833549615618
H           -2.24382527297570        5.03626370957771        4.62531563266880
H           -2.68578419880316        5.62869728274834        3.02110511310102
H           -1.06072012178232        5.03575712651735        3.31039310725377
H           -2.62345075055684        2.28298722878840        1.35188987172414
H           -1.15352662094791        3.24186695126329        1.52925244227328
H           -2.66905731491871        4.01161444427308        1.05261436408325
H           -4.49975465522133        2.47276444168641        2.94272437877898
H           -4.57487798439952        4.21779129276832        2.79396929343386
H           -4.36329903411112        3.48260508180968        4.38663913934734
H            5.79629461766621        1.38694476393849        6.34555003499816
H            5.97259868173504       -0.36920118819563        6.41794131868184
H            7.14290034754170        0.67432580486514        7.22356525911182
H            5.71340691024430       -1.57841626184281        8.66593802537444
H            5.26846041321176       -0.65165762037519       10.10922637982321
H            6.85063497443107       -0.43586245032335        9.37363842148701
H            5.05469234643239        2.67737873875253        8.40190764970917
H            6.42632298596685        2.01739117213472        9.28984510571276
H            4.79060800656741        1.83321367740139        9.92615437835929
H           -3.14663319492019       -3.40068365965230       11.79789192109844
H           -1.76232907119092       -4.44654477973454       11.49220982681052
H           -3.34651740610837       -5.15464889502812       11.79828676900916
H           -2.86755984816025       -5.56711229359599        8.08382616540849
H           -3.18183353630161       -6.44746748788869        9.58104328637556
H           -1.59787361006346       -5.73265482666617        9.29417798683776
H           -4.94357633749989       -4.16511113338486        8.59171450008001
H           -5.07335956596949       -3.32197187969853       10.14665654365200
H           -5.14849794124956       -5.07587147176634       10.08328803042534
H           -1.80853810814994       -2.66871896840600        6.15040351684526
H           -0.59918563065377       -1.84844799718395        5.12977305657504
H           -1.83679311031973       -2.85835905912943        4.38429486433517
H           -4.87722390339961        0.93778346082034        6.90674200227436
H           -4.98574112420839       -0.03186499947480        8.39184073860164
H           -4.80974937206515       -0.83534145142001        6.79542982469727
152
 energy: -209.195487936972 gnorm: 0.010297265460 xtb: 6.7.1 (edcfbbe)
C           -2.84848676263668        1.97687108163410       -2.31876095385127
C           -2.76415074881352        0.89071487432924       -1.47844774761781
C           -1.75157317986998        0.83525330396911       -0.50261747045991
C           -0.66220124734935        1.75318284452835       -0.62182816970875
C           -0.77601106360448        2.83955779549043       -1.51769614443380
C           -1.88270542065549        3.00212129367132       -2.31407843754485
C           -1.70818026453934       -0.06708154313932        0.59849869269832
C           -0.46175530035584       -0.27490132510217        1.19569492638953
C            0.61330415075281        0.61431573370037        0.92003208671827
N            0.46659198266856        1.64607706590812        0.08974776435153
C           -2.80885342827651       -0.76248919350532        1.18793567487886
C           -2.49603958619371       -1.93904969657368        1.93179114516357
N           -1.24440509854505       -2.26566175187578        2.28325112077745
C           -0.27562459003002       -1.37183171260128        2.07836552774424
C            0.97551781744590       -1.52243007361516        2.71241033971937
C            1.99822453560283       -0.59522048999052        2.54197247528294
C            1.82038143126627        0.44166605609711        1.63051149255984
C           -4.14989107969840       -0.32993347778080        1.16131067054611
C           -5.14237560536863       -1.12876014423178        1.68951703452368
C           -4.86109685067665       -2.36655419541616        2.28515103862462
C           -3.54832554231803       -2.75865646993030        2.39206428453107
O           -4.37803890261991        0.93893243451730        0.71573884425548
O           -3.67206181759658       -0.13515263510167       -1.66373019451968
C           -2.06330783963116        4.19253304580921       -3.24544392194895
C           -5.96519563331623       -3.21019812432441        2.90745589040747
C            3.30737316324769       -0.71421091902290        3.31356874178053
C           -7.36774983313228       -2.68329009792332        2.58684126188170
C           -5.86994054070214       -4.65052604357652        2.39073139061027
C           -5.77617455398034       -3.18797558431082        4.43117029195076
C            4.35223090864411       -1.38562263608755        2.41187809123718
C            3.81020539432005        0.67497545580124        3.72424613927485
C            3.13858121741965       -1.55180864488725        4.58626421206969
C           -3.40719718903501        4.87112394225914       -2.94666173964865
C           -2.04637611241892        3.70276430104479       -4.70010679220801
C           -0.95339472045779        5.23165454916588       -3.07094537830825
H            0.05145749737748        3.52707431628706       -1.54185478929659
H           -3.67777465710722        2.00541947524010       -3.00958940336854
H            2.59922786158764        1.16193321899087        1.44385628421132
H            1.09034468379997       -2.37280565235245        3.36355132332273
H           -3.28162028226105       -3.66916787542096        2.90399165227732
H           -6.15755294610146       -0.77685461546832        1.66618098598348
C           -5.70814145527076        1.32551024339491        0.46962074956637
C           -3.08830055917653       -1.40346615623054       -1.88755986283141
H           -0.91934246062572        5.59147187846866       -2.04564363594705
H           -1.14063128105551        6.08159293790001       -3.72423623403019
H            0.01552325691874        4.81537573475683       -3.33402035163009
H           -2.85683332100308        3.00527688825370       -4.89332433510742
H           -1.10528978623591        3.20319156276507       -4.91948808298935
H           -2.15510468938880        4.54648436139283       -5.37884846712410
H           -4.24170122298343        4.19818020618208       -3.12219690265113
H           -3.53488695080284        5.74195467818178       -3.58684887981890
H           -3.44230766488644        5.19827090775700       -1.90987709840099
H            4.51849237916739       -0.79854818996059        1.51179553096246
H            4.02274259997863       -2.37992359257436        2.11798802717496
H            5.29748536458762       -1.47840451021569        2.94346628375170
H            2.94200820113131       -2.59640702957475        4.35856797900113
H            2.32704199048334       -1.16432009457730        5.19684729319372
H            4.04928486025598       -1.51224669126596        5.17993904348226
H            4.11853032516637        1.26246944175993        2.86456117849647
H            4.67287333772912        0.57092057858014        4.37738310586801
H            3.03345337848393        1.21804324978563        4.25584908958402
H           -5.83203263711580       -2.16565883370454        4.80020947245389
H           -4.80737210650868       -3.59250715969591        4.71003704229486
H           -6.55290426585937       -3.77658433689902        4.91645539292694
H           -5.96562850561996       -4.66949868664591        1.30733815424573
H           -6.66804167771692       -5.25409305489967        2.81831754447451
H           -4.92148127176834       -5.10593441656991        2.65810192484406
H           -7.53055750194609       -2.63602177471467        1.51219738908931
H           -7.52937830364225       -1.69772468129878        3.01805341627449
H           -8.11388295929374       -3.35208900279754        3.01125096655867
H           -3.91131472763698       -2.08811673473740       -2.09364920443864
H           -2.53378061501990       -1.77291656183902       -1.01960618457893
H           -2.41368671286081       -1.37503382834371       -2.75108221062650
H           -5.65544491862798        2.31996075346295        0.02485541140302
H           -6.29635006279715        1.38296735536418        1.39385158784046
H           -6.18428179659034        0.63267383858858       -0.23182472537000
C           -2.46581065670762        1.14659943232852        4.20471833102031