116
 energy: -22.928061455056 gnorm: 0.329736929581 xtb: 6.6.1 (8d0f1dd)
C           -3.31122850772930        0.79849766164622       -0.92477639677520
C           -2.44380812530352       -0.12270372891954       -0.27661132624697
C           -1.41337090092821        0.39579727573559        0.56335275196199
C           -0.89266158675590        1.65801491088749        0.27377586709581
C           -1.72665675402493        2.51431363229076       -0.49448366572522
C           -2.95444148494349        2.13954154133227       -1.01494489940871
C           -0.74098268209890       -0.43411532818871        1.49825021926784
C            0.56872586496315        0.03782116815119        1.86248088067890
C            1.03782416582094        1.29402317993033        1.50887470833621
N            0.31238977034758        2.07067427098208        0.65193736800696
C           -1.29695700510141       -1.39996043042223        2.41574187746061
C           -0.38243517664656       -2.18060797534842        3.13232615520648
N            0.91308504082021       -1.90366887689689        3.30325166013478
C            1.37712470144904       -0.74872102533751        2.81811050966982
C            2.52149331701875       -0.17739833758153        3.39379298866852
C            2.95849061756259        1.02681208890480        2.95105897606587
C            2.24288949469137        1.78498308775960        2.03503020483770
C           -2.74860936222260       -1.74497937691422        2.38401158947411
C           -3.09416315450955       -2.91614440870436        3.00571134491758
C           -2.16786021984049       -3.77788778654213        3.63251872101904
C           -0.85708937311598       -3.40495313382985        3.68547234358092
O           -3.71994433332149       -0.94984598373544        1.67726658385724
O           -2.55702603277562       -1.47241711578389       -0.57241635275616
C           -3.84297843593025        3.13357444054366       -1.60938954875544
C           -2.68769581069131       -5.03867041417370        4.30484659386931
H           -1.39666850744143        3.51251503834900       -0.76806311868865
H           -4.27662633836220        0.55105838579656       -1.33106614114542
H            2.66329581305412        2.73912661909249        1.72562431984580
H            3.05775395548473       -0.69369546277216        4.16536137542516
H           -0.24710966264510       -4.12034095424229        4.22946223699121
H           -4.11477991332403       -3.04712728052358        3.03244694615357
O           -4.21824883374556        4.03433712717988       -0.87713382485991
O           -4.44510595673734        2.90643496899600       -2.81853501752979
C           -5.44216520282800        3.83300025693726       -3.02488532025093
C            4.23586651889298        1.50004220933226        3.59165660008449
O            5.05927614697201        0.66079890002952        3.91714215179376
O            4.47001334453535        2.86385149488593        3.72605651435371
C            5.79457498613219        3.08584475587818        4.15829123132174
O           -3.82227255313510       -5.27347675879771        4.16636005494405
O           -1.85023202017753       -5.79767454267276        5.06656077253571
C           -2.55119635829503       -6.86252441382958        5.62930343183426
C           -5.07197156564436       -1.42399175670916        1.58830531863830
C           -1.33089900128490       -2.23622472573986       -0.99264499351172
H           -2.54510546830388       -7.76426885143998        4.99136022291012
H           -3.57194749219491       -6.44405511486021        5.74196173723541
H           -2.09133598235598       -7.02043774843818        6.64022264233588
H            5.72707967266424        3.46798026205549        5.10135971236643
H            6.34060091246885        3.78468702308830        3.50069950143490
H            6.17933064298187        2.03010500085905        4.19342358084693
H           -0.91862729772622       -2.57650129080332       -0.01361370304871
H           -0.49769766914251       -1.60651221708571       -1.34094446550576
H           -1.52632419730509       -2.94569707152159       -1.75361447637286
H           -5.11788846557077       -2.41810833635233        1.17520213188926
H           -5.67929807973498       -0.69619639428435        1.04301666067831
H           -5.57598832326623       -1.42383358739762        2.57928294206544
H           -6.13050215934830        3.76035386975488       -2.23272855695873
H           -5.86615610071888        3.45938329385866       -4.02668959924245
H           -5.13479557532099        4.87790991548477       -2.98314551356402
C           -1.38192942069774        3.73616555005018        2.91232598411686
C           -1.84821468128685        2.59982427735607        3.49755545445181
C           -1.05946531454833        2.05730632010638        4.60922730982276
C            0.19893954712228        2.69376791964407        4.86302140881997
C            0.50425395911860        3.94630308659851        4.28768785650746
C           -0.26031777722226        4.46998310053134        3.25072669343212
C           -1.20488993561782        0.74454293276906        5.14851520323437
C           -0.06287609782692        0.02744069315890        5.60930570802864
C            1.19208754369866        0.71421540266195        5.78882868583885
N            1.19428660993148        2.06344359410476        5.62744624321596
C           -2.41361422770794        0.07928500213936        5.25249410304426
C           -2.45851584031083       -1.32662100968547        5.60237876023992
N           -1.29466212405906       -1.98318595734370        5.89916817085159
C           -0.14475655767527       -1.32117560077092        5.98824682881008
C            0.97209270935794       -1.98958449505532        6.53157704134458
C            2.21982707914082       -1.36973967291181        6.68703967237737
C            2.30561929262884       -0.09745313075593        6.26436900324455
C           -3.73018485967715        0.71367583494582        5.25810242262992
C           -4.89964478833448       -0.06184623426677        5.21204641615509
C           -4.82617965800088       -1.39228978090841        5.46901303780036
C           -3.67144193418464       -1.98914944386360        5.67265433266067
O           -3.75568638935321        2.07705011038914        5.52067969627343
O           -2.94192434743730        1.91263938797883        3.01658762327703
C            0.21273512614467        5.50086066357994        2.34765104514621
C           -6.06660304520411       -2.17604633098929        5.80641622556876
H            1.41756699010566        4.38133362238595        4.66974005703471
H           -1.82880610647429        4.11982501512100        2.06992133318584
H            3.26888037378556        0.32655662585251        6.31721410015598
H            0.87146188387207       -3.08471526305024        6.57830423410869
H           -3.67716811065157       -3.05999292755990        5.83019634570050
H           -5.77379677507622        0.43595144608221        4.71017130754348
O            1.34459852619901        5.82615848916894        2.44941456579099
O           -0.74718748219123        6.07961784856304        1.59848183464284
C           -0.21473095568964        7.24015934882472        1.05753806029483
C            3.53228080814219       -2.00967610361154        7.02506769044485
O            3.64093082622715       -3.14437803815732        7.50071391725347
O            4.56565258381079       -1.22937033368332        6.69086985080897
C            5.72579357310716       -1.80692399125161        7.22246151275881
O           -7.04801223588612       -1.95726935745904        5.14194115322235
O           -6.01514389321278       -2.93743591896022        6.94765316328794
C           -7.21292732384718       -3.62681918543340        7.15115816329978
C           -4.95459780685163        2.65960679932188        5.86868674392943
C           -3.68284113682406        2.59129188358641        2.05479246020704
H           -7.43119628931628       -4.22607794725959        6.20622607140901
H           -8.06548455146707       -2.91765848248592        7.29781126410398
H           -7.07314693247270       -4.33087306029711        7.91223421050944
H            6.57332189837178       -1.29353136199234        6.78341268688262
H            5.74663761932316       -2.84282155125561        6.88089468184451
H            5.69426191474290       -1.72781984964892        8.29460302186842
H           -4.10481209541493        3.44288266176275        2.60483747673152
H           -4.49244774344916        1.87419893016926        1.82433103764650
H           -3.18901540870812        2.85154642679373        1.06781919454921
H           -5.55414326821421        2.76698137191684        4.93950725322359
H           -4.78658370641210        3.62090640967288        6.25983200635257
H           -5.43485580473958        1.97242995129449        6.65265772412460
H            0.89164886030839        7.38838561720231        1.13776105146914
H           -0.62894889903848        8.04195665205089        1.64837664327952
H           -0.59282546386754        7.45699159724320        0.03719083132488
116
 energy: -22.739624300348 gnorm: 0.481834839906 xtb: 6.6.1 (8d0f1dd)
C           -2.46988087581340        0.76134716750448       -1.00872395274903
C           -1.85268539268254       -0.16686977359893       -0.26422551491382
C           -0.97454034734248        0.22530079333945        0.81677203319060
C           -0.45565854592462        1.57709515525624        0.78867910488155
C           -1.33473590788287        2.60252873683715        0.27659611467829
C           -2.28954911405577        2.11362691971488       -0.64349371510398
C           -0.20602546869717       -0.65954678940467        1.67864127664691
C            1.08526679493830       -0.40729912064610        1.95479081748020
C            1.62866393385870        0.87845301208256        1.64992296282069
N            0.84568729275885        1.89215606580249        1.17711398367651
C           -0.86037346063347       -1.78836058488395        2.36480917491319
C           -0.03943589491088       -2.73145823065873        2.99145412720180
N            1.35930749389050       -2.65890222205307        2.91292788336632
C            1.83315531108827       -1.42742560804651        2.68053957430488
C            3.18036725961944       -1.19675477724508        2.95075230017509
C            3.71439485412674       -0.02320946878911        2.42295658383396
C            3.02285160673755        1.05759837537960        1.93115305258859
C           -2.25252587309389       -1.96611630219365        2.49587241560679
C           -2.82624490261089       -2.92690218435037        3.33128090103011
C           -1.89032781040794       -3.84476466513039        3.93146697892009
C           -0.54363096488758       -3.77295301674465        3.66340475450223
O           -3.11371356245672       -1.10303594202708        1.92914384397573
O           -1.84703676800433       -1.44326609056553       -0.82352968142219
C           -3.38095681947672        3.13422142582081       -0.99964938412468
C           -2.45792001584082       -4.86474693865565        4.85036380560279
H           -1.26601033380666        3.64131836649066        0.54206692109450
H           -3.27978524077181        0.46700403944506       -1.69382981443649
H            3.48869093749172        2.04557464934194        1.77564659931117
H            3.85374351892026       -1.99627060797341        3.25717627514163
H            0.19031101494752       -4.45012980095420        3.88955685406479
H           -3.81657848523387       -3.27200291731214        3.50116149821244
O           -4.07267698785425        3.63479611421887       -0.10645833623196
O           -3.54926099043097        3.60098832940760       -2.27917589045384
C           -4.26469956056744        4.69260684697729       -2.38428640305778
C            5.18041677009031        0.03006311159333        2.68821166237206
O            5.73335122529743       -0.98366899743090        3.06918562680170
O            5.86963031137236        1.15597409322291        2.20188835722601
C            7.20148490575262        0.73297994720378        2.12522194029333
O           -3.59374560359298       -5.38025680140134        4.79731915906868
O           -1.73609941026421       -4.96786293907839        6.05060465403220
C           -2.52185425464984       -5.28410386976330        7.10249469923138
C           -4.50159746400737       -1.44864332998582        1.94055853283613
C           -1.14481098190474       -1.53829516623233       -2.12279394964502
H           -3.43612398008685       -4.67101921571427        7.05791682263550
H           -1.83481999941785       -5.08728845073590        7.99416950473442
H           -2.80714800857762       -6.28598717567374        7.03792980177098
H            7.72444561698622        0.87666654171098        2.96979637145841
H            7.68169263835453        1.35953663176716        1.49515441057615
H            7.31151449403387       -0.34302064885871        1.80559966100791
H           -1.88047949914944       -1.09147954567269       -2.83377509077058
H           -1.14130320746290       -2.53390707090089       -2.61357670260454
H           -0.22151963899857       -1.09262624953569       -2.03972491853080
H           -4.53588546429044       -2.62491741497647        1.87547564163139
H           -5.08080666096026       -1.17268661597562        0.95638132570887
H           -4.92451957308897       -1.01713894282297        2.87829432164344
H           -5.43430793980859        4.56950584566833       -2.06390627866797
H           -3.97471230286630        5.27314648363692       -3.27631679847606
H           -4.03640992402841        5.42389973362068       -1.63251544706012
C           -2.61184198593942        4.36017679589700        3.78532826347685
C           -2.68332319193533        3.03246280819598        4.27062757390676
C           -1.53242275734312        2.36113841982446        4.87214169010190
C           -0.36767942791132        3.00631469875782        4.91544965301817
C           -0.23027727950038        4.17851776182247        4.17122107455239
C           -1.39291373440158        4.89793025474293        3.76453800420883
C           -1.73284821588049        1.09700458702110        5.47819438398090
C           -0.51761427930556        0.45650867220308        5.87937626305483
C            0.72060884573265        1.07211186309054        5.69283155201182
N            0.80913121176463        2.31519931966383        5.20505043477007
C           -2.94240230743725        0.31013673057090        5.73558430459043
C           -2.75452060937355       -1.06264830025773        5.92803764314518
N           -1.59674028514175       -1.53664826145607        6.42238649385565
C           -0.46903593154827       -0.82491233301667        6.45353379977033
C            0.77428924922020       -1.42085194675341        6.81280325487420
C            2.00223240946306       -0.87589782178592        6.42479941567951
C            1.95779675025940        0.38202803764059        5.87017863078135
C           -4.20765141989715        0.93888185200476        5.90853339498597
C           -5.27415989844484        0.06152106626222        5.61373549002365
C           -5.22116954817151       -1.35450651669962        5.68567027499311
C           -3.98731866041019       -1.89153931559179        6.02858320292794
O           -4.17857116649526        2.36858115799699        6.25813506286686
O           -3.88687007362117        2.32734667957811        3.81833176313358
C           -1.45209128512918        6.07732829255822        2.93721079064879
C           -6.30679686676456       -2.12742988686264        4.99296859191074
H            0.65827736581430        4.75887641885031        4.19397301909045
H           -3.56227738558844        4.84318907283642        3.46587099302034
H            2.80176039482248        0.84189797172920        5.38160909365795
H            0.83652926631765       -2.39934028404596        7.25071126753167
H           -3.73758820577865       -3.00305143797828        5.86276134417547
H           -6.22089051971941        0.48685973891277        5.15702139871233
O           -0.73303869029877        7.08855899916762        3.14219998624258
O           -2.47011159833179        5.94782980031828        2.01596502215377
C           -2.26886963287201        7.09039446180130        1.27607402658214
C            3.21946674938531       -1.64776613473704        6.54801956063904
O            3.39175468914672       -2.80826316996593        6.54105151123145
O            4.21252465915901       -0.69403216967632        6.54893061270443
C            5.43071239087443       -1.18728224065958        6.56145163875741
O           -7.17762277439933       -1.44469908453605        4.42568025169110
O           -6.15836996994173       -3.48003156262869        5.00173007665622
C           -7.08489867021478       -4.08695763986763        4.24207818995954
C           -5.35849991801712        3.16237979170061        6.27372110004646
C           -3.42881060229690        1.49971432209088        2.82975094080077
H           -7.33869701618710       -5.11680761143014        4.59611031144900
H           -6.49398306315182       -4.36476037906940        3.42612208431457
H           -8.00596968420813       -3.41137008971716        4.19662358824401
H            6.22770746555906       -0.60921960779875        7.05276590582245
H            5.64302705737581       -1.44070278946788        5.53437283845325
H            5.42084895421271       -2.28065616854516        6.89122962269824
H           -2.46778392659194        1.83552807888751        2.32406348781629
H           -4.11484546572766        1.39676586477001        1.88879169043028
H           -3.32800171427804        0.56667023886156        3.32455272585327
H           -5.56356819241357        3.79315596450136        5.30748274562350
H           -5.37291172213773        3.89519884231663        6.97122822418187
H           -6.36336826902669        2.59168634437841        6.51938549835517
H           -2.79473645839142        7.78334030655814        1.80724273478605
H           -3.04143562533122        7.04779715491069        0.44783366768606
H           -1.22958557213542        7.28449928913601        0.94466327272656
116
 energy: -22.777860857061 gnorm: 0.447862075631 xtb: 6.6.1 (8d0f1dd)
C           -2.28988420747619        0.77953679533468       -0.38875236736383
C           -1.74966582831395       -0.31529206696426        0.23803262396602
C           -0.58283403090600       -0.02816046551688        1.16702951992215
C            0.09562940780802        1.17079279562208        1.17198105558603
C           -0.56470682885962        2.27439613511841        0.63732150998698
C           -1.72305415623089        2.08028296540470       -0.08149678106081
C           -0.04120156280777       -1.12263059129484        2.04449346326469
C            1.29862059037099       -0.98781785234464        2.39140872388879
C            2.03494150238499        0.22635788546161        1.99683891082846
N            1.34950680031213        1.34599348849768        1.67169906120403
C           -0.76942971583364       -2.18746636859120        2.78288355426683
C            0.09031985833309       -3.06915705679927        3.42831775948252
N            1.41409612880996       -3.10574578673132        3.42006926182121
C            2.04461000692342       -2.07894748936562        2.94603698585132
C            3.41583860243061       -2.09354851350604        2.90705682331711
C            4.14987773381089       -0.97986057261763        2.45586779990647
C            3.38761870579637        0.18365030161904        2.23955186644295
C           -2.23995181573845       -2.35685583361837        2.89589468726920
C           -2.70831243366189       -3.51359977909356        3.47278897904548
C           -1.87802978320738       -4.47657879904533        3.93928902260203
C           -0.47549557792104       -4.30484182683957        3.86606133226582
O           -2.83313885752214       -1.25332990001992        2.45121740959198
O           -1.93081715821818       -1.61248367274562       -0.14059642749327
C           -2.21643419209757        3.29271641276887       -0.80580181302270
C           -2.26638441314919       -5.72251229932337        4.68407590277629
H           -0.17934608518610        3.27547598438272        0.84773736138173
H           -3.13636301849784        0.74279953697794       -0.95546055203447
H            4.01288620125308        1.03545337921314        2.05546492866546
H            3.90037496121606       -2.83818996380274        3.51101468565847
H            0.10903248629358       -5.17395942616923        3.99682879486166
H           -3.70852243688599       -3.81029774570217        3.56361058198202
O           -1.72711821043988        4.37642482303754       -0.46443747958847
O           -3.25013500731372        3.13155595724440       -1.75239303686667
C           -3.38705715796237        4.45178695143215       -2.36436650497656
C            5.59050940537504       -0.68899534127936        2.70123263762212
O            6.20626375386581       -1.35081952857276        3.49366335734829
O            5.93704729499971        0.46610701996663        2.07055599844783
C            7.20231907244140        0.83931266181969        2.44723448048604
O           -3.43822481127637       -5.95623200381840        4.94175480787705
O           -1.27407101609919       -6.77961455431109        4.91546060996155
C           -1.68966895424996       -7.81226844663218        5.68130375322338
C           -4.09578665005248       -1.60579982585716        2.11603994938137
C           -2.80976184053565       -1.90556047257071       -1.11522694531300
H           -1.93891433669137       -8.70920650592511        5.06300202057819
H           -2.58930536857071       -7.42846062579995        6.23745838866236
H           -0.93381063928570       -8.08724614283819        6.49883665764224
H            7.19521568414366        0.80272030236061        3.44797456045824
H            7.46092588623354        1.90388257634768        2.00446408188942
H            7.89587853752441        0.09595414228413        2.16137356649386
H           -3.82217012954364       -2.23856787121537       -0.91093488658953
H           -2.39125273570498       -2.80571515070707       -1.54731764728123
H           -2.96346142713562       -0.98804209284646       -1.75519277090076
H           -4.17949478937211       -2.26854785988006        1.25097526939552
H           -4.50118916873694       -0.61959423220697        1.72902320479525
H           -4.85530937988544       -1.82913161646384        2.91403923757864
H           -3.94669272617002        4.23618029901396       -3.16367391034691
H           -2.33990822811607        4.85016251964732       -2.45065827642346
H           -3.95851431933350        5.10825953044119       -1.61666451850344
C           -2.92070529152153        4.75531791415549        3.34761112466613
C           -3.01827984370159        3.30901131739613        3.55796808574990
C           -1.96822458033784        2.70731763889439        4.30860179572859
C           -0.77272209071663        3.37461548607655        4.36371380433391
C           -0.69419365412352        4.68785040436796        4.03952845151299
C           -1.71996661940500        5.48422116245406        3.59455425339070
C           -1.93737215356576        1.52877318851451        5.21852179326906
C           -0.72263602384751        0.94211026594607        5.59214067104437
C            0.47362894776737        1.66679242693572        5.14492950208409
N            0.45959233433668        2.90449262332883        4.65731174843493
C           -3.10543107549631        0.66808419054673        5.46201768880684
C           -2.92082698021817       -0.71412006135802        5.74560225238003
N           -1.71482319587958       -1.21057138471387        6.17048720577952
C           -0.59129390965210       -0.53450686752696        5.80393454292050
C            0.71525958622058       -1.08397790893526        5.85281638601298
C            1.81547443113188       -0.29817068510082        5.88986591499478
C            1.66887113109866        0.93986602417055        5.28702610980647
C           -4.47922437811913        1.08902838257096        5.46068536766091
C           -5.48511877780439        0.14174887537397        5.45189679904816
C           -5.19034692785661       -1.17426190908700        5.44691828480348
C           -3.92119492170605       -1.60756803618443        5.59344093826729
O           -4.79076622337660        2.42352931392459        5.70095613245276
O           -4.06985204571516        2.51980464173162        3.01588384583340
C           -1.45603073788732        6.92916788847931        3.23072665381405
C           -6.36460338007932       -2.11452333332646        5.56428734040455
H            0.28579879058270        5.03759647652072        3.78625488186826
H           -3.89971709448211        5.25347284102174        3.47591718136305
H            2.51947199642070        1.36257620476958        4.78544054556555
H            0.85065012073028       -2.10967462854836        5.90778779013276
H           -3.88338056718877       -2.70593193820079        5.67516287117316
H           -6.50157511460236        0.60412022649097        5.50864111474920
O           -0.31986659168197        7.27083301834663        3.19272401015288
O           -2.65547053759475        7.49894134888307        2.82295933557781
C           -2.54598015076557        8.63034994170750        2.14723336196203
C            3.16338316707246       -0.75031378356613        5.94537094826622
O            3.43881342307699       -1.97431759275031        5.79246492371623
O            4.08176013412805        0.27659167070205        5.91905231276519
C            5.35699260995018       -0.24984817017124        5.92875100329511
O           -7.22868346235580       -1.92109466029128        6.44536287666120
O           -6.60218651909962       -3.13838830815160        4.64286504657206
C           -7.79441954816051       -3.78509161543975        5.17170042481834
C           -6.16210767212473        2.61418321969626        5.98987153669146
C           -5.01232266944183        3.14960950648149        2.06742696190033
H           -7.61658515746034       -4.19900451452478        6.19409536648497
H           -8.13943226838165       -4.50071640579299        4.41711318080217
H           -8.67282458626705       -3.10606175819772        5.19966335189239
H            6.00829304224529        0.67608246663637        5.71550263968683
H            5.24361517024590       -1.10179697885039        5.13449126953752
H            5.62215413619320       -0.80028764161867        6.83227857987159
H           -5.32594985830824        2.59028250233790        1.15999438007217
H           -4.45728786809296        4.02193826077843        1.76789311268074
H           -5.82136960270266        3.42390466363859        2.75915672992482
H           -6.78515587091487        2.39143374439877        5.15335970983962
H           -6.10622528509710        3.81326200731716        6.07056637280817
H           -6.33875299086617        2.15161645473210        6.97621830821973
H           -2.08657536839953        9.53323082869069        2.73262566772251
H           -3.53248836319507        8.95722983534308        1.87659051210218
H           -1.81274928187008        8.33622979391588        1.39584985244027
116
 energy: -22.799481423976 gnorm: 0.413552776450 xtb: 6.6.1 (8d0f1dd)
C           -2.01923250890654        0.60248311949845       -0.46879884436970
C           -1.33070870304997       -0.56624285534871        0.08696124718764
C           -0.29386507278651       -0.36868172378038        0.98229881570377
C            0.31768936884848        0.80843959592763        1.11563149866336
C           -0.29815279061479        1.92512042059876        0.60493894640879
C           -1.51076003428619        1.90335775793281       -0.02665670446460
C            0.17537651125389       -1.40302737794024        1.85874440680913
C            1.50784719216024       -1.33232054826417        2.34585780464572
C            2.25400143758548       -0.16760555280507        2.03779732899105
N            1.60921032267751        1.00021799932662        1.68440783897170
C           -0.62516765712735       -2.52752724001332        2.30199340465994
C            0.14328498828254       -3.70859452764616        2.58956327116964
N            1.48889243037287       -3.70010552127785        3.00901651725483
C            2.14582869554161       -2.49312978941912        2.89032423135351
C            3.59691811103787       -2.35389998633149        3.12673449101892
C            4.26711894088748       -1.13137911123951        2.93385378119579
C            3.57437623752500       -0.06143245086747        2.34768076185435
C           -2.12534373278641       -2.48705766120593        2.43105669703963
C           -2.67776464891956       -3.75334350788036        2.63506502717089
C           -1.85640817937724       -4.92140848395104        2.60386617265840
C           -0.52010277793538       -4.92879640042176        2.79571932747194
O           -2.70825677666248       -1.25641070153980        2.52281305373814
O           -1.85462798428972       -1.73541933598659       -0.35283499482647
C           -2.07766857643458        3.22608888905626       -0.41607896013503
C           -2.44402761873399       -6.27725477454058        2.40219930932343
H            0.16068581734784        2.88721314009771        0.81463390423542
H           -2.57378114880816        0.39290061266054       -1.31405962787176
H            3.85765236318021        0.98749104583687        2.43391975442517
H            4.09583307484597       -3.21009967095740        3.53608142913616
H            0.00778283303412       -5.81200886064698        2.72243280027724
H           -3.73311165644652       -3.91673423637039        2.84263684935520
O           -1.65349148451866        4.27021499136843        0.05619696546173