116
 energy: -22.923748356567 gnorm: 0.321390914305 xtb: 6.6.1 (8d0f1dd)
C           -0.26245250447947        0.76478444798042       -0.49949604142672
C           -0.96295821968196        1.42513175651691        0.52309978940017
C           -0.20269985328628        1.63761771622259        1.75027999228874
C            0.99784408565028        0.92536748269751        1.98822615230459
C            1.56743874387829        0.15282523481283        0.95629330401075
C            0.94467109932342        0.09771719579688       -0.23555539796119
C           -0.70108017967179        2.43262151834425        2.77432032164739
C           -0.23572584148545        2.22431577194179        4.08644340069987
C            0.92376516303138        1.42792976848368        4.27546666345149
N            1.64390472000776        0.97997861621443        3.17923964877361
C           -1.53372053740167        3.58654481294038        2.61056989525941
C           -2.27156288860856        4.01515038190305        3.79311638807075
N           -2.08661636146637        3.51642044745992        5.03697141890304
C           -0.95931306403732        2.81179121812938        5.13871493050960
C           -0.48815891028875        2.49523635522263        6.40727852406550
C            0.74160846201897        1.82433855733902        6.67044897725462
C            1.48577715434351        1.34576874842581        5.59031399116366
C           -1.66825829681078        4.35081042513652        1.36350099284212
C           -2.52589463462156        5.45989763379876        1.35801683549539
C           -3.25530064460118        5.83240400418031        2.51178471798442
C           -3.18753833176829        5.10238680301650        3.66733997722796
O           -1.04079559270103        3.98522600396205        0.24127531131387
O           -2.33851856990035        1.72561477152128        0.36132326401613
C            1.40554693328985       -0.84969454601048       -1.34203009515870
C           -4.22603885116502        6.85145106398736        2.28846324651127
H            2.40665060893743       -0.58291764349386        1.10955713904118
H           -0.62530811850869        0.46248263495186       -1.44797539141504
H            2.49852555550030        0.92438439285487        5.73705039006880
H           -0.97415322092769        2.80169034793596        7.30350981175777
H           -3.64566428148457        5.60856905436449        4.46514000092532
H           -2.51882260710611        6.13293840556757        0.50846829685683
O            2.49268617124015       -1.36286492841717       -1.34429244183460
O            0.51041713539691       -1.38714577476609       -2.24401042764631
C            0.93592712917190       -2.58608889151207       -2.85328636901689
C            0.96088009944171        1.56071869918957        8.08434162586246
O            1.99097553998130        0.93813749407077        8.23618308044918
O            0.03042375270694        2.00853073382639        8.96702264910929
C            0.34767181225106        1.42505460650514       10.22829862454937
O           -4.45617811363483        7.18897039087329        1.12740027515106
O           -4.69782048254479        7.44789129998789        3.38724077691809
C           -5.48908524530792        8.50051911792154        3.07838664623835
C           -1.37600763758393        4.51937177486737       -1.05616166724759
C           -2.92261771712988        0.94904665101292       -0.68726315486332
H           -6.54047417140222        8.32110222716770        2.83388451045333
H           -4.91275654374093        9.10087408753525        2.41972626107233
H           -5.40087954170375        9.20119044013023        3.91399580210635
H           -0.45066128975007        1.63423484337543       10.97118290240071
H            1.35159043846588        1.71018770907073       10.68234191744862
H            0.34446159109454        0.34235944795610       10.13597612925491
H           -2.60852618203500        1.45493048559897       -1.64485111863120
H           -3.98813511903569        1.06041770703301       -0.53334877470981
H           -2.62108499153089       -0.03003762538699       -0.62114885100842
H           -1.17452544465320        3.75288461670740       -1.89075781298294
H           -0.55240864070665        5.24630232521985       -1.33816109091067
H           -2.41599438104583        4.88941960884511       -1.13019811025570
H            2.01700098070730       -2.42635135881415       -3.03178222376029
H            0.49933765181651       -2.71819835722726       -3.88618541738907
H            0.71055304378557       -3.39865743244212       -2.14717548388622
C            0.20422385694253       -4.19259579290524        1.77248920922496
C            0.00780618584487       -3.36406782554081        2.86346493145308
C           -1.13794635823917       -2.55674931297755        3.05061248835077
C           -2.01585036604382       -2.52332445926977        1.88173069411870
C           -1.76653833982286       -3.38702773608451        0.74132491599802
C           -0.70474782721791       -4.21036717672980        0.68190593825658
C           -1.54145568476193       -1.77087833661726        4.18334053453403
C           -2.47754598706187       -0.75582225389134        3.98015698700096
C           -3.17223933354259       -0.64355293893909        2.70578420071687
N           -2.95929836175647       -1.55209883554352        1.70998356912936
C           -1.22929309270077       -2.12269608597572        5.56225602103581
C           -1.45182038053488       -1.10875678983171        6.54661430387417
N           -2.07176267337296        0.03683245879027        6.27218340984767
C           -2.74053674772927        0.14651799545555        5.04793471603462
C           -3.72233956493012        1.15242868855079        4.82627753239454
C           -4.30121421828344        1.35286517158096        3.56683275437502
C           -3.97366262737422        0.50076938637110        2.51778424223890
C           -0.70446918377850       -3.45537349378236        5.90259203773945
C           -0.19912891883756       -3.57875105527093        7.17683152134935
C           -0.15395200697194       -2.53053860043404        8.08749969185484
C           -0.83319242386695       -1.33898350118578        7.77355273603750
O           -0.90153847650862       -4.63810324329091        5.10931971125413
O            1.04492523588232       -3.30824222160856        3.82271544685445
C           -0.27912322343038       -5.01142462609068       -0.53575291964889
C            0.34970329956244       -2.70820653439458        9.45678714516551
H           -2.46056755144267       -3.56279698294736       -0.09807349695685
H            1.17965364402278       -4.62914381825231        1.62115612172506
H           -4.17825734224133        0.74427015937916        1.55602856851531
H           -4.03685543229272        1.66336634732157        5.66854275515835
H           -0.89990791878916       -0.52419641044938        8.51996616790846
H           -0.00116270080417       -4.56277051002471        7.53221905202745
O            0.88732251858583       -5.45049343267582       -0.52885492215764
O           -1.12049740621995       -5.32634040528533       -1.53558767660419
C           -0.52311602719047       -6.29031280265570       -2.41232734278895
C           -5.26320636395820        2.51594070969755        3.41761853640845
O           -5.59420403670939        3.18059608964130        4.34798787788086
O           -5.76493392177903        2.83097163357658        2.16357598962036
C           -6.17732832266703        4.19206051057469        2.10271312894147
O           -0.01715895284880       -1.82244234886186       10.25224464159277
O            1.16019353279973       -3.79573393725867        9.64023856131547
C            1.39575173344144       -3.87452007256045       11.02531318225201
C            0.16114665575824       -5.57443977027713        5.20035376096978
C            1.61969159574792       -2.07243876467436        4.21756919353289
H            1.41280799937700       -4.86540667237932       11.33261501803884
H            0.55503199514682       -3.31228374194774       11.38233797090835
H            2.44227136292925       -3.45338039665526       11.02579030706190
H           -5.89961657235801        4.73666659471990        3.07778967437319
H           -7.27405585994681        4.20167969677948        2.11753822649355
H           -5.91182783300964        4.63146645864234        1.11264853776294
H            1.82977780840511       -2.15490059296522        5.28760537880960
H            0.84804886630962       -1.25262028764861        3.92481180166897
H            2.55894813479868       -1.89556970581679        3.67288216650808
H           -0.11877427788413       -6.55101091579837        5.67918907447925
H            1.08122283791784       -5.12350304057035        5.52176342358127
H            0.20890220950749       -5.91167293768125        4.10921350965739
H            0.29936675373884       -5.79836762233653       -2.96293068899096
H           -1.32338168685851       -6.65534723919334       -3.11021478221930
H           -0.15990734912811       -7.16324973172821       -1.84726295627306
116
 energy: -22.843046815217 gnorm: 0.375747501803 xtb: 6.6.1 (8d0f1dd)
C            0.24502249804780        0.54961916804654       -0.27358030366586
C           -0.34875940499660        1.56429908985756        0.44923044643661
C            0.14439555534299        1.79167136580577        1.75316741486174
C            1.34511014274103        1.13769031151205        2.28628589601291
C            1.91502475021869        0.12369794598703        1.49194441164416
C            1.30158283596070       -0.19428382572429        0.30335940459794
C           -0.52685263748930        2.67386880022323        2.67513179087477
C           -0.15778035126102        2.53704043461903        4.06592946543722
C            0.98385985461690        1.75893811851334        4.47590483903671
N            1.77023133082004        1.14641775550193        3.57488104705959
C           -1.32285958681257        3.86202420285250        2.55950930914195
C           -2.16813666973834        4.30327218517659        3.62224373278839
N           -2.04665394372545        3.91531881017236        4.84893023498613
C           -0.96662132798390        3.09639717180434        5.11703896048876
C           -0.59926888768751        2.88766915738898        6.43608149416735
C            0.54618309570261        2.14612614486828        6.76067942749318
C            1.33117043190121        1.54625939340318        5.82186097185345
C           -1.37096496012067        4.57590923309326        1.29453892730906
C           -2.51959679852017        5.30203416087591        1.04445554194232
C           -3.52638729792247        5.43786646964922        1.96164588854252
C           -3.34267608189633        5.05364004042536        3.25547844049151
O           -0.27455790847885        4.40962539808130        0.36873156369987
O           -1.32186884731804        2.34100064614403       -0.06427876730517
C            1.85786405554988       -1.44143621276944       -0.34924129891834
C           -4.74013124348008        6.25897421706275        1.63831432855245
H            2.92276957416439       -0.38408635404165        1.65050965599668
H            0.05352551788281        0.33033184085882       -1.31084053552010
H            2.26392075284771        1.03627532042429        6.12195763909480
H           -1.17357307817179        3.32763624301590        7.22014084931067
H           -4.16585496457015        4.99358572518685        3.86694968117284
H           -2.61775046182111        5.96450503371897        0.23036703146242
O            2.64137858738264       -2.20068134954661        0.20565787135992
O            1.33930518335478       -1.64960560531851       -1.67147133025043
C            1.30236203163212       -3.05781486088790       -2.06145696043671
C            0.95502081913993        2.19116192232301        8.16143888613215
O            2.01773028541992        2.69367515352661        8.56758762953977
O           -0.10126812461085        1.78712292848023        8.91004474146300
C            0.20051227491266        1.87942463881314       10.26154672810852
O           -4.60933143798105        6.92754684182928        0.66608429550169
O           -5.83676351280945        6.08902893499697        2.43788742215158
C           -6.88037015454447        6.96399615628458        2.02115141709743
C           -0.50661074827200        4.92609971158048       -0.91889568984085
C           -2.11949409583571        1.75515993005181       -1.03020553036532
H           -6.48347382887661        7.87876898811334        2.20952954704214
H           -7.58420593383455        6.61398409368256        2.72664686770248
H           -7.21677732552001        6.83395093546560        1.02260789740883
H            1.39469760536067        1.64872930673076       10.38392250870490
H           -0.40510710499558        1.20736797937723       10.84404192337023
H            0.07598166281244        2.94793875173012       10.57034570140411
H           -1.76041940759823        2.01315087633097       -1.96977243618354
H           -3.14718727119339        2.05020277342768       -0.81559161109770
H           -2.10904038171943        0.63082762020801       -1.04303037970923
H            0.17949042452314        4.63219938951035       -1.70426609595582
H           -0.44766523350844        5.96118074990536       -0.84697997339912
H           -1.60843770553929        4.66775169131375       -1.15432425905961
H            2.23246008041603       -3.21750696529581       -2.54706877938411
H            0.72760664173172       -3.31287210606821       -2.99496086478040
H            1.20693712876856       -3.79735797343958       -1.24484331065201
C           -0.16862211389366       -4.20062512642491        1.57870410980695
C           -0.29648868603184       -3.44423631659347        2.78962571463102
C           -1.29054316836814       -2.47250748806789        3.01093127799208
C           -2.18870532419051       -2.20119190753667        1.94804888482250
C           -2.11983949811716       -3.04853715432239        0.76036834835280
C           -1.07266575580921       -3.99442125033482        0.59191373140502
C           -1.37467798490300       -1.75082053625764        4.22148596775694
C           -2.15867704779803       -0.60979300691394        4.17818428567458
C           -2.80174754673206       -0.30092204261714        2.96147630844578
N           -2.84026216379859       -1.03207180403408        1.79695952491347
C           -1.08661929203202       -2.10465003728306        5.55762252139166
C           -1.00408117140372       -1.07558731153307        6.56050391254877
N           -1.68520509206254        0.09209376534459        6.48298921679847
C           -2.39115099921023        0.20308372151397        5.35143740760904
C           -3.50726589454001        1.15083116431571        5.36198505206584
C           -4.13323256829125        1.42685194424405        4.16046593919814
C           -3.61077925916407        0.85815378795217        2.98244571591677
C           -0.92217929520857       -3.47857869567307        5.93192304732945
C           -0.23608385847070       -3.74295510083465        7.12672307062343
C           -0.00683322518596       -2.69597406730019        8.04011977683304
C           -0.42602943857149       -1.36877299691218        7.79114184199715
O           -1.34240993023791       -4.50681269131831        5.03698764833587
O            0.89477984264564       -3.42284549321458        3.55411771999465
C           -0.95073006913230       -4.61294529388767       -0.71775912436715
C            0.61123602114680       -2.96881321855588        9.36060399420042
H           -2.98885409996991       -2.91237911592246        0.05057697657337
H            0.61211525560912       -4.90487251231303        1.45630529097191
H           -3.77926914470520        1.33160220453000        2.06917300609767
H           -3.77466737206778        1.55686719771255        6.25158531672444
H           -0.05368472455387       -0.58349005062012        8.37968505693936
H            0.35832832628856       -4.69876271449953        7.21006364559232
O           -0.10822183137989       -5.39564059501583       -1.06766849348455
O           -1.96716080678843       -4.13726092302631       -1.64287915418736
C           -2.02516964528459       -4.80925408756154       -2.85333751416880
C           -5.28514751459935        2.32749347191200        4.00206414486225
O           -5.72956305632140        3.02627220839387        4.92670694142758
O           -5.64944782041223        2.48633507509918        2.70885359736588
C           -6.59774823115240        3.46371064646927        2.37760764031087
O            0.94796425290636       -2.21866718508460       10.23361085782106
O            0.89374943939658       -4.31277816957229        9.55376748801165
C            1.72737206728628       -4.55338908862996       10.73602190320956
C           -0.93321430643972       -5.88349663523141        5.26740186432617
C            2.01008912013793       -3.21165733959478        2.70809855337788
H            2.47675894682124       -5.26880812067722       10.33387793496464
H            1.39377632478837       -4.98652679708746       11.65096044780611
H            2.40763654816793       -3.82629913018870       10.99086186390494
H           -7.54748229332288        3.11520263842117        2.92125681577764
H           -6.91301647986005        3.38358346767761        1.34102946144414
H           -6.13267274170508        4.39254459297432        2.39555955256778
H            1.72061093718089       -2.79822298326908        1.68256043154300
H            2.46783980946749       -4.21410444114254        2.51636664755017
H            2.67837744644190       -2.62616387001104        3.30237424864514
H           -1.24351722756735       -6.10349852171591        6.29578319154582
H            0.25380290770257       -5.84952251561785        5.26024051475956
H           -1.39575140424624       -6.68069739843937        4.68455490495520
H           -1.47986629700991       -4.33153985651300       -3.68816841723758
H           -3.11070741158732       -4.83809863082903       -2.97631465982552
H           -1.63636720659436       -5.86881904164929       -2.81216009211400
116
 energy: -22.870129517796 gnorm: 0.367790224853 xtb: 6.6.1 (8d0f1dd)
C           -0.08033461633121       -0.24368639182881        0.70685414598706
C           -0.83068502124486        0.73876329406627        1.33978391428184
C           -0.08649291265564        1.46128645230881        2.36947861423774
C            1.20799936455997        0.89865215923717        2.93675175325147
C            1.91448224670227       -0.06691422381336        2.19671515751825
C            1.30716250239337       -0.46270620318838        0.99865073515805
C           -0.63344530703513        2.49775573673097        3.22025774656293
C           -0.20498927484449        2.70658539802405        4.52836977656471
C            0.96264031452169        2.00981763350754        4.96881052285508
N            1.69928071383905        1.14834165079029        4.17886900928996
C           -1.47535790815956        3.52388691231707        2.63358511022494
C           -2.17647957309300        4.34575243282888        3.56946355437837
N           -2.08221917275846        4.21081321897850        4.88867635196833
C           -1.01262652241576        3.52986398433319        5.36388573253174
C           -0.81262333364473        3.36991354347477        6.75108587489050
C            0.27013129616677        2.58062034600147        7.17642230908973
C            1.20932167204908        2.02328918279041        6.31250631630483
C           -1.50073995604490        3.84414719304743        1.25747508138814
C           -2.63158497187634        4.60745279234255        0.75138870262342
C           -3.42002803490745        5.23523009152757        1.68432436956523
C           -3.13681248870317        5.19780014507233        3.04812881053242
O           -0.33960003492973        3.53201476047224        0.52775010449992
O           -2.19081292993983        1.05632367083530        1.00401290432912
C            2.15324044685377       -1.25380122415403        0.06438302122384
C           -4.47140550031890        6.20532554883715        1.12741990673305
H            2.91898166330281       -0.39358406077867        2.51965943514957
H           -0.47536184065194       -0.90553147513877       -0.09505389649432
H            1.79983269999843        1.20597427497663        6.76000078263292
H           -1.54999538270926        3.79639159496988        7.42483186579869
H           -3.87410252046034        5.62111351354565        3.69956236270047
H           -2.90762703052463        4.64788182119415       -0.32860447661662
O            3.13800984733361       -1.85247835432131        0.46970988633968
O            1.70058837092392       -1.32040874414627       -1.22826373290811
C            2.32147846085130       -2.11564253467570       -2.12698699460052
C            0.58135143600957        2.42467468871011        8.57180752817350
O            0.17750692801480        3.12400718750110        9.46577659892556
O            1.41678882077235        1.29353238962240        8.91326195364118
C            1.24975119315227        1.03489483488055       10.25228159417703
O           -4.67979934489608        6.21213701564858       -0.10598424623046
O           -5.08595631161249        6.99179251125952        2.07427719755061
C           -5.91743835594653        7.87223547266638        1.39947439529944
C           -0.02119922662978        4.22454034393743       -0.62626399342290
C           -2.47182568934446        0.70893284600612       -0.35869073051827
H           -5.38241513812006        8.43613030068292        0.59755077198487
H           -6.18610322119787        8.69194825887275        2.13493565565036
H           -6.85320761599648        7.28935109133720        1.04716327326437
H            0.22945709811710        0.88606707317015       10.55239515137724
H            1.70900670076112        1.96844824333676       10.66929304010623
H            1.95586629919908        0.16210025371711       10.48432920434813
H           -1.63581735213800        0.45217471579557       -0.97035076525562
H           -3.08676585248443        1.49482952348697       -0.96958870795771
H           -3.04911204281998       -0.23620897639073       -0.24533619747788
H            0.90255980525453        3.90204804807186       -1.15442449979602
H            0.14027312869219        5.23668593617988       -0.35081566473029
H           -0.83262491558681        4.38432924360613       -1.27883824788038
H            3.34018745301803       -2.38305710974369       -1.98511095723784
H            2.13247194758903       -1.78487732538791       -3.15724977599569
H            1.78525520961417       -3.09467470077091       -1.86363911690696
C           -0.33511789857910       -3.80622794492704        1.03907514126303
C           -0.41000262376153       -3.18704815868550        2.33114183580995
C           -1.61573305775913       -2.56575937892161        2.75091056242447
C           -2.63679784145322       -2.40054932233970        1.80578851919088
C           -2.53340853027746       -3.07911854635440        0.55463126610818
C           -1.41532578771191       -3.74995296980349        0.14550923949165
C           -1.69712993119744       -1.75756863244920        3.95469634061032
C           -2.58431815348564       -0.66392362516885        3.95021041974696
C           -3.60040293387875       -0.62463984699955        2.95131612407769
N           -3.68824268804859       -1.59900457184563        2.02374029887798
C           -1.06118689388403       -1.97713563357634        5.22078034796322
C           -1.13801370618921       -0.95920145802983        6.26403149644744
N           -1.99433952409410        0.05462865681296        6.19189311922707
C           -2.69797602132320        0.18681468786185        5.07593710005872
C           -3.62280582291793        1.25053367820229        4.99392729518043
C           -4.58573747987022        1.38114860772166        3.96320239334210
C           -4.59925655167333        0.38564380276736        2.94681624413949
C           -0.48400006216877       -3.36191600684098        5.65434317922772
C            0.32639678790762       -3.42915271688777        6.71338193093267
C            0.35106387670600       -2.40463540855980        7.71908384336169
C           -0.21142618058287       -1.13333574171185        7.38929166918053
O           -0.93396380505207       -4.59401658059623        5.04936993406626
O            0.67615658723990       -3.21228632135554        3.07409812700898
C           -1.28560541313014       -4.18705027793320       -1.25984330893683
C            1.21914829627604       -2.69152688666121        9.00104695164402
H           -3.31105229687737       -2.93467718316455       -0.19325209235051
H            0.61620518816696       -4.21735181498727        0.79921434463755
H           -5.29198473863348        0.54463251873170        2.14352235612559
H           -3.43836106114762        1.99348932254652        5.73273872869652
H            0.04973993143185       -0.41278787606626        8.07805124404060
H            0.76840812320912       -4.43965001409104        6.82882506591940
O           -0.19806195767662       -3.91962023299695       -1.75971746249631
O           -2.29585844860062       -4.70544943930877       -2.01827554067037
C           -1.87154362142478       -4.67202562891516       -3.38343115243692
C           -5.38940457197213        2.56877911072484        3.84935357417920
O           -5.20997987815968        3.55592412337827        4.50785016900017
O           -6.40477308584985        2.45886836488251        2.94692839893218
C           -7.17475810747380        3.65059034407056        2.84595165157152
O            1.21959270583454       -1.85379245038416        9.89676222993580
O            1.66457098952022       -3.99829035247856        9.07782354538100
C            2.29852558446158       -4.16503078694325       10.36702781785868
C           -0.75720253774343       -5.87968534554657        5.64519861787153
C            1.89516831647802       -3.74373489410302        2.48442429896387
H            1.93650091003116       -3.26636157499541       11.08892882858192
H            3.31398578528124       -4.31403934947603       10.22714456570257
H            1.65120566854795       -4.97256700298826       10.68983877399514
H           -7.41167216026983        4.33626635170203        3.69391604944061
H           -8.21414727775552        3.46743081533427        2.55551984410259
H           -6.74558239405903        4.15170337253543        1.97524621366015
H            2.17644989972607       -3.29440631270173        1.50148018389979
H            1.93531957532056       -4.79468717881994        2.36182660793706
H            2.58980851851681       -3.54501341158269        3.29331563215288
H           -0.13190238052916       -5.96163505161159        6.51035612660798
H           -0.27023844733935       -6.49228159358163        4.88892625981186
H           -1.87292857752051       -6.28226305029949        5.70904728299038
H           -2.74202148466594       -4.98862056249346       -3.98354944901293
H           -1.04624275922965       -5.36080566742392       -3.46811240322370
H           -1.65443565267491       -3.66830013710231       -3.55449347313732
116
 energy: -22.894291063333 gnorm: 0.352843572966 xtb: 6.6.1 (8d0f1dd)
C            0.16612273236501        0.04043512905308        0.22850169960968
C           -0.62327274944021        0.87773123491555        0.97696221430524
C           -0.16447063040017        1.24917755133950        2.25484611065600
C            1.06371853573771        0.68516214286527        2.74978956575615
C            1.81420168858433       -0.14785459439533        1.90589554883783
C            1.32334046079175       -0.58475848974554        0.70687152858120
C           -0.85819117614943        2.18622642459516        3.07937645696317
C           -0.45896300514151        2.29235414835869        4.49485668044922
C            0.71519954978826        1.59274114239625        4.92786282697081
N            1.34512124252183        0.73650257297524        4.05897603829434
C           -1.69207954629715        3.28714929287275        2.67181612648590
C           -2.45736085659763        3.98537303531531        3.68687628216837
N           -2.35983325647291        3.70739609064080        4.99045941680867
C           -1.36011675856748        2.94777235404180        5.44794623982239
C           -1.16731213930151        2.81398269698260        6.78808032286063
C           -0.08508538714478        2.06626976331636        7.17800626064465
C            0.82350253073476        1.55629959558916        6.31532216659833
C           -1.58940340084582        3.85859868310110        1.32866517283535
C           -2.49217706127238        4.87526414912692        0.96595813399791
C           -3.36740769591634        5.42892433005133        1.90515263812324
C           -3.30314878034463        4.97201444372051        3.21749565425921
O           -0.66889783872515        3.53231912349272        0.32347523179292
O           -1.85331565204155        1.29662943381362        0.45450457593505
C            2.16091604589980       -1.38698186984796       -0.12304411163693
C           -4.15433971179303        6.62483588519813        1.66020061020124
H            2.71167042615266       -0.58470143423247        2.27766516673205
H           -0.02895213545423       -0.05795277997171       -0.89341885315980
H            1.72974761612441        1.05792926186740        6.72400557949012
H           -1.82435757786785        3.22338506290045        7.52318732519773
H           -3.94116237183558        5.37053855124958        4.01576030070582
H           -2.43494775340135        5.40516759788280       -0.03830461475438
O            3.21259266099164       -1.83326284058535        0.32620801550092