116
 energy: -22.928061455056 gnorm: 0.329736929581 xtb: 6.6.1 (8d0f1dd)
C           -3.31122850772930        0.79849766164622       -0.92477639677520
C           -2.44380812530352       -0.12270372891954       -0.27661132624697
C           -1.41337090092821        0.39579727573559        0.56335275196199
C           -0.89266158675590        1.65801491088749        0.27377586709581
C           -1.72665675402493        2.51431363229076       -0.49448366572522
C           -2.95444148494349        2.13954154133227       -1.01494489940871
C           -0.74098268209890       -0.43411532818871        1.49825021926784
C            0.56872586496315        0.03782116815119        1.86248088067890
C            1.03782416582094        1.29402317993033        1.50887470833621
N            0.31238977034758        2.07067427098208        0.65193736800696
C           -1.29695700510141       -1.39996043042223        2.41574187746061
C           -0.38243517664656       -2.18060797534842        3.13232615520648
N            0.91308504082021       -1.90366887689689        3.30325166013478
C            1.37712470144904       -0.74872102533751        2.81811050966982
C            2.52149331701875       -0.17739833758153        3.39379298866852
C            2.95849061756259        1.02681208890480        2.95105897606587
C            2.24288949469137        1.78498308775960        2.03503020483770
C           -2.74860936222260       -1.74497937691422        2.38401158947411
C           -3.09416315450955       -2.91614440870436        3.00571134491758
C           -2.16786021984049       -3.77788778654213        3.63251872101904
C           -0.85708937311598       -3.40495313382985        3.68547234358092
O           -3.71994433332149       -0.94984598373544        1.67726658385724
O           -2.55702603277562       -1.47241711578389       -0.57241635275616
C           -3.84297843593025        3.13357444054366       -1.60938954875544
C           -2.68769581069131       -5.03867041417370        4.30484659386931
H           -1.39666850744143        3.51251503834900       -0.76806311868865
H           -4.27662633836220        0.55105838579656       -1.33106614114542
H            2.66329581305412        2.73912661909249        1.72562431984580
H            3.05775395548473       -0.69369546277216        4.16536137542516
H           -0.24710966264510       -4.12034095424229        4.22946223699121
H           -4.11477991332403       -3.04712728052358        3.03244694615357
O           -4.21824883374556        4.03433712717988       -0.87713382485991
O           -4.44510595673734        2.90643496899600       -2.81853501752979
C           -5.44216520282800        3.83300025693726       -3.02488532025093
C            4.23586651889298        1.50004220933226        3.59165660008449
O            5.05927614697201        0.66079890002952        3.91714215179376
O            4.47001334453535        2.86385149488593        3.72605651435371
C            5.79457498613219        3.08584475587818        4.15829123132174
O           -3.82227255313510       -5.27347675879771        4.16636005494405
O           -1.85023202017753       -5.79767454267276        5.06656077253571
C           -2.55119635829503       -6.86252441382958        5.62930343183426
C           -5.07197156564436       -1.42399175670916        1.58830531863830
C           -1.33089900128490       -2.23622472573986       -0.99264499351172
H           -2.54510546830388       -7.76426885143998        4.99136022291012
H           -3.57194749219491       -6.44405511486021        5.74196173723541
H           -2.09133598235598       -7.02043774843818        6.64022264233588
H            5.72707967266424        3.46798026205549        5.10135971236643
H            6.34060091246885        3.78468702308830        3.50069950143490
H            6.17933064298187        2.03010500085905        4.19342358084693
H           -0.91862729772622       -2.57650129080332       -0.01361370304871
H           -0.49769766914251       -1.60651221708571       -1.34094446550576
H           -1.52632419730509       -2.94569707152159       -1.75361447637286
H           -5.11788846557077       -2.41810833635233        1.17520213188926
H           -5.67929807973498       -0.69619639428435        1.04301666067831
H           -5.57598832326623       -1.42383358739762        2.57928294206544
H           -6.13050215934830        3.76035386975488       -2.23272855695873
H           -5.86615610071888        3.45938329385866       -4.02668959924245
H           -5.13479557532099        4.87790991548477       -2.98314551356402
C           -1.38192942069774        3.73616555005018        2.91232598411686
C           -1.84821468128685        2.59982427735607        3.49755545445181
C           -1.05946531454833        2.05730632010638        4.60922730982276
C            0.19893954712228        2.69376791964407        4.86302140881997
C            0.50425395911860        3.94630308659851        4.28768785650746
C           -0.26031777722226        4.46998310053134        3.25072669343212
C           -1.20488993561782        0.74454293276906        5.14851520323437
C           -0.06287609782692        0.02744069315890        5.60930570802864
C            1.19208754369866        0.71421540266195        5.78882868583885
N            1.19428660993148        2.06344359410476        5.62744624321596
C           -2.41361422770794        0.07928500213936        5.25249410304426
C           -2.45851584031083       -1.32662100968547        5.60237876023992
N           -1.29466212405906       -1.98318595734370        5.89916817085159
C           -0.14475655767527       -1.32117560077092        5.98824682881008
C            0.97209270935794       -1.98958449505532        6.53157704134458
C            2.21982707914082       -1.36973967291181        6.68703967237737
C            2.30561929262884       -0.09745313075593        6.26436900324455
C           -3.73018485967715        0.71367583494582        5.25810242262992
C           -4.89964478833448       -0.06184623426677        5.21204641615509
C           -4.82617965800088       -1.39228978090841        5.46901303780036
C           -3.67144193418464       -1.98914944386360        5.67265433266067
O           -3.75568638935321        2.07705011038914        5.52067969627343
O           -2.94192434743730        1.91263938797883        3.01658762327703
C            0.21273512614467        5.50086066357994        2.34765104514621
C           -6.06660304520411       -2.17604633098929        5.80641622556876
H            1.41756699010566        4.38133362238595        4.66974005703471
H           -1.82880610647429        4.11982501512100        2.06992133318584
H            3.26888037378556        0.32655662585251        6.31721410015598
H            0.87146188387207       -3.08471526305024        6.57830423410869
H           -3.67716811065157       -3.05999292755990        5.83019634570050
H           -5.77379677507622        0.43595144608221        4.71017130754348
O            1.34459852619901        5.82615848916894        2.44941456579099
O           -0.74718748219123        6.07961784856304        1.59848183464284
C           -0.21473095568964        7.24015934882472        1.05753806029483
C            3.53228080814219       -2.00967610361154        7.02506769044485
O            3.64093082622715       -3.14437803815732        7.50071391725347
O            4.56565258381079       -1.22937033368332        6.69086985080897
C            5.72579357310716       -1.80692399125161        7.22246151275881
O           -7.04801223588612       -1.95726935745904        5.14194115322235
O           -6.01514389321278       -2.93743591896022        6.94765316328794
C           -7.21292732384718       -3.62681918543340        7.15115816329978
C           -4.95459780685163        2.65960679932188        5.86868674392943
C           -3.68284113682406        2.59129188358641        2.05479246020704
H           -7.43119628931628       -4.22607794725959        6.20622607140901
H           -8.06548455146707       -2.91765848248592        7.29781126410398
H           -7.07314693247270       -4.33087306029711        7.91223421050944
H            6.57332189837178       -1.29353136199234        6.78341268688262
H            5.74663761932316       -2.84282155125561        6.88089468184451
H            5.69426191474290       -1.72781984964892        8.29460302186842
H           -4.10481209541493        3.44288266176275        2.60483747673152
H           -4.49244774344916        1.87419893016926        1.82433103764650
H           -3.18901540870812        2.85154642679373        1.06781919454921
H           -5.55414326821421        2.76698137191684        4.93950725322359
H           -4.78658370641210        3.62090640967288        6.25983200635257
H           -5.43485580473958        1.97242995129449        6.65265772412460
H            0.89164886030839        7.38838561720231        1.13776105146914
H           -0.62894889903848        8.04195665205089        1.64837664327952
H           -0.59282546386754        7.45699159724320        0.03719083132488
116
 energy: -22.864896204686 gnorm: 0.378289798687 xtb: 6.6.1 (8d0f1dd)
C           -2.88608110453602        0.69482416276064       -1.17140955281818
C           -2.49821923198356       -0.16337998423020       -0.12824923682677
C           -1.62518508006981        0.34631031150881        0.88194824512706
C           -1.02845161552629        1.68224697979469        0.73179459255934
C           -1.48425720510301        2.44030572953517       -0.33622075290764
C           -2.34934136217322        1.98083269572466       -1.27838098464553
C           -1.05012318349478       -0.38034034817191        2.01864999846910
C            0.23525915964164       -0.09566680128798        2.47986937933053
C            0.79084684440000        1.09605872024493        1.97208157952061
N            0.11991945588562        2.11677384512504        1.42862272899985
C           -1.69524481929356       -1.52778296271551        2.60842885825229
C           -0.84991599760870       -2.46464793939855        3.39705176956036
N            0.43009235705398       -2.24145961248608        3.58251875611271
C            1.00762803165605       -1.09435036850940        3.14626863050016
C            2.43462824689199       -0.98574243057797        3.16819379157142
C            3.00010454871865        0.15972252631815        2.64637061558758
C            2.15920202753483        1.21589838192916        2.25782425904517
C           -3.12427221373950       -1.83484877726287        2.47205699655240
C           -3.61390806623693       -3.04111588953994        3.02812275138376
C           -2.66556370988566       -3.99549084851958        3.53095306774681
C           -1.35179865684368       -3.68693983166429        3.73640875178435
O           -4.00664107268818       -0.93420956397966        1.83786304855925
O           -2.86334846483318       -1.56504655834267       -0.20273425511977
C           -2.59947846870256        2.76730051706768       -2.56178069382630
C           -3.16110031252910       -5.33369138712803        3.96814231702396
H           -1.15118648501845        3.49776895266241       -0.50575607178301
H           -3.36461262257542        0.24031066698706       -2.09556774821703
H            2.55980320839221        2.17866012999874        2.00133650444328
H            3.02481168523790       -1.83536750781047        3.59798049436385
H           -0.62611733031916       -4.33460752291997        4.16080419322370
H           -4.62806960363151       -3.16502872933252        3.37685029098429
O           -2.13139256969390        3.87406362887774       -2.63594767478419
O           -3.26331634715015        2.16835976242417       -3.58293182904241
C           -3.26999107653118        3.03940685644894       -4.68441568323370
C            4.50920738656547        0.30470324525865        2.80247763409634
O            5.22116536929145       -0.56139926332262        2.30605380666814
O            4.97459920631685        1.44719400801215        3.42974818510433
C            6.35939316642283        1.68256706114819        3.37046494895060
O           -4.13689073319634       -5.89892714726924        3.52520126507923
O           -2.53186662021159       -5.82137372970602        5.07640622724050
C           -2.94747596735689       -7.11032449666549        5.43992510985913
C           -5.29994904178755       -1.31447095401508        1.65826154445652
C           -1.83136587796294       -2.44441251457274       -0.35382895523989
H           -3.87630863948428       -7.43317541270558        5.45102658525468
H           -2.70298220705146       -7.03634705441352        6.49081605997908
H           -2.28270817949926       -7.83887882619072        5.06320443499581
H            6.64472437596430        1.72877977768207        2.29092166898650
H            6.81191084890724        0.78097819183066        3.71648494224211
H            6.62517393439970        2.51610361039179        4.02480902133713
H           -1.30629290410052       -2.18023905442564       -1.21357060858464
H           -2.34756214361831       -3.37715364520005       -0.29529084026682
H           -1.11632669850898       -2.33624712660113        0.45174262415682
H           -5.34783223332754       -2.36861865294884        1.27454365893865
H           -5.90299350322152       -0.54392917154407        1.16468403321040
H           -5.78337104920008       -1.30961103213735        2.58615925433330
H           -3.44318872955914        2.27750895858750       -5.43419346503613
H           -2.31831613430347        3.51936907198123       -4.76344959292963
H           -4.15540200985998        3.70522297905805       -4.92982552167563
C           -2.10298171248295        4.08111995271590        3.51860258889068
C           -2.17308339484488        2.80817709557146        4.04750933055595
C           -1.13048232392295        2.45629781765423        4.97271391547999
C           -0.02254824988773        3.21283392900018        5.21597704677649
C           -0.02285551859146        4.46758152996670        4.75888478566124
C           -1.09896573691409        4.96909534997073        3.91527431393813
C           -1.12668500766268        1.16538341011881        5.53391647412223
C            0.11511170888298        0.57232220658839        5.83653103973576
C            1.20790984297042        1.38376383945356        5.89926163893481
N            1.14163311675338        2.77520035131078        5.82898266181279
C           -2.29568476251155        0.38212894047198        5.92034576695715
C           -2.10592330381274       -0.97521075872744        6.06909422699578
N           -0.89802644532068       -1.64499209232089        6.14722551040612
C            0.22903551718858       -0.83881545134448        6.04239156306790
C            1.47287498297156       -1.33198809863997        6.32522205504866
C            2.57283161869176       -0.55681394118103        6.38268318235760
C            2.39915376861785        0.78944153270146        6.19595405691497
C           -3.57076726418807        1.02952585414671        6.22906154783841
C           -4.72241605904653        0.19654350462664        6.10370784019791
C           -4.60844907250914       -1.16889998837191        5.92662147538361
C           -3.33114638203050       -1.72830336322505        6.05253891283497
O           -3.58830620323510        2.37315230187077        6.76780400057556
O           -2.94125481744700        1.87944529878493        3.34934006404269
C           -0.93456011454398        6.16587792875700        3.17573376876366
C           -5.82199407368435       -1.97416582243500        5.65029897731689
H            0.83789495432385        5.08297122717614        4.92172438681447
H           -2.80845793165248        4.26607349095046        2.70633355638675
H            3.28624602694810        1.35804377487883        6.07596330902527
H            1.69022649292675       -2.36225775960333        6.71141436165338
H           -3.24381889310481       -2.80092165985655        5.98944654023656
H           -5.83858296801503        0.51659583733514        5.98662219085855
O           -0.16640231099433        7.09189121822466        3.53179329192213
O           -1.76375169414936        6.23681413682153        2.15923674391159
C           -1.63873987630867        7.46956754753314        1.43986638467517
C            3.84517652379395       -1.24176840111487        6.53568774693030
O            3.95742214155791       -2.49501349088181        6.55935178491998
O            4.86186707004501       -0.32910673493055        6.70097270571588
C            6.04566929460281       -1.04257859377154        6.55977966192105
O           -6.90363466479984       -1.48275123520949        5.98786541686712
O           -5.55549273366775       -3.15758208652687        5.08762258768400
C           -6.76657029474499       -3.83453597544785        5.03539233350969
C           -4.78223546398462        3.03746598641314        6.84942675074651
C           -4.20493255899010        2.12042494486158        2.74293671352673
H           -7.50499843257489       -3.11651683498465        4.95188051774313
H           -6.86041912667493       -4.22069396543762        6.06838725459583
H           -6.81696264557131       -4.54385426230248        4.23710645915504
H            6.91047225821489       -0.65333761186231        7.09367372173462
H            6.39437643484080       -1.04773323674148        5.48592678422289
H            5.83181674963347       -2.05382567074885        6.88468537206115
H           -5.05158581108482        2.29247119063209        3.45506602462079
H           -4.42190044687872        1.08665787558537        2.36699447845686
H           -4.20783388769251        2.91055895813668        1.96925765271050
H           -5.20907198593287        3.19679263922249        5.86138345503239
H           -4.69954151431281        4.08921039963134        7.26635729969055
H           -5.27028196061100        2.43603233594075        7.60935210500671
H           -2.51032096993258        8.14414349643063        1.57516076968916
H           -1.56761017231108        7.17746651444112        0.38328434105833
H           -0.74225055305264        8.07909175184217        1.82308903405897
116
 energy: -22.876654026814 gnorm: 0.365751271118 xtb: 6.6.1 (8d0f1dd)
C           -2.68189142102151        0.45431324324424       -1.77574591627716
C           -2.23254916891733       -0.55334689001222       -0.89167426467817
C           -1.25401720626627       -0.27179494676191        0.07889169243572
C           -0.60225753125825        1.00868941134424       -0.04982242600890
C           -1.01319080246551        1.92770586316989       -1.00090612084083
C           -2.13903294774403        1.70043121631929       -1.83559996918508
C           -0.93542429906195       -0.92985842441115        1.30344138842819
C            0.38252365468936       -0.68017707388867        1.81272462164606
C            1.14552359690065        0.46448483506273        1.42396055473173
N            0.57522168030030        1.29552535781103        0.57621946125170
C           -1.73712197522475       -1.85235990178801        2.10838219056539
C           -0.93364472351514       -2.82340504417304        2.85797559742562
N            0.42594970103082       -2.75435240864876        3.07389030872621
C            1.02716641751006       -1.60592488370653        2.69823303242848
C            2.35313543924274       -1.32855465895692        3.15684709018638
C            3.00391651764787       -0.18704848986452        2.79345705385296
C            2.41546595365687        0.74912720635641        2.02037603100832
C           -3.13786768880327       -1.94629916516863        2.08961958493146
C           -3.75890605816989       -2.99311337915946        2.77898549863734
C           -3.00344335975031       -4.05952400296259        3.18274149852936
C           -1.61976301742145       -3.92998186698805        3.21358556347096
O           -3.81949500302152       -1.04164270865724        1.25892178653025
O           -2.86707109574700       -1.77979657309240       -1.10271376193675
C           -2.66940795394819        2.88333387511141       -2.48842681579433
C           -3.70945233431857       -5.37564910585164        3.49690401138832
H           -0.44592161479758        2.91467401167900       -0.93299098721377
H           -3.48447099709015        0.24487667732448       -2.54973681152696
H            2.98799205383716        1.50044800651575        1.55982855432356
H            2.89778956481737       -2.01404647285012        3.88062266736747
H           -1.14634546330802       -4.66790420536044        3.79654451942258
H           -4.81213038781062       -3.04655184240187        2.93170932795582
O           -2.21073415858311        3.97179340843067       -2.28391841101648
O           -3.75503041266070        2.67022223990450       -3.32015664253960
C           -4.23905744683299        3.97100306101815       -3.81514494739757
C            4.26601099994253        0.11304700896618        3.54273888176770
O            4.56544146925479       -0.69243955610366        4.42544941300559
O            4.96635299345483        1.15345248034704        3.07753932047396
C            6.25698808483909        1.18240166560106        3.74676379376993
O           -4.78760206438775       -5.64241486924387        2.94693027400953
O           -3.04154761937702       -6.09491461582407        4.45388401730709
C           -3.66611635308087       -7.39228931979102        4.60211074091133
C           -5.20280185551202       -1.23690868285620        1.18631209696209
C           -1.97950888335465       -2.96419790698759       -1.01801835390781
H           -3.40721514607861       -7.73146427755458        5.65075733631361
H           -3.23866306388526       -8.11622996265181        3.89457714326650
H           -4.73618767188528       -7.52482162410118        4.39892989017684
H            6.67236402688164        0.20618390024870        3.82981284522549
H            6.16509641992202        1.61015213593753        4.75370381957216
H            6.86414511672595        2.04429137517952        3.26569849739537
H           -2.05163015707870       -3.30448443483725        0.02985728248923
H           -0.90853714314045       -2.70066757789648       -1.22464196632468
H           -2.42420380590287       -3.77137310112122       -1.63896075460130
H           -5.30003182653123       -1.96166992458961        0.38630599778664
H           -5.66801330653073       -0.31626130195906        0.65631109263990
H           -5.70236404017693       -1.36453720525271        2.13844463291104
H           -5.11900262928802        3.79217021741965       -4.36436408931074
H           -3.44528697404577        4.43762521182829       -4.51323211014858
H           -4.41951504241969        4.82434173957566       -3.16969395409535
C           -2.16914495588012        4.25291179297296        3.33787744534416
C           -2.12057526952904        2.91033553668132        3.71032039668316
C           -1.02934110030363        2.43777270221098        4.62932205140934
C            0.16371764867393        3.20112553998257        4.69246387194283
C            0.05478692268866        4.57738588735047        4.21736929102317
C           -1.02728750654715        5.09094993023349        3.54502600000459
C           -0.98244240008674        1.20617373849405        5.26095576736757
C            0.22904288457409        0.72611986942159        5.75876442886031
C            1.35835586423057        1.58718090341748        5.70912688443967
N            1.31832016432751        2.85580643817762        5.26371804175243
C           -2.03474896964135        0.45717205120801        5.85765563358162
C           -1.84574267580621       -0.97655960976048        6.09477708805318
N           -0.69422250196888       -1.50696000220061        6.27571146712889
C            0.33742201165605       -0.64772883825826        6.29283852729879
C            1.53532396641657       -1.05814675213045        6.81453461873446
C            2.58796802186243       -0.12195790334963        6.92239560397866
C            2.44703704963023        1.18211098485422        6.47091756531272
C           -3.29595755640775        1.04794660394852        6.07613901495173
C           -4.33487402933561        0.17290259301644        6.35463125421072
C           -4.31752946141798       -1.12519639593260        6.21499260971654
C           -3.06409451961655       -1.70663155064533        6.06641297328112
O           -3.40415957576569        2.41635259098984        6.04899801792604
O           -3.03651939135082        1.95840972215804        3.25016738053817
C           -1.04372747127687        6.53611368516272        3.05073041578638
C           -5.54322668218088       -2.06239471706686        6.43501852370034
H            0.90362487970370        5.11250499854699        4.56064669625596
H           -3.12758226514951        4.76525672741203        3.04224018746653
H            3.26406268408959        1.85246563082524        6.58001298618544
H            1.69840970164799       -2.14087108682859        7.13981370916075
H           -3.08829824618988       -2.76512493465009        6.20232462273196
H           -5.31816339415939        0.58259204719068        6.54478598073787
O           -0.18029685254600        6.89013912549532        2.28144018731061
O           -2.19203115985080        7.30744706285921        3.46226775787258
C           -2.20064536521945        8.36847168216218        2.56505890368382
C            3.88069052321496       -0.53442628591545        7.55534526304032
O            3.92592443004766       -1.54714448608538        8.21120233053863
O            4.90795276717898        0.36349754823721        7.25459989421930
C            6.06619627654783       -0.15139826047380        7.77640407618821
O           -6.64345498370885       -1.49725088425583        6.60784461259744
O           -5.14477539249370       -3.41250626347490        6.19366169530551
C           -6.08734621640837       -4.34761834351265        6.53920467901450
C           -4.45188534047076        2.80550777912123        6.86974586362326
C           -4.12530671673805        2.53222242727152        2.57971852181516
H           -6.99544270934312       -3.89808792047957        7.07483622675398
H           -5.62310037412692       -4.85521734388915        7.40129085170125
H           -6.46404292638249       -5.05245533548661        5.72637988888543
H            6.73624954422673        0.66162881955600        7.93649777612012
H            6.55286516390336       -0.90163640586527        7.17865187987941
H            5.82303131210179       -0.64897604729479        8.73048285294640
H           -4.84074423191923        3.04309160464134        3.22090571182620
H           -4.63037197536350        1.77119915625168        1.99815116937157
H           -3.67201317905571        3.06540819164773        1.72399352079817
H           -5.39908067654051        2.66595824115861        6.28974699956477
H           -4.42339932579632        3.85047765656717        7.07417784770958
H           -4.30527688524603        2.24323755885269        7.82256834512534
H           -2.60108528262858        7.96375297442041        1.67684557102985
H           -1.13327921035010        8.62873178190586        2.36321270885249
H           -2.71621038797592        9.24813866252696        2.96528984863542
116
 energy: -22.907332486478 gnorm: 0.347990554513 xtb: 6.6.1 (8d0f1dd)
C           -2.98998939197122        0.32661865972622       -1.36815570234302
C           -2.47313761573169       -0.71677452249094       -0.59551923078800
C           -1.50301299373946       -0.36675974573650        0.45856487838847
C           -0.73805142485794        0.89560303243794        0.36092222451579
C           -1.24612698673362        1.82531927737066       -0.53419194087273
C           -2.35914518469687        1.62211084221793       -1.28117094162508
C           -1.16788787732765       -1.10370167691315        1.59799283535463
C            0.07579154630215       -0.95917599923389        2.18035824801320
C            0.82633698455550        0.16663832517766        1.74378684097997
N            0.39526377054919        1.16680868359764        0.98689519848171
C           -1.88420834341612       -2.28024033722162        2.05657447123555
C           -1.21304129999245       -3.20534055978297        2.90297372125214
N           -0.04718115176755       -3.07169355024832        3.50099691166994
C            0.63014824885755       -1.94829873866543        3.08841739104932
C            1.88003203077966       -1.61032050466565        3.62913898885097
C            2.59646110490880       -0.47936700155231        3.27551808294763
C            2.05763857657076        0.34373323882933        2.33185854102516
C           -3.34494282290168       -2.40214558114415        1.94897427610755
C           -3.92000352570200       -3.57829421013637        2.30422618095339
C           -3.26254446201245       -4.59583597771865        2.92065782919335
C           -1.96078074379635       -4.40722205194876        3.32274894903987
O           -4.03444837202487       -1.23776947709588        1.64514079209171
O           -2.74466743146986       -2.00905587522064       -1.00111526885143
C           -2.89058132967704        2.88608090026771       -1.84782220105313
C           -3.99904438247743       -5.81267542930795        3.48093783140134
H           -0.78045795413157        2.83486717397596       -0.54292021590272
H           -3.83097273334879        0.29750814255312       -2.14898999468329
H            2.50764752628360        1.28820582361477        2.19012485160589
H            2.33452009982963       -2.41665546968267        4.23618628847620
H           -1.55066847111965       -5.04907346745152        4.05115046462603
H           -4.99419848066730       -3.72376857823004        2.22927494672098
O           -2.08706448797273        3.77446291061796       -2.09856819016219