116
 energy: -22.928061455056 gnorm: 0.329736929581 xtb: 6.6.1 (8d0f1dd)
C           -3.31122850772930        0.79849766164622       -0.92477639677520
C           -2.44380812530352       -0.12270372891954       -0.27661132624697
C           -1.41337090092821        0.39579727573559        0.56335275196199
C           -0.89266158675590        1.65801491088749        0.27377586709581
C           -1.72665675402493        2.51431363229076       -0.49448366572522
C           -2.95444148494349        2.13954154133227       -1.01494489940871
C           -0.74098268209890       -0.43411532818871        1.49825021926784
C            0.56872586496315        0.03782116815119        1.86248088067890
C            1.03782416582094        1.29402317993033        1.50887470833621
N            0.31238977034758        2.07067427098208        0.65193736800696
C           -1.29695700510141       -1.39996043042223        2.41574187746061
C           -0.38243517664656       -2.18060797534842        3.13232615520648
N            0.91308504082021       -1.90366887689689        3.30325166013478
C            1.37712470144904       -0.74872102533751        2.81811050966982
C            2.52149331701875       -0.17739833758153        3.39379298866852
C            2.95849061756259        1.02681208890480        2.95105897606587
C            2.24288949469137        1.78498308775960        2.03503020483770
C           -2.74860936222260       -1.74497937691422        2.38401158947411
C           -3.09416315450955       -2.91614440870436        3.00571134491758
C           -2.16786021984049       -3.77788778654213        3.63251872101904
C           -0.85708937311598       -3.40495313382985        3.68547234358092
O           -3.71994433332149       -0.94984598373544        1.67726658385724
O           -2.55702603277562       -1.47241711578389       -0.57241635275616
C           -3.84297843593025        3.13357444054366       -1.60938954875544
C           -2.68769581069131       -5.03867041417370        4.30484659386931
H           -1.39666850744143        3.51251503834900       -0.76806311868865
H           -4.27662633836220        0.55105838579656       -1.33106614114542
H            2.66329581305412        2.73912661909249        1.72562431984580
H            3.05775395548473       -0.69369546277216        4.16536137542516
H           -0.24710966264510       -4.12034095424229        4.22946223699121
H           -4.11477991332403       -3.04712728052358        3.03244694615357
O           -4.21824883374556        4.03433712717988       -0.87713382485991
O           -4.44510595673734        2.90643496899600       -2.81853501752979
C           -5.44216520282800        3.83300025693726       -3.02488532025093
C            4.23586651889298        1.50004220933226        3.59165660008449
O            5.05927614697201        0.66079890002952        3.91714215179376
O            4.47001334453535        2.86385149488593        3.72605651435371
C            5.79457498613219        3.08584475587818        4.15829123132174
O           -3.82227255313510       -5.27347675879771        4.16636005494405
O           -1.85023202017753       -5.79767454267276        5.06656077253571
C           -2.55119635829503       -6.86252441382958        5.62930343183426
C           -5.07197156564436       -1.42399175670916        1.58830531863830
C           -1.33089900128490       -2.23622472573986       -0.99264499351172
H           -2.54510546830388       -7.76426885143998        4.99136022291012
H           -3.57194749219491       -6.44405511486021        5.74196173723541
H           -2.09133598235598       -7.02043774843818        6.64022264233588
H            5.72707967266424        3.46798026205549        5.10135971236643
H            6.34060091246885        3.78468702308830        3.50069950143490
H            6.17933064298187        2.03010500085905        4.19342358084693
H           -0.91862729772622       -2.57650129080332       -0.01361370304871
H           -0.49769766914251       -1.60651221708571       -1.34094446550576
H           -1.52632419730509       -2.94569707152159       -1.75361447637286
H           -5.11788846557077       -2.41810833635233        1.17520213188926
H           -5.67929807973498       -0.69619639428435        1.04301666067831
H           -5.57598832326623       -1.42383358739762        2.57928294206544
H           -6.13050215934830        3.76035386975488       -2.23272855695873
H           -5.86615610071888        3.45938329385866       -4.02668959924245
H           -5.13479557532099        4.87790991548477       -2.98314551356402
C           -1.38192942069774        3.73616555005018        2.91232598411686
C           -1.84821468128685        2.59982427735607        3.49755545445181
C           -1.05946531454833        2.05730632010638        4.60922730982276
C            0.19893954712228        2.69376791964407        4.86302140881997
C            0.50425395911860        3.94630308659851        4.28768785650746
C           -0.26031777722226        4.46998310053134        3.25072669343212
C           -1.20488993561782        0.74454293276906        5.14851520323437
C           -0.06287609782692        0.02744069315890        5.60930570802864
C            1.19208754369866        0.71421540266195        5.78882868583885
N            1.19428660993148        2.06344359410476        5.62744624321596
C           -2.41361422770794        0.07928500213936        5.25249410304426
C           -2.45851584031083       -1.32662100968547        5.60237876023992
N           -1.29466212405906       -1.98318595734370        5.89916817085159
C           -0.14475655767527       -1.32117560077092        5.98824682881008
C            0.97209270935794       -1.98958449505532        6.53157704134458
C            2.21982707914082       -1.36973967291181        6.68703967237737
C            2.30561929262884       -0.09745313075593        6.26436900324455
C           -3.73018485967715        0.71367583494582        5.25810242262992
C           -4.89964478833448       -0.06184623426677        5.21204641615509
C           -4.82617965800088       -1.39228978090841        5.46901303780036
C           -3.67144193418464       -1.98914944386360        5.67265433266067
O           -3.75568638935321        2.07705011038914        5.52067969627343
O           -2.94192434743730        1.91263938797883        3.01658762327703
C            0.21273512614467        5.50086066357994        2.34765104514621
C           -6.06660304520411       -2.17604633098929        5.80641622556876
H            1.41756699010566        4.38133362238595        4.66974005703471
H           -1.82880610647429        4.11982501512100        2.06992133318584
H            3.26888037378556        0.32655662585251        6.31721410015598
H            0.87146188387207       -3.08471526305024        6.57830423410869
H           -3.67716811065157       -3.05999292755990        5.83019634570050
H           -5.77379677507622        0.43595144608221        4.71017130754348
O            1.34459852619901        5.82615848916894        2.44941456579099
O           -0.74718748219123        6.07961784856304        1.59848183464284
C           -0.21473095568964        7.24015934882472        1.05753806029483
C            3.53228080814219       -2.00967610361154        7.02506769044485
O            3.64093082622715       -3.14437803815732        7.50071391725347
O            4.56565258381079       -1.22937033368332        6.69086985080897
C            5.72579357310716       -1.80692399125161        7.22246151275881
O           -7.04801223588612       -1.95726935745904        5.14194115322235
O           -6.01514389321278       -2.93743591896022        6.94765316328794
C           -7.21292732384718       -3.62681918543340        7.15115816329978
C           -4.95459780685163        2.65960679932188        5.86868674392943
C           -3.68284113682406        2.59129188358641        2.05479246020704
H           -7.43119628931628       -4.22607794725959        6.20622607140901
H           -8.06548455146707       -2.91765848248592        7.29781126410398
H           -7.07314693247270       -4.33087306029711        7.91223421050944
H            6.57332189837178       -1.29353136199234        6.78341268688262
H            5.74663761932316       -2.84282155125561        6.88089468184451
H            5.69426191474290       -1.72781984964892        8.29460302186842
H           -4.10481209541493        3.44288266176275        2.60483747673152
H           -4.49244774344916        1.87419893016926        1.82433103764650
H           -3.18901540870812        2.85154642679373        1.06781919454921
H           -5.55414326821421        2.76698137191684        4.93950725322359
H           -4.78658370641210        3.62090640967288        6.25983200635257
H           -5.43485580473958        1.97242995129449        6.65265772412460
H            0.89164886030839        7.38838561720231        1.13776105146914
H           -0.62894889903848        8.04195665205089        1.64837664327952
H           -0.59282546386754        7.45699159724320        0.03719083132488
116
 energy: -22.798057118875 gnorm: 0.454210841944 xtb: 6.6.1 (8d0f1dd)
C           -2.89031467912238        0.82369993048603       -1.24480104802329
C           -2.37889170304376        0.10831851037757       -0.14659545190876
C           -1.41633461046665        0.62242377012939        0.78292282774657
C           -1.08406436437731        1.98673272080967        0.56977621375137
C           -1.67779531228672        2.77931304282591       -0.50732763224491
C           -2.50050962774599        2.19964637161078       -1.43881128841968
C           -0.92394712744685       -0.01815533571003        2.02238301563574
C            0.32733933958701        0.38312045179289        2.22159954321188
C            0.86015895066932        1.61831964041956        1.75764703123280
N            0.09188175819731        2.48060927063884        1.09138921635633
C           -1.40090790671486       -1.24069424654703        2.67159799521964
C           -0.41601800672167       -2.07261211522233        3.30314399863088
N            0.83625887118686       -1.65841253031624        3.46138324041462
C            1.17699258412651       -0.47119504179701        2.96784537731938
C            2.47400923649295       -0.08003653806075        3.19799701599321
C            2.91137412278523        1.10549673104901        2.63598269005768
C            2.14939378234224        1.95108822779800        1.85848989761933
C           -2.74278882204824       -1.66998146794434        2.52674119253239
C           -2.95559009502035       -3.03009360076074        2.83007601563441
C           -2.02906901895990       -3.73605433159225        3.56324849920948
C           -0.79626710175711       -3.20896529226031        3.86200364513342
O           -3.70024330139815       -0.71735680250264        2.09892357480335
O           -2.63692196108498       -1.31268241111588       -0.09872515249844
C           -3.24996053533647        2.97611872489223       -2.53280403597737
C           -2.29043651411414       -5.10058839699455        4.13291963873005
H           -1.45554847478321        3.80174579994544       -0.56461652007980
H           -3.59891113345123        0.43635575904390       -1.91418001122048
H            2.60174341516795        2.77270506097161        1.30802332921861
H            3.11893678998217       -0.58456159728313        3.73719019239690
H           -0.09392284686906       -3.80693034555420        4.26060159767375
H           -3.96038969806804       -3.51851741592217        2.58135972361654
O           -2.96245835906144        4.08418047224468       -2.82384622753235
O           -4.49335253720282        2.44085254248150       -2.90254100167310
C           -4.85163540237118        2.93556361906737       -4.19954977804215
C            4.39310723319064        1.32987276479296        2.98761551258247
O            5.13394384602514        0.67149301226393        3.69588879661917
O            4.97731545977316        2.31833756887357        2.13538052082716
C            6.38414072774315        2.21064432946161        2.04403486064625
O           -3.42333126264310       -5.40412364359638        4.47108841730721
O           -1.17176574647913       -5.85184082861398        4.36504415875896
C           -1.54726662546928       -7.09866469813163        4.78317329604794
C           -4.93267910985813       -1.24766099686014        1.65147688933936
C           -1.65954558161286       -1.95733877603434       -0.84724849692953
H           -0.77448757816876       -7.87229565967972        4.63954508998757
H           -2.57796159695830       -7.36537850883599        4.35360888225200
H           -1.58016279427202       -7.02951327799453        5.87861474926237
H            6.53473095515886        1.48158210094366        1.19141513922080
H            6.90604415954617        1.71887640602158        2.85693766628473
H            6.72320595915031        3.09976207243515        1.61982774710463
H           -0.71609190399509       -1.41079000310986       -0.77572694390261
H           -2.03645397905455       -2.08444654935081       -1.89619493689584
H           -1.43274104408039       -2.92666995041496       -0.45341080771465
H           -4.90196120258486       -2.05489087929906        0.88828535921055
H           -5.49422971917765       -0.53297480037394        1.19390424761674
H           -5.46530776269849       -1.69254449507855        2.43203433272834
H           -5.93650843095687        3.06977620122319       -4.34282891961368
H           -4.58082952450076        2.09610916134053       -4.86205698057234
H           -4.09413805100532        3.62988906769639       -4.48071475746729
C           -1.95597846584698        3.90521546267066        3.79345171014810
C           -2.09262660531338        2.59802785397601        4.30026561713675
C           -1.07582413012600        2.10300960235041        5.14792452821442
C            0.25689534190692        2.59350066471879        5.02669687160535
C            0.44932806769692        3.76148397011891        4.34473923554707
C           -0.68129162408020        4.53425836269091        3.77512975097305
C           -1.27959035853321        0.81332982791024        5.73448514673233
C           -0.12388192064282        0.01080412045294        5.99919455455542
C            1.14564430368615        0.56606103952653        5.94509135051758
N            1.36968418118644        1.85001226982955        5.50428963854305
C           -2.66087614509446        0.27414861260800        6.02631356933836
C           -2.63723059172636       -1.12453812687388        6.24864640530255
N           -1.56842423723917       -1.86260826363727        6.51606793834099
C           -0.30530752370485       -1.27234885683164        6.50962995342940
C            0.85821817874387       -1.96264748555891        7.00212852443126
C            2.07052903795551       -1.39206499541696        7.04526460283375
C            2.26416485749256       -0.13995839663289        6.46178833803965
C           -3.91339251745435        1.02728757104735        6.29062337331146
C           -5.18970238235471        0.41075440447250        6.02051756783335
C           -5.14361465132645       -0.99863868814955        5.91738905177201
C           -3.94611832865625       -1.72198762801624        6.20189120760539
O           -3.76117167871394        2.08618396912030        7.12872867895099
O           -3.16376725639039        1.77262755700933        3.87428644345787
C           -0.40224607655760        5.66654292774487        2.86113666342509
C           -6.35857414956252       -1.73931859971267        5.44766494231130
H            1.35938172189090        4.16347680023696        4.19931349623862
H           -2.80319282069800        4.36993299088568        3.26688423775295
H            3.26493039112485        0.10348173622290        6.33113914449751
H            0.90962125280238       -2.99519216034813        7.34369648555808
H           -3.98774682537883       -2.80426600191598        6.08398890497265
H           -6.10046516136803        0.86139586327602        6.48018556058308
O            0.77129201386751        6.07864503023281        2.77337764521108
O           -1.39289047019677        5.91244044072313        1.85850072593358
C           -0.94126769834544        6.81479507424217        0.86294834531980
C            3.33491728956710       -2.09329007664711        7.39648571430661
O            3.32440478671117       -3.34238075349785        7.44708266913803
O            4.40515985278387       -1.27919197112428        7.34784475289745
C            5.54755550270928       -2.05412187459255        7.57045455815723
O           -7.51017358251416       -1.33032699423514        5.18178303239225
O           -6.13856419344377       -3.06904342030943        5.29969895173589
C           -7.07684566092221       -3.78933975784471        4.62339981064927
C           -4.63131896209703        3.22075868316487        7.05470066791894
C           -3.98561539133373        2.04273999652461        2.81639752757344
H           -6.50468448227526       -4.32845975989601        3.91021042465740
H           -7.73061047651024       -3.18920733498924        3.98321434753692
H           -7.66865370052208       -4.42049469096725        5.44531746939274
H            6.36083310314328       -1.57438600957489        6.99066643084208
H            5.52937953902522       -3.03965570893007        7.25937415075105
H            5.74040731766243       -2.04563914535102        8.61232860078045
H           -4.57016955124654        2.85649766143248        2.70442162372795
H           -4.61698771521031        1.05265811676508        2.66107418070526
H           -3.33816894857206        2.22285878300545        2.00029639182476
H           -5.00472607018494        3.45952436424597        6.02060154139022
H           -3.84397589227406        4.05750688845421        7.31462640045654
H           -5.39136728933485        3.12604456262926        7.81874811697409
H            0.04025261581029        7.22278324803971        1.07801454215992
H           -1.40808016688317        7.74063093847222        0.92564185054165
H           -0.88204807062744        6.51868396688501       -0.21038805363188
116
 energy: -22.861371112473 gnorm: 0.396110575332 xtb: 6.6.1 (8d0f1dd)
C           -2.94874130064207        0.62479293506966       -1.36201256255306
C           -2.15693744257875       -0.26733011036079       -0.59156344042707
C           -1.23468040513457        0.30126356661510        0.27528794632811
C           -0.91953436455670        1.67801025658887        0.29468857464949
C           -1.80094943043567        2.52701281493519       -0.48930663049176
C           -2.78829307062605        1.98876820409063       -1.25089396933759
C           -0.53131240567374       -0.46890407879319        1.26056417130058
C            0.55388991321095        0.15740747280580        1.86629504039728
C            0.92429052809381        1.48892622851385        1.52486332223310
N            0.14684389546885        2.33037715771770        0.83301262457892
C           -0.99924445780267       -1.64345010390304        1.94097632646318
C           -0.11485831230807       -2.35352680327993        2.84023183551053
N            1.10862405726100       -1.87976871533806        3.11611314711238
C            1.42165421323521       -0.59338178205428        2.73733493427430
C            2.62462446915301       -0.00245358415027        3.10407260881239
C            3.00200249888305        1.24495802468729        2.73430521812303
C            2.11526940169019        2.04125252132134        2.01155336697473
C           -2.44190840793162       -1.83317406233205        2.19305489754117
C           -2.92990452941733       -2.88393274696893        2.90147986062155
C           -2.05198599348532       -3.64575877262092        3.56974054965214
C           -0.66330747053720       -3.47874049649515        3.54146385386395
O           -3.48797536419802       -1.15050429024518        1.51774875659000
O           -2.27688673049047       -1.63760815983846       -0.99321210147319
C           -3.59360335101370        2.93998139226841       -1.98590257738077
C           -2.53270687539820       -4.68346760329246        4.55008170759964
H           -1.81104204798232        3.57757812154874       -0.32570647490337
H           -3.71998977122479        0.26538623078807       -2.00855445861361
H            2.27447290417971        3.02878015695969        1.66597225425833
H            3.33911625471945       -0.64417715618405        3.70495202684480
H           -0.01635684565258       -4.07398205839293        4.06238933252560
H           -3.97399285698977       -3.12703007686598        2.91499818764559
O           -3.60982932814319        4.08318454012219       -1.56743582345684
O           -4.28298044577636        2.39768678331819       -2.99565956261912
C           -5.12818398546659        3.36338542044853       -3.59087702264456
C            4.32646055815613        1.74536395566448        3.06119483979600
O            5.24227387597210        1.00591297507240        3.38617254857966
O            4.32103759998675        3.10801806340148        3.03211489908639
C            5.63921967049702        3.55922013176620        3.20960782471050
O           -3.62954827137186       -4.53247136623741        5.13948995857932
O           -1.76672705419491       -5.78877512991963        4.54930199356890
C           -2.08779672317326       -6.70321789727339        5.53317457426470
C           -4.62210822147731       -0.92998070269254        2.42976718308588
C           -1.06073057099539       -2.19133826774415       -1.36766667330694
H           -2.04978038588971       -6.32650871047555        6.55539862845086
H           -1.50080519124879       -7.60490508693667        5.31440692696301
H           -3.10984892294043       -7.04778329521324        5.33825688378826
H            5.94636565646742        3.18557960335381        4.16409759185566
H            5.57595003372851        4.73469614954374        3.22624770403807
H            6.23204826690647        3.09412989849833        2.49996871003049
H           -0.48472592944253       -1.51869991882476       -2.08479399247189
H           -1.28002711795486       -3.15656018399140       -1.92504430571518
H           -0.48083631714079       -2.34713444069087       -0.42404113164201
H           -4.95742340878218       -1.80381613945104        2.87448356486992
H           -5.51365561393726       -0.62630269961833        1.92833228646529
H           -4.56396777663539       -0.22441443963675        3.23856152352494
H           -5.44857058491811        3.01523994038278       -4.64700940322033
H           -4.73922759247730        4.35052900765835       -3.64336565729988
H           -6.11947693158970        3.30817496130999       -3.06421840715324
C           -1.62956414875132        3.69890719920332        3.17633275679526
C           -1.96244356170625        2.43538689865517        3.57081425941750
C           -0.99801524309706        1.76563261271874        4.51701169892231
C            0.28860085981064        2.24915526541967        4.72259968571328
C            0.64942580467456        3.46314362980892        4.00982384813435
C           -0.29471875412462        4.18763013193502        3.25606563742713
C           -1.33834358049470        0.68506719424450        5.34015365937463
C           -0.30593134847498       -0.08959978901460        5.86424794878382
C            0.99780131129379        0.42339106122462        5.67315066029641
N            1.30558005349821        1.64815585274363        5.31510589590923
C           -2.63188620873556        0.16524214441978        5.67514295459168
C           -2.72139147714883       -1.20797422953599        6.00248787404886
N           -1.72993491563581       -1.96287071064521        6.36094173412116
C           -0.45673864697975       -1.45326042073882        6.30803515312839
C            0.51710067139903       -2.12611091111657        6.98841112685828
C            1.79321417513636       -1.48269210280789        7.06549873435094
C            1.97394420320286       -0.36595364641392        6.31608801659858
C           -3.87331379390411        0.86262611364395        5.80216739672863
C           -5.07104189455982        0.19854197895076        5.84127095820757
C           -5.16523236703601       -1.16524706523574        6.02823588362151
C           -3.95743454984526       -1.82578926237363        6.21028372420504
O           -3.81795011572534        2.28874813093463        5.87155366013001
O           -3.14155872088745        1.64516452158997        3.22456512349982
C            0.14342675287565        5.48402980630005        2.68048243560019
C           -6.43647507531836       -2.04588137144421        5.92893356555674
H            1.57069944673811        3.82235811871819        4.18243523141823
H           -2.33591940878016        4.41992736789792        2.80736613506635
H            2.88705284963058        0.06064127304377        6.29204863294959
H            0.40379784120484       -3.17659237933101        7.32013938016758
H           -3.81046234007755       -2.90409231211643        6.36260966175964
H           -6.00642296343697        0.70905411955528        5.63578298797444
O            1.29794089786770        5.81212557751992        2.92251504834486
O           -0.81707637493824        6.06544416222457        1.90270295672377
C           -0.36672402046076        7.32788936751281        1.52162045723928
C            3.05775181120021       -2.07586001889550        7.48670513624386
O            3.19071469724661       -3.19033900867434        7.98714290760837
O            4.18496492992740       -1.19751213013149        7.24168562800921
C            5.29600992262789       -1.83929700500827        7.87022497273518
O           -7.18372870525541       -2.07351790707184        6.87450268049808
O           -6.37069733891620       -2.96189415017113        4.87929987717870
C           -7.47811487710008       -3.83621922248101        4.68766233862208
C           -4.37917833916645        2.91259118787257        7.08345417143015
C           -3.81821281848415        2.23448526270555        2.11977114707968
H           -8.14106088670137       -3.44607754882232        3.80760219138307
H           -8.17205332725343       -3.55928570949492        5.47440485454989
H           -7.18289289681869       -4.85651398898634        4.75719004830587
H            6.13490613251008       -1.06960975540842        7.91643729993442
H            5.69327149160099       -2.56410127400286        7.14061540988522
H            5.04935083690160       -2.37863262374974        8.84460217469672
H           -3.90156451174853        3.24688454133669        2.42513317525892
H           -4.80552612138007        1.80391799950593        1.95389729967958
H           -3.31430099812876        2.24863579499387        1.21040933059223
H           -5.48827825935215        2.68568933657659        6.98408248345284
H           -4.06859027856971        3.98076242902272        7.35755318689459
H           -4.00083845437299        2.29748442118111        7.99065911922084
H            0.34169857075684        7.26884621843721        0.71846217419156
H            0.32158404835725        7.60222459893359        2.37903536970014
H           -1.09572482090280        8.21441457377060        1.36793344405302
116
 energy: -22.889276226674 gnorm: 0.354813685483 xtb: 6.6.1 (8d0f1dd)
C           -3.33816661249472        0.40579684863272       -0.98207991220432
C           -2.49958740047704       -0.43580281947414       -0.23439781224323
C           -1.43337527918191        0.05957908667599        0.61606068964671
C           -1.09475554430732        1.42108466424204        0.27080358304955
C           -1.89333268095991        2.24419801697516       -0.51105796733735
C           -3.13031485717991        1.78892094118311       -1.01763571067084
C           -0.69989706561223       -0.64838824576608        1.64649937119434
C            0.60839172236358       -0.08806274544457        1.91717606467388
C            0.87368550791467        1.27444680545830        1.54682707768021
N           -0.06373185518724        2.05595670418550        0.88535003124522
C           -0.89644526277166       -1.98575112902411        2.15698591051090
C            0.23905038433743       -2.62115950353077        2.75132063984920
N            1.46343068949242       -2.09116171651465        2.99121270958885
C            1.66465501757857       -0.79573515528298        2.61405165996644
C            2.80685850640510       -0.11958501665687        3.11688884738857
C            3.14318943228689        1.16814958794525        2.82016262041063
C            2.18889779578589        1.74984590149336        1.97238589854173
C           -2.21664778827901       -2.53819693591707        2.34879106701733
C           -2.39976311132599       -3.76943791391656        2.86803777613527
C           -1.26072495166637       -4.49234838180307        3.33272163861815
C            0.03133705861291       -3.93815912209113        3.23624810129797
O           -3.32177696744843       -1.75978444335622        2.16843811013053
O           -2.50144042759381       -1.81002171636994       -0.48261653575830
C           -4.06043498687123        2.81200136293960       -1.45245509589661
C           -1.54712485480529       -5.76060773028898        3.98078789042217
H           -1.65178581080906        3.31001390272333       -0.53776883637736
H           -4.08622022517106       -0.06721707599875       -1.57081299763614
H            2.38374968168886        2.72354042939347        1.74491874068945
H            3.45660290584037       -0.74962880653538        3.84376722852016
H            0.85395500807507       -4.46969075044929        3.67521819480086
H           -3.38166857745160       -4.08376812965707        2.97236761521520
O           -3.79456536143177        3.96061750512130       -1.70605330051640