156
 energy: -253.994975835362 gnorm: 0.139506865080 xtb: 6.7.1 (edcfbbe)
C            0.98750000000000        3.04840000000000       -4.15840000000000
C            2.29470000000000       -3.47850000000000       -0.90930000000000
C           -3.50960000000000        1.72820000000000       -2.33440000000000
C           -2.69830000000000        0.62690000000000       -2.08990000000000
C           -1.27320000000000        0.81750000000000       -2.10970000000000
C           -0.76140000000000        1.97860000000000       -2.75420000000000
C           -1.62100000000000        3.05660000000000       -2.95800000000000
C           -2.97330000000000        2.95100000000000       -2.70650000000000
C           -0.34320000000000       -0.16930000000000       -1.62570000000000
C            0.92900000000000       -0.22560000000000       -2.25000000000000
C            1.35960000000000        0.83600000000000       -3.09290000000000
N            0.54210000000000        1.95900000000000       -3.26750000000000
C           -0.61210000000000       -1.07140000000000       -0.53960000000000
C            0.20750000000000       -2.22170000000000       -0.38050000000000
N            1.37500000000000       -2.35070000000000       -1.14860000000000
C            1.76520000000000       -1.35500000000000       -2.05020000000000
C            2.95840000000000       -1.43120000000000       -2.75990000000000
C            3.38040000000000       -0.40030000000000       -3.57790000000000
C            2.59590000000000        0.72710000000000       -3.71770000000000
C           -1.60620000000000       -0.79290000000000        0.45620000000000
C           -1.85610000000000       -1.74100000000000        1.43960000000000
C           -1.15270000000000       -2.93000000000000        1.49670000000000
C           -0.13100000000000       -3.15740000000000        0.59820000000000
O           -2.24740000000000        0.45000000000000        0.48400000000000
O           -3.20490000000000       -0.65740000000000       -1.88970000000000
C           -3.84200000000000        4.13180000000000       -2.89210000000000
C           -1.46020000000000       -3.90760000000000        2.56440000000000
C            4.67070000000000       -0.48430000000000       -4.29600000000000
O            4.96300000000000        0.37230000000000       -5.11010000000000
O            5.47180000000000       -1.55040000000000       -3.98930000000000
C            6.62960000000000       -1.49210000000000       -4.75820000000000
O           -3.35520000000000        5.18130000000000       -3.27090000000000
O           -5.16940000000000        3.96100000000000       -2.61160000000000
C           -5.83710000000000        5.16790000000000       -2.78700000000000
O           -2.42150000000000       -3.72290000000000        3.28770000000000
O           -0.62220000000000       -4.98240000000000        2.68110000000000
C           -1.04560000000000       -5.78360000000000        3.73860000000000
H           -4.57500000000000        1.65490000000000       -2.22890000000000
H           -1.25100000000000        4.00430000000000       -3.30160000000000
H           -2.54100000000000       -1.52740000000000        2.23920000000000
H            0.39870000000000       -4.08610000000000        0.68140000000000
H            3.58940000000000       -2.29540000000000       -2.68730000000000
H            2.98340000000000        1.51760000000000       -4.33100000000000
C            2.07340000000000       -4.61830000000000       -1.88990000000000
C            3.02990000000000       -5.77650000000000       -1.66590000000000
C            1.81620000000000        4.08250000000000       -3.41520000000000
C            2.37230000000000        5.16120000000000       -4.32810000000000
C           -3.59360000000000        0.39690000000000        0.89940000000000
C           -4.53180000000000       -0.84450000000000       -2.32500000000000
H           -6.89750000000000        5.02810000000000       -2.56750000000000
H           -5.70620000000000        5.49860000000000       -3.82010000000000
H           -5.40740000000000        5.90910000000000       -2.10860000000000
H           -0.39320000000000       -6.65500000000000        3.82000000000000
H           -2.07450000000000       -6.09990000000000        3.55330000000000
H           -1.00710000000000       -5.20110000000000        4.66220000000000
H            7.27420000000000       -2.33700000000000       -4.50810000000000
H            7.14540000000000       -0.55140000000000       -4.55140000000000
H            6.35430000000000       -1.53060000000000       -5.81470000000000
H            2.18310000000000       -3.83090000000000        0.11420000000000
H            3.32490000000000       -3.11520000000000       -0.94720000000000
H            2.16740000000000       -4.23700000000000       -2.91430000000000
H            1.03340000000000       -4.95960000000000       -1.81170000000000
H            4.06730000000000       -5.45610000000000       -1.77420000000000
H            2.86100000000000       -6.59030000000000       -2.37380000000000
H            2.92260000000000       -6.18700000000000       -0.66060000000000
H           -4.05890000000000        1.36130000000000        0.69180000000000
H           -3.65310000000000        0.19020000000000        1.96450000000000
H           -4.10770000000000       -0.38720000000000        0.34390000000000
H           -4.76140000000000       -1.90960000000000       -2.27940000000000
H           -4.63210000000000       -0.50180000000000       -3.35570000000000
H           -5.22400000000000       -0.30540000000000       -1.67810000000000
H            2.96310000000000        5.89730000000000       -3.77960000000000
H            1.57060000000000        5.69660000000000       -4.83910000000000
H            3.01560000000000        4.73170000000000       -5.09770000000000
H            2.63110000000000        3.57370000000000       -2.88430000000000
H            1.19790000000000        4.52970000000000       -2.62780000000000
H            0.12050000000000        3.51200000000000       -4.63470000000000
H            1.54830000000000        2.62370000000000       -4.99410000000000
C            0.36630000000000        3.26200000000000        0.69250000000000
C            2.67440000000000       -3.01960000000000        3.93600000000000
C           -3.44330000000000        2.05800000000000        3.76790000000000
C           -2.58330000000000        0.96850000000000        3.83530000000000
C           -1.23030000000000        1.13210000000000        3.37340000000000
C           -0.93710000000000        2.24340000000000        2.53750000000000
C           -1.84870000000000        3.29660000000000        2.48760000000000
C           -3.06930000000000        3.22740000000000        3.12640000000000
C           -0.20710000000000        0.15240000000000        3.61080000000000
C            0.88490000000000        0.08940000000000        2.70750000000000
C            1.07590000000000        1.12070000000000        1.74670000000000
N            0.18900000000000        2.20270000000000        1.70520000000000
C           -0.25080000000000       -0.78970000000000        4.69390000000000
C            0.54490000000000       -1.96390000000000        4.60920000000000
N            1.61390000000000       -2.01560000000000        3.70730000000000
C            1.79410000000000       -1.00430000000000        2.75850000000000
C            2.83980000000000       -1.04880000000000        1.84650000000000
C            3.03250000000000       -0.04010000000000        0.92350000000000
C            2.16280000000000        1.03200000000000        0.88530000000000
C           -0.99890000000000       -0.56880000000000        5.90370000000000
C           -1.23140000000000       -1.65670000000000        6.73860000000000
C           -0.64070000000000       -2.88740000000000        6.50040000000000
C            0.28760000000000       -3.01160000000000        5.48840000000000
O           -1.39590000000000        0.72790000000000        6.21850000000000
O           -3.00910000000000       -0.30680000000000        4.20210000000000
C           -4.00560000000000        4.36670000000000        3.03020000000000
C           -0.96970000000000       -4.05430000000000        7.34650000000000
C            4.16590000000000       -0.09820000000000       -0.02190000000000
O            4.36230000000000        0.83310000000000       -0.78090000000000
O            4.93460000000000       -1.22990000000000        0.02180000000000
C            5.94370000000000       -1.14230000000000       -0.93070000000000
O           -3.64180000000000        5.40090000000000        2.50140000000000
O           -5.25610000000000        4.17220000000000        3.54850000000000
C           -6.01380000000000        5.32450000000000        3.36950000000000
O           -1.60110000000000       -3.89940000000000        8.37510000000000
O           -0.53380000000000       -5.26900000000000        6.88970000000000
C           -0.93920000000000       -6.26480000000000        7.77190000000000
H           -4.43800000000000        1.99740000000000        4.16600000000000
H           -1.62590000000000        4.19750000000000        1.94800000000000
H           -1.87590000000000       -1.56970000000000        7.59260000000000
H            0.78760000000000       -3.95420000000000        5.37300000000000
H            3.52020000000000       -1.87810000000000        1.83000000000000
H            2.36760000000000        1.79920000000000        0.16420000000000
C            2.46350000000000       -4.29080000000000        3.13110000000000
C            3.43780000000000       -5.39530000000000        3.50020000000000
C            1.18210000000000        4.42230000000000        1.24210000000000
C            1.38810000000000        5.54000000000000        0.23570000000000
C           -2.01370000000000        0.87640000000000        7.47290000000000
C           -4.32310000000000       -0.40040000000000        4.69420000000000
H           -7.01340000000000        5.16640000000000        3.77950000000000
H           -6.07610000000000        5.54410000000000        2.30100000000000
H           -5.52300000000000        6.15390000000000        3.88400000000000
H           -0.51820000000000       -6.05670000000000        8.75820000000000
H           -0.58860000000000       -7.23370000000000        7.41090000000000
H           -2.03010000000000       -6.25940000000000        7.83340000000000
H            6.60550000000000       -2.00570000000000       -0.83980000000000
H            6.50410000000000       -0.21780000000000       -0.77330000000000
H            5.48460000000000       -1.12680000000000       -1.92050000000000
H            2.71110000000000       -3.24620000000000        5.00500000000000
H            3.64940000000000       -2.57460000000000        3.72200000000000
H            2.54550000000000       -4.05520000000000        2.06640000000000
H            1.43050000000000       -4.63310000000000        3.26320000000000
H            4.47010000000000       -5.07750000000000        3.34590000000000
H            3.27770000000000       -6.29710000000000        2.90610000000000
H            3.33870000000000       -5.67240000000000        4.55090000000000
H           -2.23860000000000        1.93330000000000        7.62100000000000
H           -1.33690000000000        0.54190000000000        8.26020000000000
H           -2.94450000000000        0.30930000000000        7.49900000000000
H           -4.49210000000000       -1.43430000000000        4.99930000000000
H           -5.03840000000000       -0.13810000000000        3.91410000000000
H           -4.44180000000000        0.25200000000000        5.55950000000000
H            1.91990000000000        6.38850000000000        0.67080000000000
H            0.43410000000000        5.90920000000000       -0.14410000000000
H            1.97030000000000        5.19610000000000       -0.61950000000000
H            2.14970000000000        4.04320000000000        1.59460000000000
H            0.68900000000000        4.80880000000000        2.14300000000000
H           -0.61580000000000        3.59690000000000        0.34870000000000
H            0.82580000000000        2.84420000000000       -0.20560000000000
156
 energy: -254.024479312643 gnorm: 0.062773673626 xtb: 6.7.1 (edcfbbe)
C            0.98394581852829        3.03712822866441       -4.14846101951820
C            2.28640830507230       -3.46792493923279       -0.91332069917840
C           -3.51102819654881        1.71709310664157       -2.33272664720396
C           -2.69112095225520        0.63144481763241       -2.08503344073604
C           -1.27402340875658        0.80375313148781       -2.12549968177155
C           -0.76363032491357        1.96065585853122       -2.77617987917742
C           -1.61053697349467        3.05028936909875       -2.96259281722721
C           -2.96800803916461        2.94487844893441       -2.69692231298307
C           -0.34641513225389       -0.16860004061012       -1.62544791472302
C            0.92839945309433       -0.22253132820041       -2.24439255641150
C            1.35435014377323        0.83629388544864       -3.09419786211671
N            0.54059458776116        1.95356154238690       -3.26526176843063
C           -0.60645292151980       -1.06287427370012       -0.53644756038712
C            0.22451882132253       -2.20710505327680       -0.37170094034212
N            1.37471364457374       -2.34612778637420       -1.14730088758624
C            1.76624045027618       -1.35186667676338       -2.03779586938890
C            2.95451432383056       -1.44191640475093       -2.75062773865417
C            3.37211703017919       -0.40225695578304       -3.57227690293678
C            2.59073467611045        0.73509057143527       -3.71608439882732
C           -1.60141371079962       -0.80151929192006        0.45122803616040
C           -1.84743008673327       -1.73204692185658        1.44230821685522
C           -1.14262463867509       -2.92676150895717        1.49137043302399
C           -0.11384439362710       -3.15698505027945        0.58968052152083
O           -2.24391130966125        0.42348477613224        0.45943158905233
O           -3.18960603374493       -0.64172085233385       -1.89239531221381
C           -3.81465520492770        4.13422122688982       -2.89009948594419
C           -1.47934443646250       -3.88586459578676        2.55899010713984
C            4.64782057012822       -0.46456430495827       -4.30846983645930
O            4.96112194798252        0.37950490348519       -5.11884183563490
O            5.44390062877992       -1.52705606566444       -4.01510923888955
C            6.63302391204712       -1.49311286738803       -4.76570073692154
O           -3.35344320576147        5.18864231560058       -3.27221826192924
O           -5.13261895550604        3.96671573984805       -2.61471567149546
C           -5.84043692967912        5.17030552068564       -2.78649966198884
O           -2.43088501276218       -3.72016230364116        3.29093028279554
O           -0.65461839083471       -4.95833452772619        2.67245236706214
C           -1.05238816788451       -5.79144614094929        3.73681475313909
H           -4.58029812619876        1.64471879930990       -2.23698754293110
H           -1.24486085059130        4.00326522899377       -3.30408878205295
H           -2.55205701907904       -1.53405611196487        2.23200145111479
H            0.40831094085892       -4.09245379816537        0.66995797213120
H            3.58587728941112       -2.30903141782273       -2.68678337652821
H            2.98608066836219        1.52274433083677       -4.33154671304766
C            2.06523537321950       -4.61474746102135       -1.89635839014702
C            3.02928145000314       -5.76940250346243       -1.66186810408677
C            1.81550065695773        4.07852774173387       -3.40518117751775
C            2.36651878220759        5.15417617601251       -4.33042878158961
C           -3.58961360897593        0.38777389155233        0.88885924710133
C           -4.51990381543621       -0.83947912544731       -2.32218594021265
H           -6.89316832934788        5.00178085800809       -2.56249713280531
H           -5.72545605413616        5.51846861203505       -3.81671191779208
H           -5.42956511517009        5.92957920785515       -2.11512894134695
H           -0.38156278715811       -6.64837435007530        3.79344822965791
H           -2.07931118742058       -6.12505008232753        3.57109212593672
H           -1.01769842563532       -5.22786891422204        4.67180252302700
H            7.25411770713252       -2.34550499735087       -4.49242413433020
H            7.16578110712207       -0.55976864114968       -4.56452770777773
H            6.38565038521672       -1.53146077289982       -5.82955991742070
H            2.16167696863863       -3.82416853643492        0.10882865051959
H            3.31634997174695       -3.10413473818568       -0.96233559508528
H            2.17553308750195       -4.23851251087775       -2.91810480180221
H            1.03222549908718       -4.96518508996957       -1.80416096914795
H            4.06350454833097       -5.44577147119971       -1.77521741880492
H            2.85323405386453       -6.57595360653154       -2.37230424020048
H            2.91559592380236       -6.17851590570981       -0.65836451508409
H           -4.03140117928932        1.36201766416516        0.67748007321816
H           -3.66334304976398        0.19540924806494        1.95506957248075
H           -4.12760899246896       -0.39289322417699        0.34957472204271
H           -4.72812002532747       -1.90854497613831       -2.26950056384570
H           -4.64106685280431       -0.50200060072564       -3.35548703606707
H           -5.23208426716372       -0.31286788255227       -1.68087194594848
H            2.95351946919598        5.88350653798569       -3.77386470222897
H            1.56223138624136        5.68886032819543       -4.83468169585458
H            3.01217406779948        4.72141023323629       -5.09377488673602
H            2.63912643797970        3.57236169106518       -2.89080880822522
H            1.19105195518450        4.53722163436379       -2.63249550878773
H            0.11128030274648        3.50361373973029       -4.61212364938242
H            1.55549449264416        2.61034199914656       -4.97690927036547
C            0.36344002799468        3.25167633971177        0.70477900472970
C            2.66330028622657       -3.00892089378913        3.93517477306825
C           -3.44358781503454        2.05038817589140        3.77361898067110
C           -2.57317630935179        0.97846365982483        3.84921475884907
C           -1.23475234899632        1.11980863948534        3.36420218006176
C           -0.94440289026074        2.22477666262892        2.51838243124714
C           -1.83891742170793        3.29151874138675        2.47959055628556
C           -3.06085352292564        3.22333815601851        3.13206491489658
C           -0.21279214780744        0.14882514783670        3.61213856586641
C            0.87888411283987        0.08628824146403        2.70789905626983
C            1.06647078683567        1.11901379665483        1.74547353705379
N            0.18659012647997        2.19569853417569        1.70692019525208
C           -0.24363778681463       -0.78264142174863        4.69803711584357
C            0.55789852256295       -1.95256401791747        4.61480492260455
N            1.61198352058451       -2.01060474797454        3.70839121364146
C            1.79043357493290       -1.00665740062454        2.76408588378380
C            2.83386324130911       -1.06327560949258        1.85251946447197
C            3.02241733784733       -0.04570738898723        0.92731481024658
C            2.15494978728337        1.03726711138991        0.88631098666507
C           -0.99898096094313       -0.57995892249039        5.89563044688842
C           -1.22667455330332       -1.65299627108460        6.73778468515818
C           -0.63996420942988       -2.88870779931571        6.48707169729289
C            0.29997435894595       -3.01295408182851        5.47505245200584
O           -1.40028243472267        0.70193494576079        6.20174918489107
O           -2.98787468169910       -0.28041249780938        4.23039202412096
C           -3.97648067048288        4.37176770933445        3.02709752170379
C           -0.97946364884657       -4.02858883253812        7.35351705337237
C            4.14532078537481       -0.07972249819140       -0.02399300927561
O            4.36460540727636        0.83688397687266       -0.78754398829207
O            4.91352238003089       -1.19798427213572        0.02538944679309
C            5.95171832032242       -1.14176057537914       -0.92356301080706
O           -3.64076196842502        5.40944332503254        2.49693501589172
O           -5.21997189876518        4.17963174252424        3.53724089062463
C           -6.01630883419246        5.32728514364798        3.37011297452948
O           -1.60958239321833       -3.89619043078670        8.38055671812866
O           -0.54181808083104       -5.23696832925874        6.91011501955353
C           -0.93970718477249       -6.26937594535704        7.77782122162582
H           -4.44218580106801        1.99328945050304        4.16957174241456
H           -1.62023042430828        4.19767831404157        1.94286747525633
H           -1.87054698097347       -1.57142389956433        7.59677732993370
H            0.80623288842693       -3.95495681945461        5.36695888782019
H            3.52195193621867       -1.88847801972908        1.83640668096915
H            2.36892562300481        1.80336330175147        0.16282358815877
C            2.46082695800453       -4.28724536572967        3.12734748652626
C            3.44104066038093       -5.38775889248646        3.50521670180710
C            1.18400020611157        4.41849090711384        1.25299043420180
C            1.38466684051189        5.53236879054884        0.23555887215200
C           -2.01156623670111        0.87126722745536        7.46086071449351
C           -4.31097234023727       -0.39606324576780        4.70073633413594
H           -7.00569618816493        5.14135178111172        3.78655001664155
H           -6.09475128916087        5.56448488261121        2.30541172290014
H           -5.54613594818434        6.17284575399833        3.87960940442935
H           -0.52799673922443       -6.08359632994516        8.77326831761682
H           -0.57699690953482       -7.22128565767139        7.39155296672538
H           -2.03062757484478       -6.28387763396398        7.84872746905957
H            6.59360260923395       -2.01462048471842       -0.81004905025508
H            6.52939890333395       -0.22484391517048       -0.78315082867576
H            5.51725407697432       -1.12793705523448       -1.92282751700433
H            2.68950637606857       -3.24066178802975        5.00446231499943
H            3.63505611578940       -2.56135319983855        3.70727245136968
H            2.56027326610793       -4.05359127092456        2.06518257846855
H            1.43722414207740       -4.63764073751661        3.26733556655608
H            4.47062292907573       -5.06900509734666        3.34592914994608
H            3.27162383077980       -6.28212241907197        2.90651815929117
H            3.33425674022778       -5.66484971192326        4.55342659706470
H           -2.22375883968933        1.93363569091509        7.58671979056620
H           -1.34328747132900        0.54468801901703        8.26301650795797
H           -2.95039862459669        0.31400444185549        7.51436222726102
H           -4.45886576130758       -1.43618017152580        4.99262477329698
H           -5.03573296510621       -0.14222877715303        3.92007145112445
H           -4.46289691371553        0.24983407292680        5.56860005049672
H            1.91477208230044        6.37408382898577        0.67940423657251
H            0.42952662394607        5.90048860526159       -0.13770087661356
H            1.97093796319190        5.18578897733996       -0.61389681345346
H            2.15633171714173        4.04165460615415        1.58692656040328
H            0.68262017403615        4.81522305189992        2.14137068761363
H           -0.62091556728075        3.59014164719878        0.37012928588601
H            0.83502837138509        2.83150227251512       -0.18626891157757
156
 energy: -254.036726846175 gnorm: 0.016706759464 xtb: 6.7.1 (edcfbbe)
C            0.97990674801848        3.02414258965837       -4.13913685379458
C            2.28061837763053       -3.45504714462217       -0.91637112930612
C           -3.51275889687115        1.71307057584801       -2.33774909950561
C           -2.68675817330699        0.63574867285934       -2.09250760233101
C           -1.27380001624562        0.79307321094526       -2.13865018617786
C           -0.76298617890570        1.94771957513535       -2.79003501358865
C           -1.60122195881544        3.04455203385976       -2.96533922552994
C           -2.96208979507959        2.94370674915051       -2.69115532950830
C           -0.34820380921613       -0.16859895502692       -1.62560441965280
C            0.93070924828940       -0.21939363298230       -2.23903985961822
C            1.35272176688080        0.83726252676340       -3.09176487285022
N            0.54074245305733        1.94895116880682       -3.25935216112979
C           -0.60002033990033       -1.05559501856780       -0.53242620952889
C            0.23875020069193       -2.19567577371314       -0.36221548322964
N            1.37492705882250       -2.34042218636335       -1.14618259405410
C            1.76972104500540       -1.34754107480307       -2.02949638783988
C            2.95329008914563       -1.44830848623256       -2.74951429586728
C            3.36490010228180       -0.40332813026438       -3.57213140724481
C            2.58810978364271        0.74091116372338       -3.71352786428932
C           -1.59845793956912       -0.80753587067080        0.44705175924029
C           -1.84443305410953       -1.72756199092876        1.44248495520742
C           -1.13651563827026       -2.92392696992597        1.48981602948192
C           -0.10248783789726       -3.15532323392797        0.58792632563923
O           -2.24655385005266        0.39899079867209        0.42980956600425
O           -3.17707719800638       -0.62802285177590       -1.89983569954132
C           -3.78410507238536        4.14451005591798       -2.89012806358638
C           -1.50284856687572       -3.86468316702528        2.55782299478806
C            4.62623241193701       -0.44088135562885       -4.32712683505232
O            4.95470981603592        0.39631544258218       -5.13478320264526
O            5.41830650408589       -1.50298393761970       -4.04793725120754
C            6.63619785332990       -1.49492344979974       -4.77647541278123
O           -3.33953193930881        5.20375289277831       -3.27345190743851
O           -5.09506445219342        3.98121857608150       -2.61619397644996
C           -5.84499927288829        5.17452131698626       -2.78523633281139
O           -2.44988456646539       -3.71128110746200        3.29479238766591
O           -0.69009458078982       -4.93754380751766        2.66907326827363
C           -1.06156200207808       -5.80409216038385        3.73370116103559
H           -4.58332789399374        1.64396439073906       -2.24774079559195
H           -1.24301573366611        4.00270669548050       -3.30085443505315
H           -2.56441656463215       -1.54606553961216        2.22294650468891
H            0.40359337748757       -4.10042940857975        0.66417606090116
H            3.58478622710634       -2.31668894305365       -2.70083524950239
H            2.99544928719008        1.52290519354909       -4.32879237368559
C            2.05707316144065       -4.60766273990818       -1.90115595144460
C            3.02683766103162       -5.75964766484743       -1.65806662607554
C            1.81332795072941        4.07169000072135       -3.39554657840907
C            2.35936244169081        5.14463745005035       -4.33143734735066
C           -3.58802937321195        0.38481210441800        0.87720127584062
C           -4.50791780789472       -0.84458358218851       -2.31853980636078
H           -6.88641276326864        4.95911373271897       -2.55313538100726
H           -5.74766601287071        5.53132416139777       -3.81450189557956
H           -5.45476862951958        5.94836473518206       -2.11778963639063
H           -0.36421766380787       -6.64067076283191        3.75105858576200
H           -2.08366914078054       -6.15751975742704        3.57994176561299
H           -1.02661129269132       -5.25952978770676        4.67965230840111
H            7.22200236037454       -2.35954543543243       -4.46893475723133
H            7.18371132358211       -0.57067007252932       -4.57277472936989
H            6.41829669712979       -1.53679121156444       -5.84701465987569
H            2.15088347767487       -3.81639365162769        0.10225713779211
H            3.31017476379591       -3.09513819088476       -0.97249582615434
H            2.17732552240396       -4.23820319731430       -2.92120139474480
H            1.03029025914119       -4.96505982459607       -1.79890921650785
H            4.05759097961988       -5.43111920700387       -1.77381019045329
H            2.84610975179370       -6.56178893095301       -2.36986101342100
H            2.90797233601524       -6.16438879491821       -0.65507765653634
H           -4.00280481171843        1.36780601365515        0.65298671154774
H           -3.66546454741268        0.21153223006536        1.94735077180440
H           -4.14961967834872       -0.39506169800498        0.35765283125457
H           -4.68559316758997       -1.91851381562202       -2.25724199822487