116
 energy: -22.928061455056 gnorm: 0.329736929581 xtb: 6.6.1 (8d0f1dd)
C           -3.31122850772930        0.79849766164622       -0.92477639677520
C           -2.44380812530352       -0.12270372891954       -0.27661132624697
C           -1.41337090092821        0.39579727573559        0.56335275196199
C           -0.89266158675590        1.65801491088749        0.27377586709581
C           -1.72665675402493        2.51431363229076       -0.49448366572522
C           -2.95444148494349        2.13954154133227       -1.01494489940871
C           -0.74098268209890       -0.43411532818871        1.49825021926784
C            0.56872586496315        0.03782116815119        1.86248088067890
C            1.03782416582094        1.29402317993033        1.50887470833621
N            0.31238977034758        2.07067427098208        0.65193736800696
C           -1.29695700510141       -1.39996043042223        2.41574187746061
C           -0.38243517664656       -2.18060797534842        3.13232615520648
N            0.91308504082021       -1.90366887689689        3.30325166013478
C            1.37712470144904       -0.74872102533751        2.81811050966982
C            2.52149331701875       -0.17739833758153        3.39379298866852
C            2.95849061756259        1.02681208890480        2.95105897606587
C            2.24288949469137        1.78498308775960        2.03503020483770
C           -2.74860936222260       -1.74497937691422        2.38401158947411
C           -3.09416315450955       -2.91614440870436        3.00571134491758
C           -2.16786021984049       -3.77788778654213        3.63251872101904
C           -0.85708937311598       -3.40495313382985        3.68547234358092
O           -3.71994433332149       -0.94984598373544        1.67726658385724
O           -2.55702603277562       -1.47241711578389       -0.57241635275616
C           -3.84297843593025        3.13357444054366       -1.60938954875544
C           -2.68769581069131       -5.03867041417370        4.30484659386931
H           -1.39666850744143        3.51251503834900       -0.76806311868865
H           -4.27662633836220        0.55105838579656       -1.33106614114542
H            2.66329581305412        2.73912661909249        1.72562431984580
H            3.05775395548473       -0.69369546277216        4.16536137542516
H           -0.24710966264510       -4.12034095424229        4.22946223699121
H           -4.11477991332403       -3.04712728052358        3.03244694615357
O           -4.21824883374556        4.03433712717988       -0.87713382485991
O           -4.44510595673734        2.90643496899600       -2.81853501752979
C           -5.44216520282800        3.83300025693726       -3.02488532025093
C            4.23586651889298        1.50004220933226        3.59165660008449
O            5.05927614697201        0.66079890002952        3.91714215179376
O            4.47001334453535        2.86385149488593        3.72605651435371
C            5.79457498613219        3.08584475587818        4.15829123132174
O           -3.82227255313510       -5.27347675879771        4.16636005494405
O           -1.85023202017753       -5.79767454267276        5.06656077253571
C           -2.55119635829503       -6.86252441382958        5.62930343183426
C           -5.07197156564436       -1.42399175670916        1.58830531863830
C           -1.33089900128490       -2.23622472573986       -0.99264499351172
H           -2.54510546830388       -7.76426885143998        4.99136022291012
H           -3.57194749219491       -6.44405511486021        5.74196173723541
H           -2.09133598235598       -7.02043774843818        6.64022264233588
H            5.72707967266424        3.46798026205549        5.10135971236643
H            6.34060091246885        3.78468702308830        3.50069950143490
H            6.17933064298187        2.03010500085905        4.19342358084693
H           -0.91862729772622       -2.57650129080332       -0.01361370304871
H           -0.49769766914251       -1.60651221708571       -1.34094446550576
H           -1.52632419730509       -2.94569707152159       -1.75361447637286
H           -5.11788846557077       -2.41810833635233        1.17520213188926
H           -5.67929807973498       -0.69619639428435        1.04301666067831
H           -5.57598832326623       -1.42383358739762        2.57928294206544
H           -6.13050215934830        3.76035386975488       -2.23272855695873
H           -5.86615610071888        3.45938329385866       -4.02668959924245
H           -5.13479557532099        4.87790991548477       -2.98314551356402
C           -1.38192942069774        3.73616555005018        2.91232598411686
C           -1.84821468128685        2.59982427735607        3.49755545445181
C           -1.05946531454833        2.05730632010638        4.60922730982276
C            0.19893954712228        2.69376791964407        4.86302140881997
C            0.50425395911860        3.94630308659851        4.28768785650746
C           -0.26031777722226        4.46998310053134        3.25072669343212
C           -1.20488993561782        0.74454293276906        5.14851520323437
C           -0.06287609782692        0.02744069315890        5.60930570802864
C            1.19208754369866        0.71421540266195        5.78882868583885
N            1.19428660993148        2.06344359410476        5.62744624321596
C           -2.41361422770794        0.07928500213936        5.25249410304426
C           -2.45851584031083       -1.32662100968547        5.60237876023992
N           -1.29466212405906       -1.98318595734370        5.89916817085159
C           -0.14475655767527       -1.32117560077092        5.98824682881008
C            0.97209270935794       -1.98958449505532        6.53157704134458
C            2.21982707914082       -1.36973967291181        6.68703967237737
C            2.30561929262884       -0.09745313075593        6.26436900324455
C           -3.73018485967715        0.71367583494582        5.25810242262992
C           -4.89964478833448       -0.06184623426677        5.21204641615509
C           -4.82617965800088       -1.39228978090841        5.46901303780036
C           -3.67144193418464       -1.98914944386360        5.67265433266067
O           -3.75568638935321        2.07705011038914        5.52067969627343
O           -2.94192434743730        1.91263938797883        3.01658762327703
C            0.21273512614467        5.50086066357994        2.34765104514621
C           -6.06660304520411       -2.17604633098929        5.80641622556876
H            1.41756699010566        4.38133362238595        4.66974005703471
H           -1.82880610647429        4.11982501512100        2.06992133318584
H            3.26888037378556        0.32655662585251        6.31721410015598
H            0.87146188387207       -3.08471526305024        6.57830423410869
H           -3.67716811065157       -3.05999292755990        5.83019634570050
H           -5.77379677507622        0.43595144608221        4.71017130754348
O            1.34459852619901        5.82615848916894        2.44941456579099
O           -0.74718748219123        6.07961784856304        1.59848183464284
C           -0.21473095568964        7.24015934882472        1.05753806029483
C            3.53228080814219       -2.00967610361154        7.02506769044485
O            3.64093082622715       -3.14437803815732        7.50071391725347
O            4.56565258381079       -1.22937033368332        6.69086985080897
C            5.72579357310716       -1.80692399125161        7.22246151275881
O           -7.04801223588612       -1.95726935745904        5.14194115322235
O           -6.01514389321278       -2.93743591896022        6.94765316328794
C           -7.21292732384718       -3.62681918543340        7.15115816329978
C           -4.95459780685163        2.65960679932188        5.86868674392943
C           -3.68284113682406        2.59129188358641        2.05479246020704
H           -7.43119628931628       -4.22607794725959        6.20622607140901
H           -8.06548455146707       -2.91765848248592        7.29781126410398
H           -7.07314693247270       -4.33087306029711        7.91223421050944
H            6.57332189837178       -1.29353136199234        6.78341268688262
H            5.74663761932316       -2.84282155125561        6.88089468184451
H            5.69426191474290       -1.72781984964892        8.29460302186842
H           -4.10481209541493        3.44288266176275        2.60483747673152
H           -4.49244774344916        1.87419893016926        1.82433103764650
H           -3.18901540870812        2.85154642679373        1.06781919454921
H           -5.55414326821421        2.76698137191684        4.93950725322359
H           -4.78658370641210        3.62090640967288        6.25983200635257
H           -5.43485580473958        1.97242995129449        6.65265772412460
H            0.89164886030839        7.38838561720231        1.13776105146914
H           -0.62894889903848        8.04195665205089        1.64837664327952
H           -0.59282546386754        7.45699159724320        0.03719083132488
116
 energy: -22.602135921696 gnorm: 0.555691514870 xtb: 6.6.1 (8d0f1dd)
C           -3.00829912090637        0.37609821126374       -1.52961847746427
C           -2.25324626350314       -0.32518300108340       -0.56815877031943
C           -1.25496498036979        0.29826915172891        0.29335348424896
C           -1.02016046276784        1.77551249175845        0.06152416149602
C           -1.78966035816034        2.39507602830434       -0.87817965914538
C           -2.81791327276448        1.75132478839582       -1.60528672073547
C           -0.60580238095617       -0.53991945833973        1.26361252064557
C            0.59966379022656        0.13965315729024        1.65073409604576
C            0.91623376444202        1.53688602920866        1.40258664238724
N            0.02226741608529        2.40685989282089        0.64615023291165
C           -1.12538121067507       -1.83885770334335        1.70637313827724
C           -0.10347135572624       -2.62070127259690        2.39872312455356
N            1.20456325628001       -2.03817592539390        2.77179533272394
C            1.37113569011736       -0.71763051550774        2.60914367836949
C            2.53537398155415       -0.16560832083306        3.24138517939767
C            2.78816548468589        1.20913689904895        3.04173039771712
C            1.83082777382136        2.03507941762934        2.39611432412501
C           -2.47732334552296       -2.00990094799863        1.98404574913464
C           -2.79011884468170       -3.26884802825189        2.55274945588342
C           -1.82597911282092       -4.22260308977079        2.81027563008914
C           -0.45799862608829       -3.86784220881980        2.84054111083898
O           -3.54210219312470       -1.14897091964493        1.79915838766330
O           -2.38369893770654       -1.77903016056151       -0.60228748388419
C           -3.61487917016225        2.41914626822228       -2.78766306130392
C           -2.41377933848211       -5.48964369213796        3.51745098827700
H           -1.35787090362614        3.28549712090051       -1.35274433181606
H           -3.96271560107332       -0.07903658184729       -1.90651115570569
H            2.15534538019653        2.98875425706884        2.18768254708006
H            3.31333731561289       -0.62576164337112        3.74049148194125
H            0.25212410400210       -4.60917947349902        3.18420526204090
H           -3.76553617773532       -3.47598049163584        2.80636531859325
O           -3.08587778705262        3.15675983273732       -3.56420747740224
O           -5.03488618360840        2.47666548448375       -2.85507263025078
C           -5.38678227445337        3.44678069584904       -3.87060332048084
C            4.06138630223554        1.76006314210825        3.64357283827317
O            5.08456113068371        0.99548702116335        3.79052597525017
O            4.09083419030147        3.10338235004534        4.07887130121291
C            5.39009625385433        3.35002355333330        4.30357183689302
O           -3.59856941858790       -5.77920526628695        3.40089585229793
O           -1.37077023625496       -6.22163588398132        4.05280265951567
C           -1.82534265606882       -6.63286199650807        5.24428585019943
C           -4.51969933879480       -1.19135201299786        2.83452914355836
C           -3.16693185968656       -2.25870554902316       -1.57428818927572
H           -2.68072380008187       -7.32552835608464        4.99646799751108
H           -2.33176297522037       -5.82364304410928        5.78559353177676
H           -1.01335260604808       -7.05415553179771        5.78665992247855
H            5.46832470118540        3.43035119148220        5.42682682079481
H            5.73648347173247        4.31168772310299        3.99020112868736
H            6.18171185728540        2.68192242168047        3.86921795036631
H           -2.72143530537001       -3.24323672410820       -1.82671144885174
H           -2.95099948651584       -1.41327313729453       -2.13803899188534
H           -4.24835084276669       -2.37105523904315       -1.21475953793954
H           -3.96407747348157       -1.73393407754183        3.70740202972901
H           -5.38262030138895       -1.75086514117101        2.36535644688959
H           -4.67410285598873       -0.18192767187234        3.16340875951059
H           -5.56362346174679        2.90965716170563       -4.92254144283148
H           -4.83645788277935        4.26415815843153       -4.09040943699661
H           -6.34276327614473        3.83612184343634       -3.48910710378340
C           -2.10373602988360        4.42168622851265        3.90705239026162
C           -2.17840641480557        3.22564223986383        4.54445309429858
C           -1.21360532806699        2.59489148057779        5.39373228003553
C            0.08324602245658        3.11867937573326        5.39898656778096
C            0.25186130132402        4.43565855499106        4.82567488984568
C           -0.74066904052260        4.85589871044969        3.99475190759678
C           -1.34204598245570        1.30713422126801        5.86017179260424
C           -0.14377850186226        0.50836504643771        6.17063736308574
C            1.09691049851651        1.11277953291289        5.99403002895736
N            1.18508006851714        2.43965135393813        5.78636691051943
C           -2.62789720273656        0.59472427512396        6.23465666991126
C           -2.49966054816064       -0.82706513961174        6.43934671294497
N           -1.39687634485445       -1.54955507331080        6.65926095132596
C           -0.29119047515231       -0.92457522574695        6.38489865458424
C            0.83265977532456       -1.70097100305758        6.43219300200456
C            2.11698301671793       -1.15145138783400        6.39692784030098
C            2.27375301093691        0.18431472237104        6.04605426959425
C           -3.89178590767155        1.14900605968086        6.57362163367611
C           -4.99469701403832        0.28404672719659        6.19177014875323
C           -4.97161979504315       -1.11347270385882        6.08598441664722
C           -3.71530588066835       -1.61680850592542        6.41555491835150
O           -3.83159666377039        2.28616620448623        7.33248407307629
O           -3.18360091517958        2.41299549791114        4.09018970607216
C           -0.06313016743596        5.59614373034426        2.78089286586972
C           -6.11650169834059       -2.00886637076439        5.73466996344119
H            1.27011623785101        4.85170287791391        4.59769566745954
H           -2.79698246672194        4.60331283362441        3.15262967983698
H            3.15126127119140        0.55514390633238        5.65997323584851
H            0.91920643429973       -2.71988410147945        6.40842929917490
H           -3.47818767837302       -2.62629570176168        6.78254752333570
H           -5.93210302760625        0.78613327121017        5.94138462119790
O           -0.53158485800563        6.75420495418123        2.46331132356344
O            0.82667398354950        4.85815880542655        1.99571723330647
C            1.22830731797892        5.57664456172527        0.90398913066507
C            3.42608891233991       -2.00223515575654        6.76609745020380
O            3.29624059503156       -3.11693327068800        7.20749272868152
O            4.57762777540438       -1.28607130243141        6.66788963828130
C            5.47282358530054       -1.89370844485815        7.47322412083292
O           -7.02668710034815       -1.32133309984474        5.28054665649776
O           -6.37956458640515       -3.32900183294664        5.73394098547370
C           -7.65289410562224       -3.51877059692362        5.32079364345909
C           -4.80786197549481        3.17705156463927        6.83408546917790
C           -2.71674550849745        1.49704923372545        3.21071696717722
H           -8.30024407488338       -2.87928255463194        5.94800260617326
H           -7.99355653279400       -4.60455932680977        5.45858321889310
H           -7.76901584365107       -3.36231308363380        4.25223575650096
H            5.09433609598346       -2.02013872119958        8.52916480671766
H            6.40376217686871       -1.34730131017126        7.30502404246156
H            5.45630712133389       -2.89839370454960        7.39443339977596
H           -3.00060466958689        1.78011345724309        2.17805492418161
H           -3.39969751080818        0.67625102254974        3.16733066396962
H           -1.93025128209509        0.87580742125135        3.48483539534645
H           -5.68599798620407        2.60127854288480        6.82930615622323
H           -4.53775638000340        3.47460726127728        5.92839403595028
H           -5.00500713195896        3.94121761476423        7.33601088365419
H            1.75261448401175        4.82057142774119        0.23308187800958
H            1.99007850597379        6.22792132692752        1.08324991657058
H            0.30795142590139        6.03450357442423        0.43518115758851
116
 energy: -22.630333092377 gnorm: 0.581290626771 xtb: 6.6.1 (8d0f1dd)
C           -3.25069517215312       -0.18652290267394       -1.97313355751569
C           -2.29238617538780       -0.85931037838796       -1.14174723800737
C           -1.74622176044687       -0.13775368814389       -0.04712757005387
C           -1.83632155423807        1.26534597953429       -0.11560844201909
C           -2.70312234726298        1.87228190511852       -1.03738817508608
C           -3.54188633377248        1.18763457315306       -1.84326545265003
C           -1.18483418906810       -0.92452921806012        1.03537688102318
C           -0.20114914688547       -0.13974052465670        1.73737141336713
C           -0.04297580728346        1.19382188142257        1.40343617153397
N           -0.92452259807151        1.87374030121918        0.61632285357235
C           -1.48835370968471       -2.17292438689274        1.67982211717027
C           -0.43912311267917       -2.74826911898244        2.64189626909057
N            0.78493547118310       -2.30505979439767        2.62585840949814
C            0.93267759009977       -0.91167455524710        2.29266554287525
C            2.03958582004508       -0.09545907032651        2.83192751173111
C            2.10634954635476        1.29479725652923        2.73161125067203
C            1.03604800254615        1.90476071243990        1.99384879232440
C           -2.89556467326922       -2.52686787742587        1.75397716828266
C           -3.26443309060718       -3.64343648902728        2.50808601889497
C           -2.19939183861147       -4.34382312219655        3.28520391665120
C           -0.90174249217703       -3.93164056643803        3.28471873563381
O           -3.72571737098675       -1.80504442887198        1.00358933490926
O           -2.25734517779791       -2.28899799895309       -1.39130109051892
C           -4.38849569156396        1.95547862813606       -2.78797568236512
C           -2.53325897761767       -5.66084687611489        3.91402766790015
H           -2.92617262027671        2.92426284153048       -0.81705290474632
H           -3.87224702295126       -0.67586009530700       -2.85071403845325
H            0.94961212694533        2.99142738173928        2.09010078360435
H            2.82619873264752       -0.64224452416895        2.91713635524056
H           -0.08255957887198       -4.42002865900632        3.82216641068677
H           -4.15723401128513       -4.21014670919568        2.61653683990718
O           -5.25503997670880        2.63030762008472       -2.37905061296925
O           -4.06292612540241        1.79039682432446       -4.21480131353201
C           -4.92720213949438        2.52529794474137       -4.93457139807262
C            3.36406104469140        2.10658973220334        3.12048586161341
O            3.73394633394831        1.77514263005571        4.22397185510045
O            3.65346061220188        3.19728914499924        2.17787151041593
C            4.65055606019801        3.97688695181721        2.73443715061047
O           -3.05891278695158       -5.54112523821207        5.07781520555204
O           -2.20817127242415       -6.81232199971429        3.17419383345581
C           -2.61657718291137       -8.00479233905678        3.85441588392762
C           -5.10832904404802       -1.91183525232221        1.46481561264349
C           -0.83576160467991       -2.76957823856599       -1.40594245925219
H           -2.20648122729821       -7.97232596158174        4.84830976847858
H           -2.22434127175776       -9.01946222751577        3.37867426456702
H           -3.78702886060261       -8.13068533911521        3.91470208027541
H            4.98857923268042        4.53441301465840        1.98607061320519
H            5.42028391923607        3.42123891232101        3.27455472026160
H            4.04472243126261        4.45671465709670        3.57202991238231
H           -0.17486969325377       -1.99920771686705       -1.24794495673735
H           -0.51327471559909       -3.13727020849542       -2.37939803654186
H           -0.97673318021357       -3.54791371661088       -0.72643040129977
H           -5.03279026328612       -2.40329113926022        2.45799976885855
H           -5.71844654560985       -2.31729412203510        0.69405089724002
H           -5.51074082220171       -0.94694474632018        1.48844193246627
H           -4.55148185466335        2.66606997891201       -5.97504249968877
H           -4.87802024744035        3.54585975663088       -4.42736064849677
H           -5.87131217574732        2.02232286825443       -4.93582134956946
C           -1.33932028103630        4.43152540577915        4.01995628091498
C           -1.61144841216036        3.23193903360916        4.66950754177429
C           -0.78364460508909        2.71425421283176        5.65863139552982
C            0.55342641510771        3.23556383368560        5.83453496288020
C            0.60916342981752        4.52556608318039        5.38192778254409
C           -0.25992687483274        5.08908547033241        4.45831212252149
C           -0.95852407615534        1.35159483451549        6.16434526153341
C            0.17328844423500        0.56634757220395        6.48621751629325
C            1.44509005361926        1.20068173131464        6.57967619405517
N            1.51300174896232        2.59039780601724        6.45919945199421
C           -2.13802637102154        0.67981289172598        6.29169353786279
C           -2.15965960557602       -0.73515935113165        6.04425597802404
N           -1.07119448844311       -1.49525130448990        6.35720546664274
C            0.05290763548420       -0.85711359068715        6.55067989853862
C            1.17942133758000       -1.73364792250229        6.77952690418119
C            2.47013940130476       -1.01312635571308        6.98452618794903
C            2.62106283750553        0.38903836055072        6.88117875350071
C           -3.48212751825416        1.34607248062833        6.57410364692452
C           -4.64825174447116        0.64932514481258        6.35216603267559
C           -4.59506200668687       -0.76329890991161        6.37564394958241
C           -3.43226407369585       -1.34361897635689        6.04342156060788
O           -3.73061453074933        2.47188579923797        7.30752656587905
O           -2.75581812270108        2.46670626811399        4.18891183437542
C            0.36167437462398        6.06182772979572        3.62256834110692
C           -5.83510438943602       -1.59808859465384        6.04760085626935
H            1.49765398716819        5.13461812115511        5.66987419270412
H           -1.97785707362597        4.48738788222628        3.11159983286968
H            3.66161279128015        0.73610608353803        6.79918277268716
H            1.12740751339898       -2.74728639328817        6.63602055676611
H           -3.48539237977663       -2.42518754824007        5.96798343801299
H           -5.54928399556126        1.18608146123095        6.66864569350038
O           -0.35424307674872        6.76741740000931        2.99483776483049
O            1.72006490662177        6.31835736237147        3.59325382948273
C            2.28412602653088        7.44095149528841        3.14322892563044
C            3.60724451837217       -1.74238593199655        7.61676647914327
O            3.38185167437589       -2.32215294762891        8.63575031998344
O            4.85487992078945       -1.33289011937806        7.08287795968787
C            5.80345392873616       -2.25871065050432        7.42683573220688
O           -6.48551516964878       -1.97134864404000        6.97392067689467
O           -6.20412338198169       -1.82194124849330        4.68453301280208
C           -7.57052990995987       -2.02169593815809        4.52192062315236
C           -4.37527019851838        3.72174094827587        6.74261594944734
C           -2.68675783539983        1.45027810028713        3.14046699153820
H           -8.07754805838566       -2.91440353648125        4.89689536018780
H           -7.54316198461429       -2.01241305881527        3.42565609500273
H           -8.04891158500646       -1.20892671365899        5.14447356114298
H            6.42174467528298       -2.65348870319488        6.60339732271190
H            5.05935594373902       -3.10402631110953        7.67727258180975
H            6.39636042961958       -1.96594341282739        8.39134379455269
H           -2.16340526350908        1.86205670005349        2.36251156310772
H           -3.72937933821950        1.28897535977830        2.88643153153435
H           -1.94030121107225        0.74166006985769        3.46014482013882
H           -4.88789374967124        4.08239984764220        7.47408403515649
H           -4.85497389945213        3.44410484703066        5.90784472401423
H           -3.57938400837875        4.29211984458042        6.37147630126855
H            2.54496658909135        7.31851066014275        2.07658192382626
H            3.07808639092516        7.78407312279220        3.81933386571495
H            1.46375414663383        8.25097937862526        3.16493445219379
116
 energy: -22.687840780672 gnorm: 0.515232560663 xtb: 6.6.1 (8d0f1dd)
C           -3.33588944877138       -1.00267568752120       -2.22962335082555
C           -2.66772701018828       -1.65467270759164       -1.28845596520784
C           -1.82844741819691       -0.75021451944581       -0.52332517296659
C           -1.69333162424211        0.64279541837208       -0.82168682894444
C           -2.63943190362104        1.21816764696020       -1.71815331558858
C           -3.49311507543254        0.33875289313662       -2.37223514492741
C           -1.12562979448413       -1.27864228332209        0.65569995859647
C            0.05996953175678       -0.60928912529702        0.97608651417294
C            0.34586839647766        0.66098154701534        0.48193621385026
N           -0.59706862967721        1.28194421627980       -0.32741239273040
C           -1.59593206038033       -2.34610054325442        1.41535965650796
C           -0.54351321815971       -2.93762658844757        2.35713910880225
N            0.69516989029691       -2.32257802748312        2.54843148740230
C            0.92277825172079       -1.19807438769269        1.88570049640554
C            2.14867951899877       -0.52602325143562        2.19860338268966
C            2.28467731277941        0.85571519137355        1.74244483940466
C            1.40255735141763        1.38335025075106        0.86965983470153
C           -2.97423019343061       -2.71989759711402        1.63691358594249
C           -3.32968067314485       -3.94669150203758        2.33867973062940
C           -2.36175398864238       -4.59759393815332        3.13289774506688
C           -1.07522900200044       -3.93120434824313        3.19561546935129
O           -3.99470257639611       -1.86200802962529        1.01442935789456
O           -2.51910935311956       -3.06391535908634       -1.24686658377770
C           -4.20306989072903        0.82963054905204       -3.53456520036020
C           -2.75999706576189       -5.89183660755922        3.72046015151184
H           -2.73677895700002        2.26903668984754       -1.96567695264824
H           -4.03253893126918       -1.66943311791230       -2.85168930040176
H            1.56567218223679        2.41589791991464        0.43058720576398
H            2.76456908803609       -0.98136760917548        2.85886752236291
H           -0.44432215631442       -4.61744966847956        3.79076977220629
H           -4.26261428696498       -4.39843589336724        2.16506196600794
O           -4.83015812914468        0.06696952711284       -4.33475613471274