116
 energy: -22.928061455056 gnorm: 0.329736929581 xtb: 6.6.1 (8d0f1dd)
C           -3.31122850772930        0.79849766164622       -0.92477639677520
C           -2.44380812530352       -0.12270372891954       -0.27661132624697
C           -1.41337090092821        0.39579727573559        0.56335275196199
C           -0.89266158675590        1.65801491088749        0.27377586709581
C           -1.72665675402493        2.51431363229076       -0.49448366572522
C           -2.95444148494349        2.13954154133227       -1.01494489940871
C           -0.74098268209890       -0.43411532818871        1.49825021926784
C            0.56872586496315        0.03782116815119        1.86248088067890
C            1.03782416582094        1.29402317993033        1.50887470833621
N            0.31238977034758        2.07067427098208        0.65193736800696
C           -1.29695700510141       -1.39996043042223        2.41574187746061
C           -0.38243517664656       -2.18060797534842        3.13232615520648
N            0.91308504082021       -1.90366887689689        3.30325166013478
C            1.37712470144904       -0.74872102533751        2.81811050966982
C            2.52149331701875       -0.17739833758153        3.39379298866852
C            2.95849061756259        1.02681208890480        2.95105897606587
C            2.24288949469137        1.78498308775960        2.03503020483770
C           -2.74860936222260       -1.74497937691422        2.38401158947411
C           -3.09416315450955       -2.91614440870436        3.00571134491758
C           -2.16786021984049       -3.77788778654213        3.63251872101904
C           -0.85708937311598       -3.40495313382985        3.68547234358092
O           -3.71994433332149       -0.94984598373544        1.67726658385724
O           -2.55702603277562       -1.47241711578389       -0.57241635275616
C           -3.84297843593025        3.13357444054366       -1.60938954875544
C           -2.68769581069131       -5.03867041417370        4.30484659386931
H           -1.39666850744143        3.51251503834900       -0.76806311868865
H           -4.27662633836220        0.55105838579656       -1.33106614114542
H            2.66329581305412        2.73912661909249        1.72562431984580
H            3.05775395548473       -0.69369546277216        4.16536137542516
H           -0.24710966264510       -4.12034095424229        4.22946223699121
H           -4.11477991332403       -3.04712728052358        3.03244694615357
O           -4.21824883374556        4.03433712717988       -0.87713382485991
O           -4.44510595673734        2.90643496899600       -2.81853501752979
C           -5.44216520282800        3.83300025693726       -3.02488532025093
C            4.23586651889298        1.50004220933226        3.59165660008449
O            5.05927614697201        0.66079890002952        3.91714215179376
O            4.47001334453535        2.86385149488593        3.72605651435371
C            5.79457498613219        3.08584475587818        4.15829123132174
O           -3.82227255313510       -5.27347675879771        4.16636005494405
O           -1.85023202017753       -5.79767454267276        5.06656077253571
C           -2.55119635829503       -6.86252441382958        5.62930343183426
C           -5.07197156564436       -1.42399175670916        1.58830531863830
C           -1.33089900128490       -2.23622472573986       -0.99264499351172
H           -2.54510546830388       -7.76426885143998        4.99136022291012
H           -3.57194749219491       -6.44405511486021        5.74196173723541
H           -2.09133598235598       -7.02043774843818        6.64022264233588
H            5.72707967266424        3.46798026205549        5.10135971236643
H            6.34060091246885        3.78468702308830        3.50069950143490
H            6.17933064298187        2.03010500085905        4.19342358084693
H           -0.91862729772622       -2.57650129080332       -0.01361370304871
H           -0.49769766914251       -1.60651221708571       -1.34094446550576
H           -1.52632419730509       -2.94569707152159       -1.75361447637286
H           -5.11788846557077       -2.41810833635233        1.17520213188926
H           -5.67929807973498       -0.69619639428435        1.04301666067831
H           -5.57598832326623       -1.42383358739762        2.57928294206544
H           -6.13050215934830        3.76035386975488       -2.23272855695873
H           -5.86615610071888        3.45938329385866       -4.02668959924245
H           -5.13479557532099        4.87790991548477       -2.98314551356402
C           -1.38192942069774        3.73616555005018        2.91232598411686
C           -1.84821468128685        2.59982427735607        3.49755545445181
C           -1.05946531454833        2.05730632010638        4.60922730982276
C            0.19893954712228        2.69376791964407        4.86302140881997
C            0.50425395911860        3.94630308659851        4.28768785650746
C           -0.26031777722226        4.46998310053134        3.25072669343212
C           -1.20488993561782        0.74454293276906        5.14851520323437
C           -0.06287609782692        0.02744069315890        5.60930570802864
C            1.19208754369866        0.71421540266195        5.78882868583885
N            1.19428660993148        2.06344359410476        5.62744624321596
C           -2.41361422770794        0.07928500213936        5.25249410304426
C           -2.45851584031083       -1.32662100968547        5.60237876023992
N           -1.29466212405906       -1.98318595734370        5.89916817085159
C           -0.14475655767527       -1.32117560077092        5.98824682881008
C            0.97209270935794       -1.98958449505532        6.53157704134458
C            2.21982707914082       -1.36973967291181        6.68703967237737
C            2.30561929262884       -0.09745313075593        6.26436900324455
C           -3.73018485967715        0.71367583494582        5.25810242262992
C           -4.89964478833448       -0.06184623426677        5.21204641615509
C           -4.82617965800088       -1.39228978090841        5.46901303780036
C           -3.67144193418464       -1.98914944386360        5.67265433266067
O           -3.75568638935321        2.07705011038914        5.52067969627343
O           -2.94192434743730        1.91263938797883        3.01658762327703
C            0.21273512614467        5.50086066357994        2.34765104514621
C           -6.06660304520411       -2.17604633098929        5.80641622556876
H            1.41756699010566        4.38133362238595        4.66974005703471
H           -1.82880610647429        4.11982501512100        2.06992133318584
H            3.26888037378556        0.32655662585251        6.31721410015598
H            0.87146188387207       -3.08471526305024        6.57830423410869
H           -3.67716811065157       -3.05999292755990        5.83019634570050
H           -5.77379677507622        0.43595144608221        4.71017130754348
O            1.34459852619901        5.82615848916894        2.44941456579099
O           -0.74718748219123        6.07961784856304        1.59848183464284
C           -0.21473095568964        7.24015934882472        1.05753806029483
C            3.53228080814219       -2.00967610361154        7.02506769044485
O            3.64093082622715       -3.14437803815732        7.50071391725347
O            4.56565258381079       -1.22937033368332        6.69086985080897
C            5.72579357310716       -1.80692399125161        7.22246151275881
O           -7.04801223588612       -1.95726935745904        5.14194115322235
O           -6.01514389321278       -2.93743591896022        6.94765316328794
C           -7.21292732384718       -3.62681918543340        7.15115816329978
C           -4.95459780685163        2.65960679932188        5.86868674392943
C           -3.68284113682406        2.59129188358641        2.05479246020704
H           -7.43119628931628       -4.22607794725959        6.20622607140901
H           -8.06548455146707       -2.91765848248592        7.29781126410398
H           -7.07314693247270       -4.33087306029711        7.91223421050944
H            6.57332189837178       -1.29353136199234        6.78341268688262
H            5.74663761932316       -2.84282155125561        6.88089468184451
H            5.69426191474290       -1.72781984964892        8.29460302186842
H           -4.10481209541493        3.44288266176275        2.60483747673152
H           -4.49244774344916        1.87419893016926        1.82433103764650
H           -3.18901540870812        2.85154642679373        1.06781919454921
H           -5.55414326821421        2.76698137191684        4.93950725322359
H           -4.78658370641210        3.62090640967288        6.25983200635257
H           -5.43485580473958        1.97242995129449        6.65265772412460
H            0.89164886030839        7.38838561720231        1.13776105146914
H           -0.62894889903848        8.04195665205089        1.64837664327952
H           -0.59282546386754        7.45699159724320        0.03719083132488
116
 energy: -22.629393277145 gnorm: 0.537271865257 xtb: 6.6.1 (8d0f1dd)
C           -3.57872147806629        0.00465496023016       -1.97498788111309
C           -2.73363174677149       -0.73694826194430       -1.11940639775187
C           -1.94832133862775        0.04636095440177       -0.18053122828866
C           -1.58173563634155        1.44987936729606       -0.29163136326264
C           -2.47079124269887        2.07914372265383       -1.25734078002315
C           -3.45558907197784        1.44727556083107       -2.09752602368428
C           -1.43057401255675       -0.44135256584713        1.03420771965543
C           -0.29278311519786        0.21380311916916        1.49287297233067
C            0.17011805307030        1.53875085493147        0.97748053538496
N           -0.43223333650004        2.14629439340110       -0.00124242072124
C           -1.91912306983788       -1.62089240906386        1.73637233451812
C           -1.08827402521726       -2.29541227730592        2.65488059945592
N            0.15773862570375       -1.70723086428492        2.99949613502902
C            0.47469208560310       -0.47717547250746        2.43852459499600
C            1.73298756989350       -0.13736468248271        2.75568050278188
C            2.17843943490649        1.11858613617627        2.29405230174920
C            1.39426795942014        1.98145111310994        1.52133795797693
C           -3.29377395916585       -2.08732058306986        1.66373259559036
C           -3.32748825696775       -3.46148527029320        1.85982138727007
C           -2.40400897132958       -4.26371084507141        2.60310368050587
C           -1.24872511739092       -3.52381154170046        3.11767666767730
O           -4.01362799233143       -1.00615952828514        1.17498622713169
O           -2.80356116787815       -2.19918538397477       -0.96931264151959
C           -4.18989822319144        2.09625694559160       -3.21019836536242
C           -2.73631950079526       -5.56458925513016        3.20616219471324
H           -2.50954248080917        3.17193128714487       -1.23066986724957
H           -4.17105373729416       -0.48988208280287       -2.72790237251473
H            1.91733906677669        2.84293974598473        1.14910594875236
H            2.37596797660989       -0.86218817635132        3.27552502491567
H           -0.54014575156469       -3.72832438872722        3.86802672686121
H           -4.22334831676611       -4.11728122768414        1.62264705819554
O           -3.60757013976545        3.09402858086689       -3.71939927340342
O           -5.30734956027150        1.50448593844680       -3.62603441625506
C           -5.77567933468475        2.20625837682657       -4.78734934294105
C            3.40807033474559        1.44143114570477        2.97606239409022
O            4.33896367200735        1.85654757319859        2.27556028680075
O            3.37999443014459        1.39157641196055        4.37364199808234
C            4.53210369535145        1.98380781977554        4.80155896249665
O           -3.94222819834023       -5.94520878215031        3.43957158493203
O           -1.72146368733123       -6.43186808647684        3.51491517688579
C           -2.24009303253355       -7.57949729808869        3.93957332817262
C           -5.38267788305755       -1.38182409458876        0.97269951266366
C           -3.80957483563463       -2.93354296756117       -1.38067545612297
H           -1.57217570598469       -8.46198443716205        3.61016087919944
H           -3.25027241654153       -7.56637853564724        3.46499388336351
H           -2.35010342355305       -7.65374807207839        4.93692015753309
H            4.77696675813838        1.53135077753294        5.72214672633914
H            4.48195466320535        2.94593153787625        5.04921265956190
H            5.31069902326546        1.80778823290045        3.98429904306402
H           -4.78311637677576       -2.40438305621511       -1.38444820952150
H           -4.18496360243834       -3.89344960165734       -0.79991524816177
H           -3.75102190112924       -3.05927055525026       -2.44945440656533
H           -5.44320373580952       -1.72275667748513       -0.00786018576894
H           -5.92464274640140       -0.48916984945687        1.25473004760756
H           -5.74898120020913       -2.21551225807841        1.45248104809549
H           -5.73074757827547        3.35510117757093       -4.65323808783242
H           -6.79097592233423        1.76004807031241       -5.24956770911930
H           -5.00045099483789        1.67007235665650       -5.40076044547975
C           -0.56884796133307        3.84092797961513        3.67882075960612
C           -1.12760220765017        2.97296037196025        4.63066872195286
C           -0.27541918643400        2.49118826685954        5.78530944683328
C            0.82754471713637        3.24694315401235        6.05764454185290
C            1.05125477560545        4.39942583074118        5.29964524098839
C            0.28187504879796        4.85237546570093        4.09904685457940
C           -0.53441632050833        1.33259604471130        6.66845253085907
C            0.57760678735050        0.63152627758336        7.02878406967258
C            1.77171442312782        1.36349264531923        7.07339408469907
N            1.87598735191307        2.60679089396625        6.58143414983994
C           -1.78765613658080        0.68539621361168        6.62448274105450
C           -1.76121759205618       -0.71194546041335        6.73868000238254
N           -0.68555662849301       -1.43208862339799        7.09282951006400
C            0.45820001128573       -0.66866872666453        7.37010605183476
C            1.61115237097436       -1.32519824363117        7.75702175328299
C            2.82208367817755       -0.75284194915001        7.65378186647406
C            2.97630818649136        0.61449521519821        7.39478611599475
C           -3.02694549105216        1.31458480633364        6.64975698533267
C           -4.20978565488275        0.60121386703523        6.33132379905709
C           -4.28804267400782       -0.69076529415543        5.93520133979190
C           -2.99848963923179       -1.39670541419762        6.22259768054022
O           -3.04857853192989        2.67450187910321        7.03848794893665
O           -2.25771358706151        2.19211828764754        4.24552829052273
C            0.55685070845434        6.07421923337104        3.23938076614782
C           -5.58441317655309       -1.36099852399203        5.53316806323437
H            1.96890156394329        4.74885858232924        5.54489790655485
H           -0.69566961720772        3.94600667493960        2.67831729509168
H            3.92286911188458        1.12682960701394        7.51569582802350
H            1.42572268127110       -2.31209602879656        8.13359892435221
H           -2.85111689566390       -2.35934291028921        5.79573328733462
H           -5.20440459179645        1.09483976615077        6.43334220913467
O            1.72348578371974        6.51970130231906        3.13700120242875
O           -0.41014602618495        6.42038680473864        2.32863145080090
C           -0.10848349211079        7.66036964395567        1.68347318698309
C            3.89310104628035       -1.67352663656141        8.11049059018624
O            3.53674831743635       -2.79209177744307        8.33210586637264
O            5.15404807716979       -1.18830915280376        8.33535239044285
C            6.13410498598789       -2.22409632774274        8.53483613372841
O           -6.57360226713537       -0.86315286768341        6.05501123592687
O           -5.56435475084082       -2.54646981311755        4.81128600524008
C           -6.26202263430855       -3.51240164617875        5.44209072147959
C           -4.17850969923867        3.30531314132475        6.54615523005386
C           -2.82707155125376        2.27412738821383        2.83809372076210
H           -6.31899588813073       -3.21979230543322        6.54870813844224
H           -5.77295155603333       -4.46071745878204        5.41808656248430
H           -7.29117217782076       -3.67027069076561        5.08176974540156
H            6.86793607593373       -1.69255392925310        9.09607966140327
H            6.66720729454642       -2.44783574761049        7.58478914959586
H            5.83048558964246       -2.94949329625082        9.21477106414117
H           -3.94591702193990        2.18647591219394        2.91210378513481
H           -2.71976513239283        1.36837405900599        2.19970419953073
H           -2.60261226083698        3.32097720811767        2.32806649466790
H           -4.15168005464048        3.43981884218407        5.43801881787280
H           -4.16674279273212        4.49661690268863        7.01027105473968
H           -5.13650921626078        3.15340845408388        7.04179154530095
H            0.23613630614532        8.56071994726134        2.20060550537949
H           -1.07267370105310        8.06470765723080        1.31790440277748
H            0.66775421546785        7.45031302366507        0.88795797638888
116
 energy: -22.599593083880 gnorm: 0.556261755393 xtb: 6.6.1 (8d0f1dd)
C           -3.75836762588736       -0.51017090889627       -2.47467786521749
C           -2.95708123243255       -0.94513282582249       -1.37775148977720
C           -2.37924153044375        0.03922905322678       -0.49943644966937
C           -1.92537047435829        1.26886497047558       -1.04067596343561
C           -2.63647830199073        1.89281551828756       -2.14103626269167
C           -3.59676610137520        1.02852357220473       -2.77161842206476
C           -1.74892201506738       -0.49766123194288        0.61031278885620
C           -0.48511761025925        0.05697566905146        0.99001406363760
C           -0.14199754002376        1.27345909852429        0.33928527187638
N           -0.77923655553403        1.86614558759102       -0.60427065774523
C           -2.18177932000024       -1.58168170919334        1.47222126658866
C           -1.14208029558259       -2.30817099652790        2.14361525874411
N            0.11122701392392       -1.96241855876024        2.31995878862250
C            0.49456459301651       -0.70683236594440        1.79389429577753
C            1.79986316355181       -0.22477315966805        1.90054228669125
C            2.06348686899919        0.94339501822950        1.30331708543615
C            1.13173902669044        1.65317516632775        0.62789304157055
C           -3.61442807125941       -1.95349171396001        1.64827134887070
C           -3.80445904921043       -2.90074623209564        2.53958929067485
C           -2.84698806851618       -3.68134208835564        3.05240199853086
C           -1.48821174905702       -3.43012536751879        2.78589915079307
O           -4.71617604073367       -1.02454417958911        1.29544745721970
O           -2.84350498980598       -2.22512425689036       -0.90532574691277
C           -3.76917742623389        1.46954648230643       -4.17863576553054
C           -3.26047095063370       -5.01424609417737        3.30623319775687
H           -2.18372340298339        2.83349251341598       -2.31931886093415
H           -4.63080322497189       -1.02092425007075       -2.93959196904814
H            1.11368309993973        2.75923216180857        0.60075776036668
H            2.57427282994151       -0.77300096106577        2.46292639607131
H           -0.74033149239883       -4.15121357543910        3.01506329531958
H           -4.78268747899561       -3.28021139387843        2.43257867156245
O           -3.90595196146117        2.62498010381341       -4.42652778014558
O           -3.68452398532084        0.41264385302392       -5.12080071634335
C           -4.17999577031657        0.79835489588039       -6.29980628670126
C            3.33393333702398        1.56914471317758        1.54711270278814
O            3.92509545136713        2.04377178925042        0.57928052967089
O            3.88188007567674        1.60029549356064        2.81825731408044
C            4.95980006120352        2.55622241160518        3.13928321378703
O           -4.40197996991750       -5.49606930239394        3.16075951082361
O           -2.20715174936402       -5.84037087846332        3.59184480967491
C           -2.84416726178668       -7.02425712244277        4.10725703730128
C           -5.84716154162971       -0.80681880838648        2.11456935402323
C           -3.23996260901990       -3.20869128619237       -1.68634463360623
H           -3.70695924363354       -7.11624319798312        3.53536790741612
H           -2.99583053978511       -6.91012037450427        5.20575224951745
H           -2.23018583157129       -7.90782082371597        3.79406500846766
H            4.97546661688620        3.30575765697576        2.37312263134409
H            5.87265831284812        1.80390242630821        3.00684946477192
H            4.66045061522423        2.91561156758573        3.99656195522119
H           -4.08211137649280       -3.69910103218243       -1.29555786460124
H           -2.29597140018640       -3.68068283487568       -1.91922285223801
H           -3.72586259148789       -2.88787825103808       -2.65455414640206
H           -5.59149296261388       -0.05246708528402        2.91475835783090
H           -5.95718417606884       -1.68677722807257        2.75452615510367
H           -6.61059153065099       -0.34974746432572        1.53048052872548
H           -3.47169128030469        1.30905237433582       -7.06314131871108
H           -4.97842303430998        1.47103531986339       -6.10968946317694
H           -4.81751375857118       -0.01446343287377       -6.75177456616813
C           -1.07001141108026        4.67065808362949        4.59451428930301
C           -1.21851124519714        3.26675753504507        4.59236294688835
C           -0.36027897561809        2.56407801064654        5.58927474905582
C            0.76130107082558        3.24883094832087        6.04259531246130
C            0.75910119322450        4.68929374369874        6.13036492721475
C           -0.23208595965711        5.49390785465853        5.43400129551723
C           -0.46065850515124        1.15503665585644        6.01860872237269
C            0.57831031425330        0.57135070773853        6.76204812786575
C            1.73587175833715        1.33921557108783        6.89661879515305
N            1.86172693805568        2.67995901582873        6.79620978529520
C           -1.68406673745492        0.38588499133094        6.02272574710899
C           -1.55091614991104       -1.08340151080822        6.07323969517195
N           -0.32389733163173       -1.57929627760862        6.37659480915403
C            0.64980149258926       -0.76840192589198        6.90896975699971
C            1.77837231117010       -1.35525419701687        7.42444522898463
C            2.90843311770244       -0.60886940221727        7.87371539194676
C            2.85667840406572        0.71800237692727        7.56605272942331
C           -3.10873493918486        0.80604697819947        6.14461851573147
C           -4.20577658913081       -0.04341692729882        5.77337936658130
C           -4.06302174522392       -1.42554801847656        5.94085134724093
C           -2.73354861041442       -1.91060992634027        6.00782441692631
O           -3.43591641701572        2.04040469334893        6.57984624094802
O           -2.16697247018026        2.77404981579334        3.72784296601706
C            0.31942923475944        6.87235207695919        4.99775582704832
C           -5.14050911471233       -2.27133466633317        6.47943379013263
H            1.61152055601345        5.17214345485008        6.65050548013427
H           -1.83789154530278        5.23868125708976        4.06350892839132
H            3.59785951503538        1.32231223520021        8.00182210196497
H            1.49945502550056       -2.44555445302538        7.83984274581662
H           -2.58758600342198       -2.93411903946509        6.22582851814750
H           -5.28292081926659        0.36088097208053        5.76540735166272
O            0.93597252222792        7.57273914902179        5.84065091976412
O            0.22687178047080        7.03028502375159        3.70026218763833
C            1.36841320207899        7.73624082654706        3.22789133149144
C            3.83440672224956       -1.44534693534825        8.75434049507584
O            3.73092558737722       -2.70310791851586        8.87076604764827
O            4.66507945457584       -0.74327907713034        9.56929002080804
C            5.68928506332299       -1.67385479004648        9.78854806966388
O           -5.12469472335009       -2.97845210952542        7.50902737077134
O           -6.26187868304422       -2.30581192402891        5.69865227218135
C           -7.22520782129624       -3.00309156208759        6.47914855934294
C           -2.60090643829921        2.39975764675083        7.70016864758292
C           -3.24837026633081        3.46371493671425        3.82742945454046
H           -7.36367286855103       -2.30730491790927        7.47015722767791
H           -7.06446790357356       -3.98540585802555        6.81261356982711
H           -8.13148094556980       -2.98343388449918        5.78312731806344
H            5.42006295988863       -2.73994818080308        9.86808600276969
H            6.33700321341978       -1.43963765309014       10.70327305057665
H            6.34899383850383       -1.58724885821724        8.87432798537999
H           -3.68510446153100        3.10249231559001        4.71200281739510
H           -3.76516312860881        3.30640626985695        2.80987484553717
H           -3.10172188373904        4.55713138429829        3.88247484257873
H           -1.86440726667080        3.18608500096790        7.17956452684750
H           -2.14078604922313        1.61250149645478        8.16297117433116
H           -3.11078314266733        2.86569104977157        8.41821902974677
H            2.05991324891385        6.94986749619757        3.02740327661757
H            1.59571776823540        8.35078574364912        4.10786659009881
H            1.24774801232978        8.22467921568372        2.24398837791384
116
 energy: -22.593403592466 gnorm: 0.592143126236 xtb: 6.6.1 (8d0f1dd)
C           -3.34218308892361       -0.55613377501183       -2.62105780457322
C           -2.87773140012968       -1.04363514492191       -1.42744401906297
C           -2.07279190272764       -0.04316773970568       -0.71924981502109
C           -1.55555060280643        1.20052732337817       -1.28937451633711
C           -2.11757609424231        1.44885143084437       -2.51673904604587
C           -3.18922263186981        0.69553337181308       -3.08322995327973
C           -1.58352946033067       -0.42889550161021        0.56606782323909
C           -0.34503679314889        0.21033808483941        0.92296824561110
C            0.11387232192483        1.30953208159069        0.20391740085359
N           -0.66721214007041        2.02495472710122       -0.61182207263010
C           -2.00346827083541       -1.48624830303117        1.45920361504914
C           -1.12149067463827       -1.77640584950002        2.66485378230870
N            0.13780337136356       -1.17995293073814        2.90869783166351
C            0.51486662435445       -0.29880910032212        1.87924978587618
C            1.89639788289035        0.24974779587343        2.10276148947937
C            2.40715782911251        1.17544537672803        1.26814145314966
C            1.41902811635164        1.68245457718904        0.40261650578517
C           -3.33803093833826       -1.88096218839146        1.76428120751805
C           -3.58128460781397       -2.99609983977153        2.65405632539704
C           -2.61393476397539       -3.47886248087065        3.50622525567484
C           -1.38987457014042       -2.89872546749279        3.52714782651524
O           -4.36279331598374       -1.17891193965309        1.17481914826319
O           -2.97814309855685       -2.43826124161669       -1.20208888397968
C           -3.65261243408268        1.05213831473588       -4.45494919937400
C           -3.04983305931808       -4.93448120898002        4.08396262435768
H           -1.69768073805937        2.37002304313807       -2.90849616554851
H           -3.92512758670483       -1.34891738822797       -3.11037534679181
H            1.84793275920529        2.23536314344286       -0.35407487660542
H            2.24506559320151        0.08793413910313        3.11209721301977
H           -0.65180889903430       -3.53924237995518        3.96526764911149
H           -4.51189374154954       -3.49769868000586        2.91878516111263
O           -3.05466638758404        1.99294121788238       -4.92076287526471