136
 energy: -187.522679523741 gnorm: 0.082603371413 xtb: 6.7.1 (edcfbbe)
C           -1.21840000000000        1.81690000000000       -0.14040000000000
C           -1.28220000000000        0.43400000000000       -0.10300000000000
C           -0.06150000000000       -0.28410000000000       -0.07740000000000
C            1.19110000000000        0.37780000000000       -0.09260000000000
C            1.17400000000000        1.78620000000000       -0.13110000000000
C           -0.00180000000000        2.50740000000000       -0.16120000000000
C           -0.09050000000000       -1.67490000000000       -0.06980000000000
C            1.12000000000000       -2.36960000000000       -0.08680000000000
C            2.33360000000000       -1.63890000000000       -0.10430000000000
N            2.36920000000000       -0.28720000000000       -0.10030000000000
C           -1.32790000000000       -2.35880000000000       -0.09120000000000
C           -1.34060000000000       -3.76490000000000       -0.12430000000000
N           -0.11880000000000       -4.44070000000000       -0.12960000000000
C            1.11190000000000       -3.78480000000000       -0.12270000000000
C            2.32370000000000       -4.45210000000000       -0.18300000000000
C            3.54170000000000       -3.76340000000000       -0.20710000000000
C            3.52950000000000       -2.38240000000000       -0.16100000000000
C           -2.52400000000000       -1.61740000000000       -0.11370000000000
C           -3.72390000000000       -2.32170000000000       -0.16380000000000
C           -3.76510000000000       -3.71210000000000       -0.20250000000000
C           -2.56840000000000       -4.41680000000000       -0.18170000000000
C           -0.01860000000000        4.04120000000000       -0.25150000000000
C           -5.08920000000000       -4.48280000000000       -0.31910000000000
C            4.84750000000000       -4.56340000000000       -0.33760000000000
C           -6.30700000000000       -3.54490000000000       -0.20780000000000
C           -5.13880000000000       -5.19220000000000       -1.68390000000000
C           -5.18030000000000       -5.52550000000000        0.80940000000000
C            4.86050000000000       -5.28510000000000       -1.69710000000000
C            6.08780000000000       -3.65250000000000       -0.25400000000000
C            4.93370000000000       -5.59860000000000        0.79800000000000
C           -0.80210000000000        4.61370000000000        0.94220000000000
C           -0.69660000000000        4.46270000000000       -1.56760000000000
C            1.40390000000000        4.63250000000000       -0.22400000000000
H            2.12320000000000        2.28690000000000       -0.14830000000000
H           -2.14480000000000        2.35880000000000       -0.16750000000000
H            4.44790000000000       -1.82760000000000       -0.18360000000000
H            2.31520000000000       -5.52490000000000       -0.23110000000000
H           -2.57630000000000       -5.48970000000000       -0.22790000000000
H           -4.62910000000000       -1.74600000000000       -0.18440000000000
H            1.92290000000000        4.36220000000000        0.69520000000000
H            1.99200000000000        4.28130000000000       -1.07140000000000
H            1.37070000000000        5.72060000000000       -0.27630000000000
H           -1.72580000000000        4.10910000000000       -1.61280000000000
H           -0.71170000000000        5.54760000000000       -1.66920000000000
H           -0.16350000000000        4.05030000000000       -2.42380000000000
H           -1.83650000000000        4.27290000000000        0.94200000000000
H           -0.81000000000000        5.70320000000000        0.91970000000000
H           -0.34510000000000        4.29760000000000        1.87800000000000
H            4.02350000000000       -5.97680000000000       -1.78380000000000
H            5.78020000000000       -5.85450000000000       -1.82860000000000
H            4.78690000000000       -4.56760000000000       -2.51390000000000
H            4.11610000000000       -6.31630000000000        0.74950000000000
H            5.86860000000000       -6.15640000000000        0.74900000000000
H            4.88690000000000       -5.10190000000000        1.76510000000000
H            7.00340000000000       -4.23960000000000       -0.32250000000000
H            6.10130000000000       -2.92990000000000       -1.06930000000000
H            6.11240000000000       -3.11070000000000        0.69120000000000
H           -5.09640000000000       -5.04030000000000        1.77990000000000
H           -4.38610000000000       -6.26680000000000        0.73530000000000
H           -6.13230000000000       -6.05490000000000        0.77690000000000
H           -5.06270000000000       -4.46950000000000       -2.49590000000000
H           -4.31790000000000       -5.90060000000000       -1.78920000000000
H           -6.07240000000000       -5.74080000000000       -1.80530000000000
H           -6.31970000000000       -2.81840000000000       -1.01970000000000
H           -6.30100000000000       -3.00700000000000        0.73980000000000
H           -7.23680000000000       -4.11080000000000       -0.26130000000000
O           -2.51150000000000       -0.22300000000000       -0.10640000000000
H           -0.12740000000000       -5.45690000000000       -0.16210000000000
C           -1.22750000000000        1.81130000000000        6.04780000000000
C           -1.29320000000000        0.42930000000000        5.99080000000000
C           -0.07370000000000       -0.28990000000000        5.94890000000000
C            1.17980000000000        0.37010000000000        5.96920000000000
C            1.16480000000000        1.77780000000000        6.02760000000000
C           -0.00990000000000        2.50000000000000        6.07140000000000
C           -0.10450000000000       -1.68030000000000        5.91470000000000
C            1.10500000000000       -2.37650000000000        5.91000000000000
C            2.31940000000000       -1.64750000000000        5.93740000000000
N            2.35700000000000       -0.29620000000000        5.96020000000000
C           -1.34280000000000       -2.36280000000000        5.92420000000000
C           -1.35750000000000       -3.76930000000000        5.91900000000000
N           -0.13640000000000       -4.44650000000000        5.90130000000000
C            1.09530000000000       -3.79220000000000        5.90800000000000
C            2.30720000000000       -4.46160000000000        5.94140000000000
C            3.52580000000000       -3.77440000000000        5.98050000000000
C            3.51490000000000       -2.39290000000000        5.96890000000000
C           -2.53750000000000       -1.62010000000000        5.96740000000000
C           -3.73850000000000       -2.32300000000000        6.00460000000000
C           -3.78180000000000       -3.71370000000000        6.00960000000000
C           -2.58680000000000       -4.42010000000000        5.95990000000000
C           -0.02420000000000        4.03250000000000        6.17930000000000
C           -5.10810000000000       -4.48530000000000        6.08920000000000
C            4.83280000000000       -4.57890000000000        6.06090000000000
C           -6.32020000000000       -3.53550000000000        6.14730000000000
C           -5.25200000000000       -5.37610000000000        4.84380000000000
C           -5.11370000000000       -5.35790000000000        7.35760000000000
C            4.94220000000000       -5.49380000000000        4.82920000000000
C            6.07050000000000       -3.66130000000000        6.09260000000000
C            4.82660000000000       -5.43110000000000        7.34320000000000
C           -0.68910000000000        4.43900000000000        7.50650000000000
C           -0.81890000000000        4.61970000000000        5.00000000000000
C            1.39860000000000        4.62250000000000        6.14410000000000
H            2.11480000000000        2.27680000000000        6.04740000000000
H           -2.15310000000000        2.35390000000000        6.08660000000000
H            4.43400000000000       -1.83950000000000        5.99670000000000
H            2.29900000000000       -5.53560000000000        5.95020000000000
H           -2.59790000000000       -5.49410000000000        5.96360000000000
H           -4.64260000000000       -1.74640000000000        6.03950000000000
H            1.99410000000000        4.26270000000000        6.98270000000000
H            1.90870000000000        4.36010000000000        5.21760000000000
H            1.36720000000000        5.71000000000000        6.20700000000000
H           -1.85380000000000        4.28050000000000        5.00660000000000
H           -0.82500000000000        5.70880000000000        5.03500000000000
H           -0.37200000000000        4.31390000000000        4.05590000000000
H           -1.71780000000000        4.08480000000000        7.55770000000000
H           -0.70290000000000        5.52270000000000        7.62060000000000
H           -0.14770000000000        4.01670000000000        8.35270000000000
H            4.11470000000000       -6.20030000000000        4.78170000000000
H            5.86960000000000       -6.06590000000000        4.84650000000000
H            4.92840000000000       -4.89820000000000        3.91830000000000
H            3.99840000000000       -6.13830000000000        7.34490000000000
H            5.75100000000000       -6.00020000000000        7.43810000000000
H            4.72770000000000       -4.79790000000000        8.22450000000000
H            6.98610000000000       -4.25000000000000        6.14580000000000
H            6.12620000000000       -3.04660000000000        5.19470000000000
H            6.05090000000000       -3.00530000000000        6.96240000000000
H           -4.98850000000000       -4.74220000000000        8.24790000000000
H           -4.30620000000000       -6.08860000000000        7.33980000000000
H           -6.05310000000000       -5.90200000000000        7.45260000000000
H           -5.23630000000000       -4.76570000000000        3.94250000000000
H           -4.44070000000000       -6.09960000000000        4.77510000000000
H           -6.19160000000000       -5.92800000000000        4.86280000000000
H           -6.36930000000000       -2.90760000000000        5.25810000000000
H           -6.27270000000000       -2.89190000000000        7.02520000000000
H           -7.25080000000000       -4.09980000000000        6.20320000000000
O           -2.52330000000000       -0.22600000000000        5.98930000000000
H           -0.14620000000000       -5.46300000000000        5.90580000000000
136
 energy: -187.530727597006 gnorm: 0.039186171546 xtb: 6.7.1 (edcfbbe)
C           -1.23179694596271        1.80577715206334       -0.14464892187976
C           -1.27967458492971        0.42913726120715       -0.10245952466358
C           -0.06214326396864       -0.28545110677836       -0.07786027957847
C            1.19395798641054        0.37666509935921       -0.09392198773877
C            1.17744629327505        1.78639654333547       -0.13298712027556
C           -0.00240447580258        2.49776265469217       -0.16584661768681
C           -0.08251105639772       -1.67712959474539       -0.07069187650269
C            1.12090882835363       -2.37513259038730       -0.08846821863799
C            2.33494635674836       -1.63784980628049       -0.10619031391767
N            2.35889949138140       -0.29359099885233       -0.10189622237759
C           -1.32317197684522       -2.36088689824054       -0.09292112202094
C           -1.33604548614686       -3.76400654655385       -0.12850916187185
N           -0.12265883308765       -4.43011181515315       -0.12903205700403
C            1.11108117756763       -3.78844203442036       -0.12692312301903
C            2.31637345889820       -4.45649305690543       -0.18927995082658
C            3.53905713510274       -3.75660572242547       -0.21374090307335
C            3.53409052910178       -2.37824077844484       -0.16381217840726
C           -2.51185372831985       -1.62013515276487       -0.11423310287808
C           -3.71948024514569       -2.30677232822475       -0.16671177820254
C           -3.75913617877211       -3.70095615716371       -0.20898034054269
C           -2.56351167513569       -4.41620792804880       -0.18709900272420
C           -0.01855855892941        4.02647140800757       -0.25073001267226
C           -5.07969907545978       -4.46895600324487       -0.31693636603519
C            4.83934686503275       -4.55497825502954       -0.33574049826700
C           -6.30067429018189       -3.54629113468093       -0.20795479149896
C           -5.12898914062464       -5.18094815803796       -1.67769026771580
C           -5.17176667292432       -5.51358561443865        0.80586424940680
C            4.85207314822599       -5.27704765887757       -1.69177549656762
C            6.08102236532839       -3.65727634934456       -0.25414265692341
C            4.92650641035856       -5.59021443527549        0.79515784214565
C           -0.80053780667310        4.60104581263050        0.93887595793772
C           -0.69542397998851        4.44964119388043       -1.56318669714065
C            1.39438063635030        4.62575659023734       -0.22429717091684
H            2.13133190180085        2.28180606518396       -0.14830361218537
H           -2.16343406012501        2.34719201641473       -0.17021501897906
H            4.44933917663178       -1.81543759548318       -0.18251465017052
H            2.30803709784918       -5.53456882945355       -0.23329000452243
H           -2.57321895053171       -5.49398636575597       -0.22913890947623
H           -4.62363010054305       -1.72450172137505       -0.18466873136284
H            1.91249593126646        4.36016616276544        0.69494120330455
H            1.98123680538609        4.28150404330185       -1.07333211149603
H            1.33988155694737        5.71231686433840       -0.27612461226727
H           -1.72414954370285        4.09972850568561       -1.60879303340060
H           -0.70355112530404        5.53503273217361       -1.65240321533808
H           -0.15823018707317        4.04044550493935       -2.41688686830665
H           -1.83446017107879        4.26496880474433        0.93912275569938
H           -0.80033315662250        5.68953686521813        0.90561301022785
H           -0.34059343968360        4.28717440990318        1.87307294447264
H            4.01791122625200       -5.97011951509778       -1.77881750861990
H            5.77505694251164       -5.84232968241344       -1.81184425327279
H            4.78257705350756       -4.55799128832713       -2.50592436356525
H            4.11348780240727       -6.31058394835965        0.74583157074346
H            5.86429417239953       -6.14043916482669        0.73642537381301
H            4.88172028744466       -5.09288575247515        1.76101052640511
H            6.98427735138583       -4.26193626199317       -0.32234689863609
H            6.09879598874798       -2.93992677104950       -1.07173886766099
H            6.10720492426329       -3.11780577761131        0.69046173935058
H           -5.09025574748360       -5.03041221612828        1.77648664569593
H           -4.38326002272887       -6.25817503890029        0.73013435067583
H           -6.12651617416687       -6.03503143219345        0.76249621672908
H           -5.05753765044994       -4.45895470665455       -2.48884740960691
H           -4.31150354490418       -5.89103578989571       -1.78249107417398
H           -6.06537820114037       -5.72583455918813       -1.78633354824141
H           -6.32031640794055       -2.82610992138641       -1.02304969231905
H           -6.29826486215289       -3.01148964718966        0.73977431880481
H           -7.21710973141743       -4.13173616328914       -0.26147464183738
O           -2.49392691031148       -0.24076113763481       -0.10448839275624
H           -0.13356370301369       -5.44042717743887       -0.16344823795099
C           -1.24089261746622        1.80043711092255        6.05180275988519
C           -1.29067655304840        0.42468042005831        5.99038301289306
C           -0.07435456164103       -0.29105115390558        5.94943656612462
C            1.18257941085368        0.36921112688140        5.97048110610339
C            1.16818744428570        1.77821652595420        6.02953115929524
C           -0.01054820143839        2.49058305623679        6.07587727395983
C           -0.09657252528010       -1.68232165312040        5.91531013175300
C            1.10591436994734       -2.38192170576322        5.91117374650555
C            2.32074632095932       -1.64630170696134        5.93889329002723
N            2.34661413446122       -0.30238963131605        5.96164825324055
C           -1.33811581637373       -2.36471815341188        5.92548232395574
C           -1.35306147333687       -3.76833560968627        5.92206233964464
N           -0.14032598900627       -4.43572425912339        5.90043856065352
C            1.09452027134693       -3.79582372607467        5.91095510286905
C            2.29992021688550       -4.46604360765305        5.94500912352153
C            3.52327040269329       -3.76761515739294        5.98397375959955
C            3.51948060076284       -2.38862963025881        5.97118567778562
C           -2.52535755734730       -1.62260916791055        5.96736258995555
C           -3.73406392591280       -2.30792936450611        6.00701980169256
C           -3.77601609493898       -3.70245253693048        6.01233325050409
C           -2.58207337109413       -4.41944831848301        5.96225993632697
C           -0.02430777618796        4.01809408402547        6.17819024580531
C           -5.09850545114068       -4.47087565820526        6.08930924587202
C            4.82442277700842       -4.57007160465507        6.06078930840324
C           -6.31396701156222       -3.53655866359504        6.14753326954942
C           -5.24267681025912       -5.36427335657326        4.84856591163022
C           -5.10460585273749       -5.34607665333063        7.35252110914147
C            4.93422036758559       -5.48535710504001        4.83313281810920
C            6.06361861337571       -3.66587954068386        6.09284981049286
C            4.81863984011239       -5.42264091107596        7.33897894888261
C           -0.68796631571617        4.42632562493450        7.50193632888949
C           -0.81739809225261        4.60727617060351        5.00305454313721
C            1.38900779578505        4.61603813627429        6.14439829979437
H            2.12287089708692        2.27196973713425        6.04723662654901
H           -2.17173259258723        2.34252087008017        6.08913892896844
H            4.43529774931379       -1.82713415698110        5.99769175065514
H            2.29182849057952       -5.54512831783725        5.95200851752427
H           -2.59492703262855       -5.49817396761215        5.96503938765976
H           -4.63698185202602       -1.72464226287023        6.04225287940563
H            1.98332436833348        4.26323499300699        6.98469244496806
H            1.89822424511160        4.35825499603834        5.21796715541280
H            1.33638180556515        5.70208922998559        6.20685585053908
H           -1.85180894052111        4.27283040304498        5.00938640262529
H           -0.81517124811982        5.69527139898131        5.04882267897935
H           -0.36766059530571        4.30370765598922        4.06055928916700
H           -1.71619565839536        4.07576044486703        7.55350581042757
H           -0.69503544544631        5.51061734692309        7.60367872908500
H           -0.14251238592778        4.00725002129247        8.34558123611255
H            4.11041035602884       -6.19381245635797        4.78527016335686
H            5.86397763658776       -6.05158432585547        4.86024502197623
H            4.92302527295300       -4.88813689944865        3.92413676131735
H            3.99383134279953       -6.13175184069079        7.34095520669623
H            5.74667971301655       -5.98618939575397        7.42274593120890
H            4.72345069216883       -4.78772639458914        8.21789863228553
H            6.96678877825723       -4.27228145252043        6.14518947856249
H            6.12191891291034       -3.05480809511160        5.19455169754676
H            6.04759808887379       -3.01421784324177        6.96388213629674
H           -4.98339314877849       -4.73095956668417        8.24201355835058
H           -4.30145367968045       -6.07913034819239        7.33427746197677
H           -6.04752273163939       -5.88426402860653        7.43529568013620
H           -5.23047603679508       -4.75456981942448        3.94778864217823
H           -4.43562026557707       -6.08994094134447        4.77985459827984
H           -6.18401471490449       -5.91063829845490        4.87888350087105
H           -6.36835159325428       -2.91322441665996        5.25727674502045
H           -6.27208085078402       -2.89822641807171        7.02753629919823
H           -7.23112656185735       -4.12075733757842        6.20244253703527
O           -2.50571805516526       -0.24351352913277        5.98716157871954
H           -0.15244876478128       -5.44654346619895        5.90647178720467
136
 energy: -187.533080520311 gnorm: 0.007164537725 xtb: 6.7.1 (edcfbbe)
C           -1.24186281151078        1.79643180139114       -0.14766881594915
C           -1.27787871748409        0.42513014045550       -0.10394747538873
C           -0.06168600208083       -0.28708932712988       -0.07923979430739
C            1.19761791929964        0.37415304275273       -0.09623805952273
C            1.17841066243784        1.78533305193817       -0.13380703312046
C           -0.00318423818996        2.48720962747065       -0.16667758612406
C           -0.07405743023686       -1.67847987363427       -0.07303520696298
C            1.12327377372224       -2.37998646602113       -0.09203884391039
C            2.33732042268921       -1.63701401126181       -0.10980337899203
N            2.35193370291105       -0.29979667681765       -0.10518193899197
C           -1.31837194249849       -2.36130220130560       -0.09633230706084
C           -1.33065202894153       -3.76310383276510       -0.13386952837159
N           -0.12462020806356       -4.42317084071777       -0.13044670909720
C            1.11222929872362       -3.79300522437717       -0.13278329747945
C            2.31225287385330       -4.46046082003609       -0.19486619913149
C            3.53687220347953       -3.75134196994003       -0.21516993000155
C            3.53853467099737       -2.37676545003646       -0.16479013385410
C           -2.50122858888249       -1.61885352353657       -0.11674984924963
C           -3.71521511986407       -2.29322459242906       -0.16778536790668
C           -3.75188688366664       -3.68861905047089       -0.20981771745934
C           -2.55922971906453       -4.41213382207264       -0.19104585749677
C           -0.02290623368265        4.01030282392812       -0.25098348999263
C           -5.06699013131037       -4.45540477209669       -0.31630818584006
C            4.82983560534392       -4.55019531526691       -0.33546854108158
C           -6.29150578791918       -3.54367970497807       -0.20835116836019
C           -5.11661241487271       -5.16779838302165       -1.67591465306913
C           -5.15918268261797       -5.49950454416760        0.80492060321441
C            4.84215068075040       -5.27090343020064       -1.69096031626874
C            6.07470316435198       -3.66305495978374       -0.25477885439506
C            4.91614626079627       -5.58334556720715        0.79490382055985
C           -0.80321482698419        4.58387704836389        0.93812905954389
C           -0.69846716002233        4.43348897743080       -1.56259666417359
C            1.38303428742461        4.61785466134465       -0.22502112831115
H            2.13543754652205        2.27575374340357       -0.14819265743097
H           -2.17438335571712        2.33827839551842       -0.17456819750584
H            4.45016623344252       -1.80689309169222       -0.18090843782309
H            2.30727634762837       -5.54042943653725       -0.23921914529953
H           -2.57248981656518       -5.49152784712373       -0.23283910845689
H           -4.61740306711068       -1.70690894813278       -0.18499848952735
H            1.90345562173827        4.35828148490277        0.69343427411218
H            1.97150261302595        4.28225075834949       -1.07505640673797
H            1.31006489253321        5.70301911279478       -0.27582351994600
H           -1.72604246899828        4.08461899866752       -1.60998650138391
H           -0.70277526888956        5.51896759840054       -1.64454150736186
H           -0.15766093970412        4.02620735307368       -2.41392130177533
H           -1.83655640511220        4.25048171730030        0.94033269179041
H           -0.79746310879619        5.67155624037293        0.89800044983033
H           -0.34041501393420        4.27157547138740        1.87087868797440
H            4.00898453177209       -5.96320477763210       -1.77885745299967
H            5.76664933648067       -5.83393700354715       -1.80510096503246
H            4.77480236466743       -4.54965116937052       -2.50225152624532
H            4.10660662613109       -6.30582100437969        0.74594684550708
H            5.85637149729879       -6.12751392317585        0.73058179469311
H            4.87206028971951       -5.08510648993589        1.75971807970045
H            6.96778293786552       -4.28200503468643       -0.32152642111167
H            6.10050629270811       -2.94925551494399       -1.07384036061561
H            6.10589420378554       -3.12360533323836        0.68848107724082
H           -5.07824594049126       -5.01807203001934        1.77580422610799
H           -4.37525675526640       -6.24696432745696        0.72805958127970
H           -6.11675693424727       -6.01383621418887        0.75430742180013
H           -5.04772321519600       -4.44581410897561       -2.48608829568023
H           -4.30049897914618       -5.87756914675825       -1.78019261714461
H           -6.05453674444065       -5.71065198016612       -1.77650555816164
H           -6.32098060600699       -2.82732832919973       -1.02506541821421
H           -6.29580185308428       -3.00919227310545        0.73841569233015
H           -7.19718491016242       -4.14513019646814       -0.26075654069295
O           -2.48122369944894       -0.25331873073221       -0.10396864934125
H           -0.13747268050286       -5.43119715897282       -0.16755607061425
C           -1.25099227336568        1.79160999332308        6.05473188975183
C           -1.28890453886926        0.42115627407201        5.99183965667513
C           -0.07393561457595       -0.29223798237239        5.95066776413580
C            1.18614788026708        0.36718839022125        5.97264644178379
C            1.16908338897503        1.77764284627402        6.03036211398845
C           -0.01140860922686        2.48055245053938        6.07658088948902
C           -0.08821087434411       -1.68321278212888        5.91662178503159
C            1.10821363790272       -2.38641183782633        5.91324458001593
C            2.32305056086170       -1.64508343691163        5.94166018894861
N            2.33954459733425       -0.30818135343802        5.96452127726032
C           -1.33338638238931       -2.36470263715762        5.92738334286578
C           -1.34780573117060       -3.76708436564594        5.92506063392834
N           -0.14242369997108       -4.42833179312847        5.89993592304111
C            1.09560086767553       -3.80009674715367        5.91437008053440
C            2.29565277791757       -4.46975642574048        5.94863394648534
C            3.52088949375615       -3.76196134527675        5.98608313436395
C            3.52375475016692       -2.38673727191055        5.97332669267437
C           -2.51474989520161       -1.62084309236662        5.96900006519566
C           -3.72974751326177       -2.29388160588329        6.00961893558372
C           -3.76876660947535       -3.68957261369576        6.01419576199335
C           -2.57786421054503       -4.41496697565780        5.96461084861489
C           -0.02875881384303        4.00250325014688        6.17816398355355
C           -5.08580880740429       -4.45675131391467        6.08996898760666
C            4.81467174270795       -4.56490533216863        6.06154597701083
C           -6.30513621167600       -3.53370041763386        6.14831261677553
C           -5.22959279878944       -5.34950091346807        4.84996828891926
C           -5.09266063967799       -5.33208799257229        7.35160428032179
C            4.92320589846128       -5.47789703648034        4.83391530543042
C            6.05730144265489       -3.67154970771091        6.09365989124517
C            4.80874177585620       -5.41595051148977        7.33899859072318
C           -0.69112520125581        4.41076262766624        7.50113391565088
C           -0.82021241281295        4.59065743956344        5.00358700577278
C            1.37759822767229        4.60869927826203        6.14496273825038
H            2.12690320014288        2.26642580993051        6.04699659680890
H           -2.18273017946873        2.33404443967592        6.09338256985489
H            4.43588495300663       -1.81812396191402        5.99926536228681
H            2.29091728401525       -5.55073992041286        5.95601266081937
H           -2.59426349447604       -5.49531070499225        5.96748317471401
H           -4.63060669244613       -1.70647272100133        6.04596219889912
H            1.97349198095545        4.26463374016959        6.98638498126184
H            1.88917677124854        4.35681475757710        5.21940685871281