136
 energy: -187.143854152243 gnorm: 0.097347195314 xtb: 6.7.1 (edcfbbe)
C           -1.02740000000000        3.11070000000000       -0.06060000000000
C           -1.27330000000000        1.75780000000000        0.10730000000000
C           -0.16410000000000        0.87770000000000        0.09740000000000
C            1.15850000000000        1.35120000000000       -0.08310000000000
C            1.32890000000000        2.74170000000000       -0.23260000000000
C            0.26640000000000        3.62160000000000       -0.21100000000000
C           -0.38020000000000       -0.49010000000000        0.22750000000000
C            0.71680000000000       -1.34960000000000        0.15790000000000
C            2.00750000000000       -0.80320000000000       -0.04340000000000
N            2.22870000000000        0.52660000000000       -0.14510000000000
C           -1.69520000000000       -0.99090000000000        0.36200000000000
C           -1.89960000000000       -2.37980000000000        0.44680000000000
N           -0.78640000000000       -3.22040000000000        0.40610000000000
C            0.51470000000000       -2.74790000000000        0.24300000000000
C            1.60880000000000       -3.58650000000000        0.11510000000000
C            2.89450000000000       -3.08210000000000       -0.11490000000000
C            3.07260000000000       -1.71450000000000       -0.18230000000000
C           -2.77690000000000       -0.09100000000000        0.37560000000000
C           -4.05960000000000       -0.62420000000000        0.46840000000000
C           -4.29150000000000       -1.99410000000000        0.53320000000000
C           -3.20290000000000       -2.85740000000000        0.53430000000000
C            0.47090000000000        5.12970000000000       -0.42310000000000
C           -5.73750000000000       -2.51150000000000        0.57580000000000
C            4.08290000000000       -4.01260000000000       -0.39960000000000
C           -6.41940000000000       -2.02110000000000        1.86480000000000
C           -6.50590000000000       -1.98030000000000       -0.64890000000000
C           -5.79020000000000       -4.05060000000000        0.54400000000000
C            4.43010000000000       -3.93180000000000       -1.89610000000000
C            5.30250000000000       -3.57780000000000        0.43240000000000
C            3.75160000000000       -5.47510000000000       -0.04670000000000
C           -0.46170000000000        5.93690000000000        0.50220000000000
C            0.15410000000000        5.46830000000000       -1.88860000000000
C            1.92150000000000        5.54860000000000       -0.11110000000000
H            2.33020000000000        3.09860000000000       -0.37930000000000
H           -1.87420000000000        3.76930000000000       -0.08480000000000
H            4.04640000000000       -1.30870000000000       -0.38180000000000
H            1.44160000000000       -4.64470000000000        0.17760000000000
H           -3.34570000000000       -3.91940000000000        0.59560000000000
H           -4.88530000000000        0.06200000000000        0.47390000000000
H            2.20760000000000        5.24090000000000        0.89440000000000
H            2.62370000000000        5.11050000000000       -0.81920000000000
H            2.03360000000000        6.63080000000000       -0.17350000000000
H           -0.87480000000000        5.20660000000000       -2.13390000000000
H            0.28790000000000        6.53220000000000       -2.08250000000000
H            0.80860000000000        4.91590000000000       -2.56230000000000
H           -1.51020000000000        5.77870000000000        0.25580000000000
H           -0.26610000000000        7.00530000000000        0.41250000000000
H           -0.31220000000000        5.65630000000000        1.54360000000000
H            3.57860000000000       -4.23210000000000       -2.50600000000000
H            5.26810000000000       -4.58480000000000       -2.13870000000000
H            4.70190000000000       -2.91570000000000       -2.18010000000000
H            2.95920000000000       -5.86600000000000       -0.68410000000000
H            4.62390000000000       -6.11380000000000       -0.18230000000000
H            3.43270000000000       -5.56080000000000        0.99090000000000
H            6.13180000000000       -4.27270000000000        0.30270000000000
H            5.65450000000000       -2.58810000000000        0.14620000000000
H            5.04720000000000       -3.55000000000000        1.48890000000000
H           -5.26090000000000       -4.47810000000000        1.39340000000000
H           -5.34160000000000       -4.43870000000000       -0.37010000000000
H           -6.82000000000000       -4.40500000000000        0.58390000000000
H           -6.55710000000000       -0.89250000000000       -0.64560000000000
H           -6.01790000000000       -2.28980000000000       -1.57270000000000
H           -7.52710000000000       -2.36040000000000       -0.66310000000000
H           -6.44660000000000       -0.93300000000000        1.90710000000000
H           -5.88520000000000       -2.37680000000000        2.74430000000000
H           -7.44540000000000       -2.38320000000000        1.92510000000000
O           -2.57480000000000        1.28560000000000        0.27450000000000
H           -0.92690000000000       -4.21820000000000        0.54050000000000
C           -1.34940000000000        0.26450000000000        3.80790000000000
C           -1.23500000000000       -1.11340000000000        3.72910000000000
C            0.06730000000000       -1.66510000000000        3.65550000000000
C            1.22450000000000       -0.84890000000000        3.68730000000000
C            1.02510000000000        0.54270000000000        3.77150000000000
C           -0.23240000000000        1.10640000000000        3.82150000000000
C            0.21760000000000       -3.04550000000000        3.58080000000000
C            1.50770000000000       -3.57780000000000        3.56470000000000
C            2.61630000000000       -2.69970000000000        3.64550000000000
N            2.47880000000000       -1.35540000000000        3.68290000000000
C           -0.92120000000000       -3.88300000000000        3.57250000000000
C           -0.75310000000000       -5.27690000000000        3.49300000000000
N            0.54580000000000       -5.78830000000000        3.44470000000000
C            1.68170000000000       -4.98180000000000        3.51890000000000
C            2.96740000000000       -5.49120000000000        3.59420000000000
C            4.08350000000000       -4.65600000000000        3.72050000000000
C            3.89470000000000       -3.28690000000000        3.72860000000000
C           -2.20110000000000       -3.30650000000000        3.67030000000000
C           -3.29800000000000       -4.16280000000000        3.70430000000000
C           -3.16100000000000       -5.54550000000000        3.63830000000000
C           -1.88680000000000       -6.08370000000000        3.50820000000000
C           -0.40620000000000        2.62030000000000        4.01200000000000
C           -4.38280000000000       -6.47940000000000        3.67970000000000
C            5.47630000000000       -5.29090000000000        3.88300000000000
C           -5.64050000000000       -5.74430000000000        4.18950000000000
C           -4.64830000000000       -7.00180000000000        2.29200000000000
C           -4.11100000000000       -7.65720000000000        4.63930000000000
C            5.80700000000000       -6.10860000000000        2.66000000000000
C            6.57430000000000       -4.22380000000000        4.07100000000000
C            5.47350000000000       -6.19790000000000        5.12960000000000
C           -0.41000000000000        2.92970000000000        5.51760000000000
C           -1.73450000000000        3.10180000000000        3.39300000000000
C            0.74520000000000        3.39240000000000        3.33970000000000
H            1.89990000000000        1.16190000000000        3.82310000000000
H           -2.33640000000000        0.67770000000000        3.87840000000000
H            4.73150000000000       -2.62120000000000        3.82050000000000
H            3.09770000000000       -6.55720000000000        3.57670000000000
H           -1.75650000000000       -7.14640000000000        3.42750000000000
H           -4.26800000000000       -3.71520000000000        3.79490000000000
H            1.69790000000000        3.20160000000000        3.83110000000000
H            0.83870000000000        3.10750000000000        2.29370000000000
H            0.57100000000000        4.46670000000000        3.38560000000000
H           -2.59300000000000        2.73440000000000        3.95310000000000
H           -1.79210000000000        4.19000000000000        3.39100000000000
H           -1.83050000000000        2.75690000000000        2.36530000000000
H           -1.22340000000000        2.40490000000000        6.01800000000000
H           -0.53380000000000        3.99730000000000        5.69740000000000
H            0.52480000000000        2.61370000000000        5.97980000000000
H            5.09670000000000       -6.88930000000000        2.48270000000000
H            6.78970000000000       -6.53110000000000        2.70680000000000
H            3.35410000000000        0.13840000000000        2.00330000000000
H            4.75420000000000       -7.00940000000000        5.02880000000000
H            6.45530000000000       -6.64270000000000        5.29040000000000
H            5.21140000000000       -5.62680000000000        6.01980000000000
H            7.54860000000000       -4.69290000000000        4.20640000000000
H            6.64460000000000       -3.57080000000000        3.20210000000000
H            6.37920000000000       -3.61110000000000        4.95070000000000
H           -3.84620000000000       -7.29170000000000        5.63120000000000
H           -3.29770000000000       -8.28740000000000        4.28330000000000
H           -4.99330000000000       -8.28910000000000        4.73840000000000
H           -4.08360000000000       -0.73450000000000        3.17660000000000
H           -3.79680000000000       -7.49800000000000        1.87380000000000
H           -5.49520000000000       -7.65620000000000        2.25840000000000
H           -5.95020000000000       -4.95870000000000        3.50270000000000
H           -5.46060000000000       -5.29710000000000        5.16680000000000
H           -6.47790000000000       -6.43470000000000        4.28830000000000
O           -2.36890000000000       -1.92410000000000        3.74210000000000
H            0.66810000000000       -6.79730000000000        3.42850000000000
136
 energy: -187.162736771612 gnorm: 0.048009951229 xtb: 6.7.1 (edcfbbe)
C           -1.04082931353274        3.10291482896698       -0.06903270269280
C           -1.27049060159812        1.75159473870288        0.10290923365448
C           -0.16316292423139        0.87752701002717        0.10369272462430
C            1.16423889321244        1.35152005828447       -0.06885992881153
C            1.33340952114673        2.74248208981666       -0.23062503410896
C            0.26321277256851        3.61493819014312       -0.22169218442079
C           -0.37331498354480       -0.49364494038360        0.23288035903475
C            0.71691268755244       -1.35607245822089        0.16071446913330
C            2.01108639170165       -0.80784288994364       -0.03683319368596
N            2.22274771209117        0.52116304173025       -0.11926675041857
C           -1.69074969294064       -0.99191973353751        0.36683974153198
C           -1.89560590641796       -2.37866970896510        0.45261872341977
N           -0.78844674609412       -3.20867846766514        0.41440885534166
C            0.51271016861497       -2.75165427113578        0.24607317773884
C            1.60019940151569       -3.59208391273562        0.11478234260938
C            2.88908893230548       -3.08297095667942       -0.12815653079633
C            3.07426313396217       -1.71707463024933       -0.19313374625714
C           -2.76824225713623       -0.09487891554710        0.37580435928245
C           -4.05475515044782       -0.61235129361334        0.47154176214785
C           -4.28527707525193       -1.99037215642673        0.53575445859732
C           -3.19848118401971       -2.85955945523504        0.53557113362846
C            0.46803622995647        5.12116922658037       -0.41828918192126
C           -5.72565124269702       -2.51044013756181        0.57627889959498
C            4.07591622049121       -4.01178254694265       -0.39641764017237
C           -6.41424768850975       -2.02080501329389        1.85863658519154
C           -6.49479784287412       -1.97914937051870       -0.64546001108623
C           -5.78550832901997       -4.04498930525640        0.54376739641167
C            4.42281222529400       -3.92789496183408       -1.89129715575138
C            5.29466198459023       -3.57821248039405        0.43069310662974
C            3.75172805701820       -5.47067397773157       -0.04869630726292
C           -0.46149324830884        5.93109000521074        0.50042319236529
C            0.15169820494459        5.46014942899647       -1.88278184424587
C            1.91364345101745        5.54443992941454       -0.11178652083832
H            2.33916223608078        3.09568765456390       -0.36894545578100
H           -1.89132277640108        3.76291625245372       -0.08480814260114
H            4.05006801552895       -1.30294147036292       -0.37812501993169
H            1.43217283498306       -4.65326579581009        0.18089927140324
H           -3.34143442903740       -3.92483114517687        0.59708356486137
H           -4.88139979963922        0.07786676683086        0.47581205764498
H            2.20009530529312        5.23697206599433        0.89204979149015
H            2.61501547000965        5.11421907817693       -0.82284507373765
H            2.01079284944451        6.62725031734371       -0.17522503186514
H           -0.87665455296954        5.20106335077838       -2.12768022842150
H            0.28844199729975        6.52474813245678       -2.06727476046480
H            0.80888267075785        4.91026355192581       -2.55421038104666
H           -1.50866120412451        5.77923357050707        0.25256574068698
H           -0.25470618545940        6.99593804118645        0.40345678509356
H           -0.30970258142102        5.64874973357316        1.53943514367904
H            3.57334326505256       -4.23059436890633       -2.50145385584525
H            5.26162796625121       -4.58244837117083       -2.12377185798116
H            4.69564607601415       -2.91278363632708       -2.17196726735687
H            2.96626370935724       -5.86416423836335       -0.69206340634018
H            4.63312288254342       -6.09439366438953       -0.18514522041838
H            3.43771871511026       -5.55281919072592        0.98964974555056
H            6.11656727713182       -4.28016148597937        0.29612273818718
H            5.64753063577463       -2.59163203672710        0.14068725663384
H            5.03501744482928       -3.55148502339571        1.48495550587296
H           -5.26293686637987       -4.48218559491339        1.39205972753374
H           -5.34454549872892       -4.43280075836019       -0.37268129457060
H           -6.81981490935380       -4.38279889444099        0.58235843571570
H           -6.55133509229241       -0.89345268236098       -0.64177957093102
H           -6.00927715089243       -2.29141627929392       -1.56845369423054
H           -7.51287763166391       -2.36584328021830       -0.64974601773949
H           -6.44125855559946       -0.93509384226254        1.90120713389062
H           -5.87642569384700       -2.37099815636836        2.73650922980236
H           -7.43836785290579       -2.38930503793165        1.91067454239915
O           -2.55874661108514        1.26611661976355        0.26450563073749
H           -0.93318405333051       -4.20318492154198        0.53168312192226
C           -1.36046080112380        0.25386568367899        3.81432756755448
C           -1.22847051358480       -1.11596076054704        3.72970192483441
C            0.06977527537923       -1.66348169637945        3.64937429968839
C            1.22647539414379       -0.84148656005311        3.67369344870136
C            1.02598132890374        0.54728380750972        3.77171781371180
C           -0.23547911689576        1.10168660726095        3.83579839457986
C            0.22822554885323       -3.04439851383626        3.57392588570680
C            1.51288844634069       -3.58006756379289        3.55640832332590
C            2.62220704411616       -2.69442113358236        3.62159164469909
N            2.46967108236590       -1.35698057038772        3.64896762767883
C           -0.91258138644184       -3.88309781181248        3.56466513025618
C           -0.74661057822481       -5.27590314117589        3.49451617902506
N            0.54427514762798       -5.77762923064427        3.44228089341865
C            1.68310353382411       -4.98365309728711        3.52166979720315
C            2.96286962698167       -5.49590048358664        3.59909463029729
C            4.07973459275001       -4.64906056031235        3.73056866012343
C            3.90017991014426       -3.28033382548767        3.72279194210238
C           -2.18631114925124       -3.30666407309614        3.66518906971236
C           -3.29269722053914       -4.14787675041482        3.70715076449992
C           -3.15502766017106       -5.53433291193297        3.64060901369990
C           -1.87996701411378       -6.08314557095443        3.50925211685428
C           -0.40872399085005        2.61319196313737        4.00832411337079
C           -4.37574498984539       -6.46067542854105        3.69356504411762
C            5.46923160843917       -5.27555954999119        3.89078584044383
C           -5.63730625597195       -5.73991585102852        4.19631799916200
C           -4.62619654127919       -7.04175597089651        2.33272205659639
C           -4.10636747069629       -7.64772433650198        4.64678930978856
C            5.79990712175917       -6.15163751097646        2.72019951653610
C            6.57289723876315       -4.22344898601015        4.07642853820464
C            5.46580016034240       -6.19269948236454        5.13389162256124
C           -0.40915820414465        2.91969589585752        5.51382768077620
C           -1.73285074005853        3.09899257481605        3.39873006630559
C            0.74193949258906        3.38494287953289        3.34328923469763
H            1.90799475982988        1.16248426628713        3.80264338834665
H           -2.35587044050723        0.65924140019227        3.87108518634453
H            4.73376691070664       -2.60863697306168        3.81473776063863
H            3.09459122009770       -6.56669002742513        3.57835841301001
H           -1.75156188286061       -7.15071733633024        3.43149897042534
H           -4.26181246743733       -3.69324034971336        3.80130257555362
H            1.69193218489716        3.20049411536653        3.83891662240610
H            0.83772336940421        3.10217411994623        2.29797298406289
H            0.55595605509230        4.45662104683394        3.39505749911804
H           -2.58999936309512        2.73861321037556        3.96248220817623
H           -1.77522744111118        4.18674068994048        3.40033740698988
H           -1.82713593990611        2.75837650399330        2.37205313086673
H           -1.22342622108761        2.39817090255055        6.01376103942838
H           -0.53245033488708        3.98840087482977        5.68335825339855
H            0.52719549302830        2.60649091508264        5.97243884164801
H            5.06591339311105       -6.89509682912621        2.43299143713354
H            6.82275708573450       -6.51091580845287        2.66438706218972
H            3.31496727256189        0.10956053476353        2.04333368419911
H            4.74971765497561       -7.00562733181908        5.03086360871668
H            6.45124108340661       -6.63211106590983        5.28349187315773
H            5.20656881833770       -5.61490789683916        6.01861493309642
H            7.53704371849088       -4.71177299090685        4.20855871540310
H            6.64551418488077       -3.57995182225852        3.20293457873713
H            6.38110233192688       -3.61171522739996        4.95539784511388
H           -3.84380884548959       -7.27880074296871        5.63619638853241
H           -3.29991269601413       -8.28302119279325        4.28715837400964
H           -4.99592264027587       -8.26985948995083        4.73477652682418
H           -4.13236712848072       -0.69231470399979        3.14959716667333
H           -3.77146959778276       -7.47394447204282        1.82503241420754
H           -5.53183596081982       -7.62927743520251        2.22880346481584
H           -5.95225279278246       -4.96532923526521        3.50216051512469
H           -5.46053309143362       -5.29268465910160        5.17247497458012
H           -6.46069397809821       -6.44621284462070        4.28809518246157
O           -2.33776207197864       -1.94196804981828        3.75611651239115
H            0.66411872974536       -6.78201235988410        3.42964337967460
136
 energy: -187.172186786645 gnorm: 0.029686328299 xtb: 6.7.1 (edcfbbe)
C           -1.05184026896055        3.09412021619710       -0.07425153006400
C           -1.26865995640932        1.74456810083332        0.09948370043410
C           -0.16138341984481        0.87587462058646        0.11212367762003
C            1.17038366841257        1.34930161806062       -0.05262131130325
C            1.33661159331638        2.74156442280525       -0.21738540384643
C            0.26071940306868        3.60552968754261       -0.21944659759017
C           -0.36566943745786       -0.49695956531356        0.24212447448295
C            0.71819861269145       -1.36243586792233        0.16775356399121
C            2.01490202412573       -0.81190145315122       -0.02682111346690
N            2.21840655251045        0.51505308053698       -0.09331760683988
C           -1.68558363695862       -0.99236128026360        0.37481102297182
C           -1.89067449302825       -2.37748111516373        0.46167106600148
N           -0.78941256440750       -3.19986396789310        0.42675573145994
C            0.51155039173006       -2.75675245957674        0.25047544437111
C            1.59304459497022       -3.59873989274220        0.11656961275683
C            2.88364966336554       -3.08389075651264       -0.13035667317344
C            3.07575830519755       -1.72060697752024       -0.19443081605709
C           -2.75999316794474       -0.09636479121042        0.37669954367957
C           -4.04905171199366       -0.60144794950138        0.47447703551856
C           -4.27690987686442       -1.98461466666177        0.53958861837820
C           -3.19372216653570       -2.85859839354883        0.54010040800544
C            0.46267216204929        5.10786521900527       -0.41577788112370
C           -5.71142162831313       -2.50567118087661        0.57647453626426
C            4.06569563988163       -4.00980563968765       -0.39757983493827
C           -6.40687716550805       -2.01856215503111        1.85338739706916
C           -6.48031563864345       -1.97696353196952       -0.64471557428167
C           -5.78032857828441       -4.03667618906604        0.54110535043301
C            4.41464098128829       -3.92372521670955       -1.89097348348206
C            5.28308812124165       -3.57856988576195        0.42813815375494
C            3.75164790190229       -5.46696997184792       -0.05249252023770
C           -0.46249742391153        5.92042407334308        0.49975167424785
C            0.14687498481591        5.44921853700267       -1.87950078658613
C            1.90324965300595        5.53827220506422       -0.11240307679974
H            2.34545070030766        3.09160290575782       -0.34879336707707
H           -1.90376522509569        3.75452521913084       -0.09170150009216
H            4.05054760603963       -1.29960329860079       -0.37588638653642
H            1.42576976932076       -4.66192118300118        0.18379259735902
H           -3.33763110226559       -3.92551109787823        0.60010199249709
H           -4.87490701679310        0.09119920505435        0.47933047014658
H            2.19328072667611        5.23172264606475        0.88963402498828
H            2.60505878621772        5.11800561329868       -0.82717024043749
H            1.98388731014817        6.62216474266110       -0.17536055574107
H           -0.88082883900732        5.19146054309335       -2.12339412296551
H            0.28600530030423        6.51466970547796       -2.05544724021202
H            0.80649362160151        4.90096034801836       -2.54833937978463
H           -1.50924652812739        5.77673482781923        0.25096613484808
H           -0.24370905910654        6.98181574094438        0.39601836844062
H           -0.31011143181380        5.63861980986749        1.53778014498714
H            3.56622304563473       -4.22764105497117       -2.50057834566660
H            5.25462614200010       -4.57867340557282       -2.11624768609170
H            4.68618409799315       -2.90830917686860       -2.16640543970622
H            2.97360287863530       -5.86596063774107       -0.69981922385439
H            4.64264658173969       -6.07610195944912       -0.18982685781773
H            3.43959739400044       -5.54879358079559        0.98575966980815
H            6.09797743616095       -4.28725881461204        0.28994402420001
H            5.63889037152291       -2.59567636830465        0.13493730789868
H            5.02091097602886       -3.55119836137394        1.48097206925993
H           -5.26431932423378       -4.48329907957089        1.38817679545534
H           -5.34663054698790       -4.42615142589999       -0.37739749495036
H           -6.82011174734558       -4.35680454334228        0.57937358380772
H           -6.54059803916655       -0.89301365144696       -0.63946346021013
H           -5.99623338172974       -2.29068227733563       -1.56717984923997
H           -7.49576087205034       -2.36962443326430       -0.63985363937817
H           -6.43584376408552       -0.93463068269285        1.89463905071981
H           -5.86657938840562       -2.36139978647329        2.73145721909065
H           -7.42822656088834       -2.39511000130925        1.89648702531735
O           -2.54627756182114        1.24982800002178        0.25280906328099
H           -0.94009623822988       -4.19414654382194        0.51927182791614
C           -1.37200987402791        0.24339833512760        3.81684183940195
C           -1.22450279606533       -1.12023051152462        3.73125608847819
C            0.07320412008983       -1.66272634754768        3.63975230638324
C            1.22910289729008       -0.83501172707780        3.64777046780202
C            1.02318219749567        0.55030473256214        3.75504306757728
C           -0.24126029514156        1.09461744444229        3.83364898954238
C            0.24070582786131       -3.04223552060587        3.56156736763429
C            1.52160270173105       -3.58034637597178        3.54020703910581
C            2.63197162510907       -2.68785666123634        3.58686293636595
N            2.46425375061623       -1.35703629617098        3.59476638671510
C           -0.90260219171725       -3.88143505357727        3.55654039510254
C           -0.73819639001923       -5.27375585531803        3.49250568776159
N            0.54619440603086       -5.76785715078389        3.43778953622999
C            1.68794202911760       -4.98463163398270        3.51974094975743
C            2.96199369132388       -5.50035528522751        3.59824982481102
C            4.07962845718289       -4.64491347094947        3.72469049091325
C            3.90972407636369       -3.27624543057981        3.70291071049283
C           -2.17177778775881       -3.30242216432330        3.66524963064654
C           -3.28613308737210       -4.13399319836187        3.71190536978255
C           -3.14668762570499       -5.52224897045454        3.63974251972201
C           -1.87199460117047       -6.07963624561136        3.50830081378524
C           -0.41225481011727        2.60086396678514        4.00858179757181
C           -4.36291154168334       -6.44766799502960        3.69519332418884
C            5.46110540552467       -5.27506285835830        3.89018141997379
C           -5.62754359708793       -5.73783932457800        4.19425807100503
C           -4.60691036406421       -7.05391246035242        2.35557928639252
C           -4.09749597243459       -7.63207969412927        4.66298696442766
C            5.79199864871262       -6.17456334281424        2.75477083860998
C            6.57022020332611       -4.23500261983500        4.07544918234602
C            5.45391788277426       -6.18356995033135        5.14903216011082
C           -0.40828807353981        2.90606238000206        5.51458157167127
C           -1.73175909059132        3.09415440413419        3.40658411596999
C            0.73600477635402        3.37546039180025        3.34917736090794
H            1.91077456907267        1.16131559977241        3.76832352167338
H           -2.37374145173412        0.63903820274776        3.86563386706658
H            4.74000427224430       -2.59916826353352        3.79561361552363
H            3.09507065666101       -6.57341696698830        3.58384369017966
H           -1.74657406184221       -7.15013019029561        3.43680095699217
H           -4.25235722312823       -3.67206458194843        3.81043318148300
H            1.68341194287520        3.19854007519980        3.85018387066353
H            0.83725270030163        3.09600532377689        2.30408062737377