116
 energy: -22.928061455056 gnorm: 0.329736929581 xtb: 6.6.1 (8d0f1dd)
C           -3.31122850772930        0.79849766164622       -0.92477639677520
C           -2.44380812530352       -0.12270372891954       -0.27661132624697
C           -1.41337090092821        0.39579727573559        0.56335275196199
C           -0.89266158675590        1.65801491088749        0.27377586709581
C           -1.72665675402493        2.51431363229076       -0.49448366572522
C           -2.95444148494349        2.13954154133227       -1.01494489940871
C           -0.74098268209890       -0.43411532818871        1.49825021926784
C            0.56872586496315        0.03782116815119        1.86248088067890
C            1.03782416582094        1.29402317993033        1.50887470833621
N            0.31238977034758        2.07067427098208        0.65193736800696
C           -1.29695700510141       -1.39996043042223        2.41574187746061
C           -0.38243517664656       -2.18060797534842        3.13232615520648
N            0.91308504082021       -1.90366887689689        3.30325166013478
C            1.37712470144904       -0.74872102533751        2.81811050966982
C            2.52149331701875       -0.17739833758153        3.39379298866852
C            2.95849061756259        1.02681208890480        2.95105897606587
C            2.24288949469137        1.78498308775960        2.03503020483770
C           -2.74860936222260       -1.74497937691422        2.38401158947411
C           -3.09416315450955       -2.91614440870436        3.00571134491758
C           -2.16786021984049       -3.77788778654213        3.63251872101904
C           -0.85708937311598       -3.40495313382985        3.68547234358092
O           -3.71994433332149       -0.94984598373544        1.67726658385724
O           -2.55702603277562       -1.47241711578389       -0.57241635275616
C           -3.84297843593025        3.13357444054366       -1.60938954875544
C           -2.68769581069131       -5.03867041417370        4.30484659386931
H           -1.39666850744143        3.51251503834900       -0.76806311868865
H           -4.27662633836220        0.55105838579656       -1.33106614114542
H            2.66329581305412        2.73912661909249        1.72562431984580
H            3.05775395548473       -0.69369546277216        4.16536137542516
H           -0.24710966264510       -4.12034095424229        4.22946223699121
H           -4.11477991332403       -3.04712728052358        3.03244694615357
O           -4.21824883374556        4.03433712717988       -0.87713382485991
O           -4.44510595673734        2.90643496899600       -2.81853501752979
C           -5.44216520282800        3.83300025693726       -3.02488532025093
C            4.23586651889298        1.50004220933226        3.59165660008449
O            5.05927614697201        0.66079890002952        3.91714215179376
O            4.47001334453535        2.86385149488593        3.72605651435371
C            5.79457498613219        3.08584475587818        4.15829123132174
O           -3.82227255313510       -5.27347675879771        4.16636005494405
O           -1.85023202017753       -5.79767454267276        5.06656077253571
C           -2.55119635829503       -6.86252441382958        5.62930343183426
C           -5.07197156564436       -1.42399175670916        1.58830531863830
C           -1.33089900128490       -2.23622472573986       -0.99264499351172
H           -2.54510546830388       -7.76426885143998        4.99136022291012
H           -3.57194749219491       -6.44405511486021        5.74196173723541
H           -2.09133598235598       -7.02043774843818        6.64022264233588
H            5.72707967266424        3.46798026205549        5.10135971236643
H            6.34060091246885        3.78468702308830        3.50069950143490
H            6.17933064298187        2.03010500085905        4.19342358084693
H           -0.91862729772622       -2.57650129080332       -0.01361370304871
H           -0.49769766914251       -1.60651221708571       -1.34094446550576
H           -1.52632419730509       -2.94569707152159       -1.75361447637286
H           -5.11788846557077       -2.41810833635233        1.17520213188926
H           -5.67929807973498       -0.69619639428435        1.04301666067831
H           -5.57598832326623       -1.42383358739762        2.57928294206544
H           -6.13050215934830        3.76035386975488       -2.23272855695873
H           -5.86615610071888        3.45938329385866       -4.02668959924245
H           -5.13479557532099        4.87790991548477       -2.98314551356402
C           -1.38192942069774        3.73616555005018        2.91232598411686
C           -1.84821468128685        2.59982427735607        3.49755545445181
C           -1.05946531454833        2.05730632010638        4.60922730982276
C            0.19893954712228        2.69376791964407        4.86302140881997
C            0.50425395911860        3.94630308659851        4.28768785650746
C           -0.26031777722226        4.46998310053134        3.25072669343212
C           -1.20488993561782        0.74454293276906        5.14851520323437
C           -0.06287609782692        0.02744069315890        5.60930570802864
C            1.19208754369866        0.71421540266195        5.78882868583885
N            1.19428660993148        2.06344359410476        5.62744624321596
C           -2.41361422770794        0.07928500213936        5.25249410304426
C           -2.45851584031083       -1.32662100968547        5.60237876023992
N           -1.29466212405906       -1.98318595734370        5.89916817085159
C           -0.14475655767527       -1.32117560077092        5.98824682881008
C            0.97209270935794       -1.98958449505532        6.53157704134458
C            2.21982707914082       -1.36973967291181        6.68703967237737
C            2.30561929262884       -0.09745313075593        6.26436900324455
C           -3.73018485967715        0.71367583494582        5.25810242262992
C           -4.89964478833448       -0.06184623426677        5.21204641615509
C           -4.82617965800088       -1.39228978090841        5.46901303780036
C           -3.67144193418464       -1.98914944386360        5.67265433266067
O           -3.75568638935321        2.07705011038914        5.52067969627343
O           -2.94192434743730        1.91263938797883        3.01658762327703
C            0.21273512614467        5.50086066357994        2.34765104514621
C           -6.06660304520411       -2.17604633098929        5.80641622556876
H            1.41756699010566        4.38133362238595        4.66974005703471
H           -1.82880610647429        4.11982501512100        2.06992133318584
H            3.26888037378556        0.32655662585251        6.31721410015598
H            0.87146188387207       -3.08471526305024        6.57830423410869
H           -3.67716811065157       -3.05999292755990        5.83019634570050
H           -5.77379677507622        0.43595144608221        4.71017130754348
O            1.34459852619901        5.82615848916894        2.44941456579099
O           -0.74718748219123        6.07961784856304        1.59848183464284
C           -0.21473095568964        7.24015934882472        1.05753806029483
C            3.53228080814219       -2.00967610361154        7.02506769044485
O            3.64093082622715       -3.14437803815732        7.50071391725347
O            4.56565258381079       -1.22937033368332        6.69086985080897
C            5.72579357310716       -1.80692399125161        7.22246151275881
O           -7.04801223588612       -1.95726935745904        5.14194115322235
O           -6.01514389321278       -2.93743591896022        6.94765316328794
C           -7.21292732384718       -3.62681918543340        7.15115816329978
C           -4.95459780685163        2.65960679932188        5.86868674392943
C           -3.68284113682406        2.59129188358641        2.05479246020704
H           -7.43119628931628       -4.22607794725959        6.20622607140901
H           -8.06548455146707       -2.91765848248592        7.29781126410398
H           -7.07314693247270       -4.33087306029711        7.91223421050944
H            6.57332189837178       -1.29353136199234        6.78341268688262
H            5.74663761932316       -2.84282155125561        6.88089468184451
H            5.69426191474290       -1.72781984964892        8.29460302186842
H           -4.10481209541493        3.44288266176275        2.60483747673152
H           -4.49244774344916        1.87419893016926        1.82433103764650
H           -3.18901540870812        2.85154642679373        1.06781919454921
H           -5.55414326821421        2.76698137191684        4.93950725322359
H           -4.78658370641210        3.62090640967288        6.25983200635257
H           -5.43485580473958        1.97242995129449        6.65265772412460
H            0.89164886030839        7.38838561720231        1.13776105146914
H           -0.62894889903848        8.04195665205089        1.64837664327952
H           -0.59282546386754        7.45699159724320        0.03719083132488
116
 energy: -22.816115079090 gnorm: 0.394280211839 xtb: 6.6.1 (8d0f1dd)
C           -2.72491118405376        0.56589687425851       -1.91496572889187
C           -1.99271135506086       -0.38855069339453       -1.17139041681685
C           -1.08221322171252        0.04606183476903       -0.15086972649039
C           -0.66878046311240        1.42381588256694       -0.22185732094998
C           -1.36136787098796        2.32573164598650       -1.09027625916016
C           -2.51678012975629        1.94713477615087       -1.77514697382490
C           -0.47994818574053       -0.82431281568729        0.93189609441651
C            0.77412557381070       -0.27224330093364        1.36538761617025
C            1.20709902886042        1.04056662244984        1.10135418747651
N            0.51990481190979        1.90639496889084        0.31161772130350
C           -0.92689819366054       -2.06358182576501        1.59368857856215
C            0.03039425776110       -2.83893678191170        2.36292308953445
N            1.31236836260731       -2.35794113015499        2.65225343909951
C            1.58061530779962       -1.05998994577434        2.19228721337688
C            2.82591230198126       -0.52845134064657        2.62400510832021
C            3.25972830469687        0.74607827191821        2.37838473363098
C            2.36492399275638        1.54555292458641        1.73874817754826
C           -2.23064206403226       -2.68540166321084        1.26696060537884
C           -2.53536171302374       -4.01287754894462        1.54931318382269
C           -1.65860760189788       -4.59677635154038        2.49232313319730
C           -0.36605290384303       -4.05182576430798        2.80602235330468
O           -3.23111948082644       -1.83539106966029        0.83025521377470
O           -1.95466626489774       -1.73012812587978       -1.78596921043257
C           -3.34362648551404        3.00815022000061       -2.37271179822212
C           -2.02623383023428       -5.93024382463421        3.09086212114399
H           -0.95932580909813        3.35095998969613       -1.18771969072946
H           -3.47333228925248        0.20328627807832       -2.66913631002634
H            2.64169675388649        2.62904606237016        1.78004484834735
H            3.46744243536939       -1.10037950898818        3.35750461460715
H            0.42768238903700       -4.51003708874503        3.43459510081228
H           -3.46904352196872       -4.37154018042545        1.28890243940848
O           -2.92111312676880        4.11278417330493       -2.60526103400136
O           -4.68312196537570        2.71552059845526       -2.52521190247188
C           -5.38565383433098        3.79427819523296       -3.06070880163372
C            4.48998581077185        1.27486771893206        2.88865752040583
O            5.32099414549816        0.57790110509640        3.41996486916000
O            4.67989456546957        2.64382231044861        2.54254327405913
C            5.45670883561392        3.29272966773999        3.53643416516022
O           -3.01136474024540       -6.56378240346040        2.80756904020391
O           -1.07770759375913       -6.31854985692344        3.96887764235398
C           -1.35263492062147       -7.65317264088995        4.46264184361642
C           -4.43394147242129       -2.09149644002627        1.52027839607214
C           -0.72273190280956       -2.34729943545733       -1.93233077752602
H           -2.07379231281590       -8.23056127277341        3.90077779789379
H           -1.75793917256910       -7.62847999969282        5.51094752877798
H           -0.48614926338359       -8.39156882936211        4.34690012167314
H            5.02815017777130        2.86452271299704        4.44655752298818
H            5.42867283078849        4.40531731504437        3.45744132627125
H            6.29945502503289        2.72771481906180        3.46076028086718
H           -0.77172697818441       -3.02894911806306       -2.83096262964002
H           -0.44948987354409       -2.97396488174406       -1.18863354936538
H            0.01184259787552       -1.55408961273381       -2.06905431990650
H           -4.22132564792311       -2.53485245067163        2.48287689096540
H           -4.94760677628273       -2.84510244164791        0.98049921265878
H           -4.94268357851603       -1.07353630157232        1.54380785156287
H           -4.74833015672263        4.57297397767412       -3.25816290088877
H           -6.07040962024897        4.16478394918894       -2.26673679235542
H           -5.92702465912867        3.44655224915276       -4.00684518142303
C           -1.90908155528042        4.08367964059605        3.51421784663607
C           -2.17968879321328        2.75385180860288        3.90951621049398
C           -1.19108826299157        2.07086616610230        4.65701656696289
C            0.14901742716741        2.45644734739657        4.55709274712936
C            0.42212651260962        3.67205819649215        4.03057064867810
C           -0.59326626729561        4.56336854467614        3.61303449581521
C           -1.46249979042884        0.88958326532252        5.38167357429375
C           -0.36712118806491        0.02315010464718        5.53902641466323
C            0.91752764333373        0.48976382642779        5.33109856581417
N            1.32909396744516        1.69265373752009        4.87104803191647
C           -2.74139912386938        0.47563148416926        6.06959769712834
C           -2.92777701709555       -0.91174366248393        6.35245083400771
N           -1.85060144582760       -1.73087631606029        6.31813604101137
C           -0.61626944527281       -1.24425123538844        6.05471908933204
C            0.50446008714082       -1.99058897150075        6.47563296874982
C            1.73862064614686       -1.42153421537402        6.59989796343819
C            1.98195443611007       -0.27467218156681        5.88902503778460
C           -3.75379783660927        1.40726930131634        6.40904971580928
C           -5.02787043071445        1.00776444646796        6.74736437747611
C           -5.20447268899173       -0.34417307899711        7.06351485860856
C           -4.16487816207049       -1.28325186186237        6.85121705076729
O           -3.41210768851553        2.80264306076493        6.41011853499985
O           -3.30890692323519        2.04146461648618        3.57919990021619
C           -0.43817625579596        5.95548173971912        3.14810063858789
C           -6.37440775318944       -0.78375463877473        7.84999647637674
H            1.37310147406059        4.13925851336020        4.11867941688132
H           -2.58108973416096        4.82933674589803        3.03312541188030
H            2.85077480079513        0.21106996231952        6.13845666286381
H            0.31297025887168       -2.90167499246861        7.04958931572513
H           -4.40606617487754       -2.34861045274645        6.89116557851685
H           -5.93247313131635        1.60881802738418        6.84076592412141
O            0.61691023174411        6.54648814825841        3.38694010487275
O           -1.53092320240569        6.39174084876389        2.47686360870823
C           -1.31044409176417        7.78717281644805        2.04522643067596
C            2.82699884927510       -2.04879233469377        7.35565856587827
O            2.71877077023022       -3.24697647644496        7.61351262388522
O            3.71853314025353       -1.09051711981465        7.87819429157373
C            4.35121736845779       -1.68095551278372        9.01150624599503
O           -6.76416818680470       -0.18717241968252        8.88347902721177
O           -6.88662871816321       -1.96940576349165        7.50907540223295
C           -7.75927644628117       -2.36815249762202        8.39725315205442
C           -4.36330122162433        3.75554362345595        7.11998803010293
C           -4.23639207809947        2.55538631564441        2.64787569913135
H           -8.79873353062705       -2.59813374044532        7.82919704555895
H           -7.90235238855049       -1.67594286244603        9.30863816520686
H           -7.28915444447831       -3.29491239777908        8.80322448094225
H            5.36992809994621       -1.97687428746472        8.60932858050287
H            3.94125263667968       -2.60799271640236        9.48985923870467
H            4.40047294461013       -1.09852659943906        9.95278603979543
H           -5.03049333284756        3.14464634411184        3.09242187527656
H           -4.79034890672877        1.65939350710972        2.53668326240402
H           -3.73134712846846        2.76230525789555        1.74944076017054
H           -5.36272047599653        3.93355955073580        6.72144389058198
H           -3.91567843217259        4.81373001651469        7.02062887557584
H           -4.69832530468064        3.42033342862195        8.14483708402870
H           -1.05174542856307        7.89850179973244        0.95120364956426
H           -0.59609212581250        8.25654175400914        2.64636819841705
H           -2.19849171067364        8.33059611268323        2.24195051789713
116
 energy: -22.822667047213 gnorm: 0.385986883431 xtb: 6.6.1 (8d0f1dd)
C           -2.86028657808640        0.22968198886684       -1.19455692724324
C           -2.00994228166286       -0.53905305068645       -0.38384048116963
C           -1.26476823103805        0.13657201899497        0.72793747944389
C           -1.09792251536349        1.56045334154039        0.79842703818496
C           -1.79320222326842        2.21920225628193       -0.25110416515225
C           -2.67626180427556        1.57905994182789       -1.10772376669905
C           -0.58374746471531       -0.62978480964881        1.69422227045243
C            0.65688964188654       -0.11037769359925        2.09574699381530
C            0.81201413805903        1.33494753630812        1.91966939638563
N           -0.02973439300948        2.21224246079525        1.36803991643463
C           -0.84665933877050       -1.96230325329041        2.11392413431908
C            0.27762190892777       -2.80459692910197        2.53114227824602
N            1.44464251460713       -2.24363165110759        2.96334955559895
C            1.59413653017389       -0.98356033954187        2.71533424688600
C            2.80756802388028       -0.40264122620270        2.99651161610843
C            3.03382012278462        0.92408235084556        2.65766534665973
C            2.00795519915522        1.85943407955489        2.33163981346955
C           -2.13500081948468       -2.51444745389729        2.07337222408296
C           -2.28149652711236       -3.92293288010901        2.23516580732640
C           -1.18119640747197       -4.72648740339423        2.42517084027154
C            0.03560068589106       -4.17533276578179        2.60389794383558
O           -3.17450647764524       -1.73899890187641        1.61395003591858
O           -1.69041964330165       -1.85411810130229       -0.75006925689252
C           -3.62313815305356        2.40109051697093       -2.04870340830834
C           -1.35819850615393       -6.18992709245148        2.27568420352662
H           -1.66086404958322        3.27799460546104       -0.45887111727463
H           -3.44875385422000       -0.26529667916789       -2.01954385418837
H            2.20119430563154        2.91722045359095        2.27509661914273
H            3.62662891014018       -0.95278892042592        3.41748122516413
H            0.93868217951179       -4.79403310209155        2.59865615829788
H           -3.18649986771130       -4.48372315341158        2.27601907796671
O           -4.31994385112644        3.26033295435245       -1.53897788303830
O           -3.61416642895245        2.06496805324244       -3.40722423544561
C           -4.55121950053393        2.85067038479233       -4.18599388340119
C            4.35209466877653        1.47259610794717        3.30960067774050
O            4.40886911259822        1.20068500200225        4.50406331066703
O            5.13961455744629        2.21675072875021        2.45761631405241
C            5.93550727867937        2.92699776332290        3.28901788046572
O           -2.42451794520532       -6.79238307157361        2.55039061252714
O           -0.16417344032747       -6.83861850169679        1.84830571937628
C           -0.14120384014219       -8.21892579101726        1.98927845467618
C           -4.33463081805302       -2.18111505581254        2.08411654682567
C           -0.32713528888463       -2.01032021827005       -1.16005675490705
H            0.28548228914826       -8.50244360182102        1.03268783005976
H           -1.11832105769473       -8.57978075544139        1.90534729752343
H            0.28847158113486       -8.63670091058279        2.91843345847555
H            5.26597567868074        3.61444094687715        3.90696653037636
H            6.79871114262924        3.51777035086253        2.79053673016740
H            6.47241277268102        2.20509173851205        4.01351080076129
H           -0.22664696613139       -1.81967464809556       -2.13039437941694
H            0.05771843197564       -3.03834512100830       -1.18311289247029
H            0.38247796414658       -1.32914444506281       -0.54264603675123
H           -4.99428058100739       -1.33676245036929        2.43537908906398
H           -4.16000934867275       -2.98966316447261        2.79042547744413
H           -4.96250556648517       -2.68319137609364        1.32926148966155
H           -5.52196599834836        2.36410745931102       -4.11381070398628
H           -4.29593948248603        2.78860158164793       -5.21594884992000
H           -4.39854722700086        3.86739381134957       -3.69258560272457
C           -1.92249473537024        3.99371885790837        3.09173728042127
C           -2.29818061274889        2.94487889353129        3.89681021854782
C           -1.28413210823305        2.41378026742615        4.85856339569209
C            0.09391659224216        2.83746325955620        4.85047771144738
C            0.31131793687205        4.13346461949850        4.11964079804699
C           -0.67451809271394        4.57081191485360        3.21192636337004
C           -1.57146971924856        1.35524655487367        5.67556235998875
C           -0.48140476108765        0.54268808728972        5.95754441722675
C            0.89407637459633        0.94482719267988        5.86467343756575
N            1.13313539849128        2.19788081748457        5.39710418725726
C           -2.86609000607861        0.94111423956554        6.13890448332148
C           -2.97350251987129       -0.34971944338951        6.73176424087407
N           -1.96646403955718       -1.22218986702672        6.69085304875130
C           -0.71461012393226       -0.77777779136455        6.54341017956097
C            0.34176454689756       -1.57932137137439        6.95837710657609
C            1.65880283430131       -1.19630980392311        6.72429951549137
C            1.98176518201568        0.09315557244785        6.31541500098360
C           -3.94214647328546        1.92611918718135        6.56188126898911
C           -5.16364052395121        1.40271375840648        6.97885483561220
C           -5.24492711501872        0.08391785033242        7.30594520635753
C           -4.11721583404124       -0.73798476915820        7.33917074306181
O           -3.56783872791065        3.22352563415966        6.67996689836194
O           -3.54979450919553        2.23942324720294        3.74952437717881
C           -0.30185114877460        5.84317564035902        2.49185048520900
C           -6.63554072271910       -0.33303441879271        7.72810843198627
H            1.31707797991026        4.48024982030323        3.95219136210763
H           -2.46963690867558        4.50108563323327        2.25337657849091
H            2.92362382222086        0.36606953618001        6.07099972903066
H            0.14849350024832       -2.63175977862613        7.15559337250275
H           -3.98009735142132       -1.70251397107309        7.80467669000116
H           -5.95906527773463        2.12162970023801        7.00295321221663
O            0.76544837939803        6.06964040293218        1.97955706463688
O           -1.44092296092658        6.62378333519990        2.20994926433003
C           -1.13266460120693        7.35736373474277        1.11405628971383
C            2.54091879439388       -2.34210169173730        6.47310441787878
O            2.40604899928896       -3.00474271496253        5.45490570941347
O            3.35322698604269       -2.66360910228124        7.48800790858486
C            3.92273617276144       -3.92280079582503        7.23200597441213
O           -7.60917832581568        0.20601052790514        7.35507680827922
O           -6.70282689950133       -1.49596650691247        8.44709714111644
C           -8.03550727600663       -1.93217072667363        8.64510778894982
C           -4.60988052446552        4.19975227510845        6.78957261437047
C           -4.47657536404410        2.79874071748726        2.77925349836050
H           -8.67958492556894       -1.19442217744104        8.09507143926164
H           -8.22707362157380       -2.09154401877035        9.69469883918430
H           -8.16563023561093       -2.89895833821709        8.18880149201914
H            4.27029791780548       -4.12618413071629        6.18346706393490
H            3.20578414703260       -4.71086501205648        7.47176815275607
H            4.68295367170816       -4.03174731641078        8.08519119131532
H           -4.60928005056154        3.86446127442466        2.96680458014662
H           -5.40981076100214        2.23633628782499        2.78639695224105
H           -4.28428057424215        2.73590363114327        1.66374976594969
H           -5.14369492979136        3.96912581127816        5.85642555058070
H           -4.28846985633476        5.23997637168425        6.64941696593512
H           -4.96549915265242        4.08531092249740        7.87080431964328
H           -0.57236849432101        6.69465245363695        0.42835176092776
H           -0.53093437091490        8.33385683975237        1.29157622616083
H           -2.13255335649021        7.68638528382888        0.67194296669133
116
 energy: -22.848576870342 gnorm: 0.378633304451 xtb: 6.6.1 (8d0f1dd)
C           -3.16929411236542        0.73892227114385       -0.55020235164935
C           -2.36756254353607       -0.28504828634502       -0.00762247474634
C           -1.19938554903115        0.18738129856621        0.64208600728843
C           -0.87111830740759        1.59966958912518        0.66277931604216
C           -1.58776780325365        2.53024411672010       -0.11596220696413
C           -2.81589717359516        2.10879958588284       -0.62615415394007
C           -0.29696691499161       -0.64762338307627        1.27563398424101
C            0.92544295772657       -0.19551900611731        1.69451548067419
C            1.16312193955854        1.18179127506099        1.75534769338638
N            0.29567148598805        2.02388891575992        1.15212092201453
C           -0.56043856079894       -2.05288424671364        1.58933440385516
C            0.58885407890024       -2.88264223126769        1.79900206358648
N            1.81913643925713       -2.39203837455580        1.87167493175487
C            1.94405345079339       -1.09798976192313        2.13734229358101
C            3.17774671301028       -0.57513052903464        2.61130935308288
C            3.35062391120788        0.80140369304485        2.69718739711824
C            2.33875064018266        1.70226018401871        2.32358327678140
C           -1.83366521411734       -2.59841200531671        1.95895307295481
C           -1.88650482003969       -3.96705268532051        2.14495899090060
C           -0.82204137474049       -4.83163437343002        2.14512122536034
C            0.45498284387252       -4.28616935931614        2.12369547628091
O           -2.71343787963820       -1.51270152714151        2.35293321388729
O           -2.50778430187936       -1.63917079340268       -0.29162682181733
C           -3.73629978087339        3.11066964966783       -1.11937865194043
C           -1.05531313427302       -6.30601328949463        2.25117293067897
H           -1.34189182249623        3.56870396627371       -0.18155280538585
H           -4.03132629339242        0.58905382600367       -1.24287780170917
H            2.52956379294351        2.73936390161175        2.41514101317827
H            3.96986261364050       -1.23642394994056        2.74139083504114
H            1.25809389611559       -4.95907212431542        2.45409243282468
H           -2.71906544519695       -4.48756253817386        2.48282484065424
O           -3.50225639023585        4.30825287906243       -0.98039155087030