Optimization of monomers started
      -----------------------------------------------------------      
     |                   =====================                   |     
     |                           x T B                           |     
     |                   =====================                   |     
     |                         S. Grimme                         |     
     |          Mulliken Center for Theoretical Chemistry        |     
     |                    University of Bonn                     |     
      -----------------------------------------------------------      

   * xtb version 6.7.1 (edcfbbe) compiled by 'runner@Mac-1732539442253.local' on 2024-11-25

   xtb is free software: you can redistribute it and/or modify it under
   the terms of the GNU Lesser General Public License as published by
   the Free Software Foundation, either version 3 of the License, or
   (at your option) any later version.
   
   xtb is distributed in the hope that it will be useful,
   but WITHOUT ANY WARRANTY; without even the implied warranty of
   MERCHANTABILITY or FITNESS FOR A PARTICULAR PURPOSE.  See the
   GNU Lesser General Public License for more details.
   
   Cite this work as:
   * C. Bannwarth, E. Caldeweyher, S. Ehlert, A. Hansen, P. Pracht,
     J. Seibert, S. Spicher, S. Grimme, WIREs Comput. Mol. Sci., 2020, 11,
     e01493. DOI: 10.1002/wcms.1493
   
   for GFN2-xTB:
   * C. Bannwarth, S. Ehlert and S. Grimme., J. Chem. Theory Comput., 2019,
     15, 1652-1671. DOI: 10.1021/acs.jctc.8b01176
   for GFN1-xTB:
   * S. Grimme, C. Bannwarth, P. Shushkov, J. Chem. Theory Comput., 2017,
     13, 1989-2009. DOI: 10.1021/acs.jctc.7b00118
   for GFN0-xTB:
   * P. Pracht, E. Caldeweyher, S. Ehlert, S. Grimme, ChemRxiv, 2019, preprint.
     DOI: 10.26434/chemrxiv.8326202.v1
   for GFN-FF:
   * S. Spicher and S. Grimme, Angew. Chem. Int. Ed., 2020, 59, 15665-15673.
     DOI: 10.1002/anie.202004239
   
   for ALPB and GBSA implicit solvation:
   * S. Ehlert, M. Stahn, S. Spicher, S. Grimme, J. Chem. Theory Comput.,
     2021, 17, 4250-4261. DOI: 10.1021/acs.jctc.1c00471
   
   for ddCOSMO and CPCM-X implicit solvation:
   * M. Stahn, S. Ehlert, S. Grimme, J. Phys. Chem. A,
     2023, XX, XXXX-XXXX. DOI: 10.1021/acs.jpca.3c04382
   
   for DFT-D4:
   * E. Caldeweyher, C. Bannwarth and S. Grimme, J. Chem. Phys., 2017,
     147, 034112. DOI: 10.1063/1.4993215
   * E. Caldeweyher, S. Ehlert, A. Hansen, H. Neugebauer, S. Spicher,
     C. Bannwarth and S. Grimme, J. Chem. Phys., 2019, 150, 154122.
     DOI: 10.1063/1.5090222
   * E. Caldeweyher, J.-M. Mewes, S. Ehlert and S. Grimme, Phys. Chem. Chem. Phys.
     2020, 22, 8499-8512. DOI: 10.1039/D0CP00502A
   
   for sTDA-xTB:
   * S. Grimme and C. Bannwarth, J. Chem. Phys., 2016, 145, 054103.
     DOI: 10.1063/1.4959605
   
   in the mass-spec context:
   * V. Asgeirsson, C. Bauer and S. Grimme, Chem. Sci., 2017, 8, 4879.
     DOI: 10.1039/c7sc00601b
   * J. Koopman and S. Grimme, ACS Omega 2019, 4, 12, 15120-15133.
     DOI: 10.1021/acsomega.9b02011
   
   for metadynamics refer to:
   * S. Grimme, J. Chem. Theory Comput., 2019, 155, 2847-2862
     DOI: 10.1021/acs.jctc.9b00143
   
   for SPH calculations refer to:
   * S. Spicher and S. Grimme, J. Chem. Theory Comput., 2021, 17, 1701-1714
     DOI: 10.1021/acs.jctc.0c01306
   
   for ONIOM refer to:
   * C. Plett, A. Katbashev, S. Ehlert, S. Grimme, M. Bursch,
     Phys. Chem. Chem. Phys., 2023, 25, 17860-17868. DOI: 10.1039/D3CP02178E
   
   for DIPRO refer to:
   * J. Kohn, N. Gildemeister, S. Grimme, D. Fazzi, A. Hansen,
     J. Chem. Phys., 2023, just accepted.
   
   for PTB refer to:
   * S. Grimme, M. Mueller, A. Hansen, J. Chem. Phys., 2023, 158, 124111.
     DOI: 10.1063/5.0137838
   
   with help from (in alphabetical order)
   P. Atkinson, C. Bannwarth, F. Bohle, G. Brandenburg, E. Caldeweyher
   M. Checinski, S. Dohm, S. Ehlert, S. Ehrlich, I. Gerasimov, C. Hölzer
   A. Katbashev, J. Kohn, J. Koopman, C. Lavigne, S. Lehtola, F. März, M. Müller,
   F. Musil, H. Neugebauer, J. Pisarek, C. Plett, P. Pracht, F. Pultar,
   J. Seibert, P. Shushkov, S. Spicher, M. Stahn, M. Steiner, T. Strunk,
   J. Stückrath, T. Rose, and J. Unsleber
   
 * started run on 2025/03/10 at 11:31:29.179     
   ID    Z sym.   atoms
    1    6 C      1-9, 11, 12, 14-21, 25-33, 35, 36, 38-45, 48-71
    2    7 N      10, 13, 34, 37
    3    8 O      22, 23, 46, 47
    4    5 B      24
    5    1 H      72-137

           -------------------------------------------------
          |                Calculation Setup                |
           -------------------------------------------------

          program call               : xtb Base1tBu.mol --opt --chrg 0 --uhf 1 --tight --spinpol --tblite
          coordinate file            : Base1tBu.mol
          omp threads                :                     8

########################################################################
[WARNING] Please study the warnings concerning your input carefully
-2- prog_main: Charge in sdf/mol input was overwritten
-1- prog_main_parseArguments: Unknown option '--tight' provided
########################################################################
repulsion energy          3.2090722321784E+00 Eh
dispersion energy         3.5956337761325E-03 Eh
interaction energy        0.0000000000000E+00 Eh
number of electrons       3.6100000000000E+02 e
integral cutoff           1.9311100799991E+01 bohr

------------------------------------------------------------
  cycle        total energy    energy error   density error
------------------------------------------------------------
      1     -194.1166666330  -1.9732933E+02   1.0151847E-01
      2     -191.9702656157   2.1464010E+00   7.6509153E-02
      3     -183.2465914748   8.7236741E+00   9.6160515E-02
      4     -187.5389681637  -4.2923767E+00   8.2993526E-02
      5     -194.3789747086  -6.8400065E+00   4.0672749E-02
      6     -194.8602747524  -4.8130004E-01   2.2051328E-02
      7     -194.7777188246   8.2555928E-02   2.3266824E-02
      8     -194.9051969849  -1.2747816E-01   1.5686825E-02
      9     -194.9503535852  -4.5156600E-02   1.1195889E-02
     10     -194.9490306811   1.3229041E-03   7.0118803E-03
     11     -194.9580932862  -9.0626051E-03   4.5528831E-03
     12     -194.9579370827   1.5620343E-04   5.5374407E-03
     13     -194.9611052353  -3.1681526E-03   4.2897596E-03
     14     -194.9639854276  -2.8801923E-03   2.8755858E-03
     15     -194.9654343746  -1.4489470E-03   1.6308700E-03
     16     -194.9657449243  -3.1054977E-04   1.1811120E-03
     17     -194.9656041242   1.4080017E-04   1.2375549E-03
     18     -194.9658439399  -2.3981575E-04   7.0271926E-04
     19     -194.9659752183  -1.3127838E-04   2.0507855E-04
     20     -194.9659658298   9.3884774E-06   2.1142731E-04
     21     -194.9659701855  -4.3556705E-06   1.9306662E-04
     22     -194.9659824282  -1.2242757E-05   4.7745732E-05
     23     -194.9659826163  -1.8810115E-07   3.4914744E-05
     24     -194.9659828491  -2.3278071E-07   1.8536130E-05
------------------------------------------------------------

electronic energy        -1.9817865071507E+02 Eh
total energy             -1.9496598284912E+02 Eh

 total:                                  15.300 sec
 - repulsion                              0.001 sec (  0%)
 - dispersion                             0.081 sec (  0%)
 - coulomb                                0.008 sec (  0%)
 - hamiltonian                            0.037 sec (  0%)
 - scc                                   15.172 sec ( 99%)

      ----------------------------------------------------------- 
     |                   =====================                   |
     |                        A N C O P T                        |
     |                   =====================                   |
     |               Approximate Normal Coordinate               |
     |                Rational Function Optimizer                |
      ----------------------------------------------------------- 
      ----------------------------------------------------------- 
     |                   =====================                   |
     |                        A N C O P T                        |
     |                   =====================                   |
     |               Approximate Normal Coordinate               |
     |                Rational Function Optimizer                |
      ----------------------------------------------------------- 

          ...................................................
          :                      SETUP                      :
          :.................................................:
          :   optimization level            normal          :
          :   max. optcycles                   411          :
          :   ANC micro-cycles                  20          :
          :   degrees of freedom               405          :
          :.................................................:
          :   RF solver                   davidson          :
          :   write xtbopt.log                true          :
          :   linear?                        false          :
          :   energy convergence         0.5000000E-05 Eh   :
          :   grad. convergence          0.1000000E-02 Eh/α :
          :   maxmium RF displ.          1.0000000          :
          :   Hlow (freq-cutoff)         0.1000000E-01      :
          :   Hmax (freq-cutoff)         5.0000000          :
          :   S6 in model hess.         20.0000000          :
          ...................................................

generating ANC from exact Hessian ...
Using Lindh-Hessian (1995)
 Shifting diagonal of input Hessian by    1.1664657831475000E-002
 Lowest  eigenvalues of input Hessian
    0.010000    0.010251    0.010624    0.011290    0.011469    0.000000
    0.000000    0.000000    0.000000    0.000000    0.000000    0.011707
    0.011746    0.011811    0.011912    0.011972    0.012037    0.012230
 Highest eigenvalues
    2.329077    2.462783    2.516340    2.516772    2.690956    2.703279


........................................................................
.............................. CYCLE    1 ..............................
........................................................................
------------------------------------------------------------
  cycle        total energy    energy error   density error
------------------------------------------------------------
      1     -194.9659541964  -1.9817862E+02   2.2950643E-04
      2     -194.9642253066   1.7288898E-03   1.8803487E-03
      3     -194.9657360505  -1.5107439E-03   7.1017762E-04
      4     -194.9659826585  -2.4660804E-04   2.9115298E-05
      5     -194.9659827591  -1.0061919E-07   2.2997010E-05
      6     -194.9659829311  -1.7203885E-07   9.8264280E-06
------------------------------------------------------------

 total:                                   3.097 sec
 * total energy  :  -194.9659829 Eh     change       -0.8203034E-07 Eh
   gradient norm :     0.6936680 Eh/α   predicted     0.0000000E+00 (-100.00%)
   displ. norm   :     0.6091860 α      lambda       -0.3478815E+00
   maximum displ.:     0.1518396 α      in ANC's #260, #285, #264, ...

........................................................................
.............................. CYCLE    2 ..............................
........................................................................
------------------------------------------------------------
  cycle        total energy    energy error   density error
------------------------------------------------------------
      1     -195.2133136930  -1.9835531E+02   9.2276235E-03
      2     -194.8565258774   3.5678782E-01   2.3776842E-02
      3     -195.2250189058  -3.6849303E-01   6.4444628E-03
      4     -195.1639560038   6.1062902E-02   1.1861970E-02
      5     -195.2056906982  -4.1734694E-02   8.3704434E-03
      6     -195.2273701110  -2.1679413E-02   4.2950186E-03
      7     -195.2277502015  -3.8009046E-04   3.3983948E-03
      8     -195.2306864011  -2.9361997E-03   2.5831548E-03
      9     -195.2308685532  -1.8215205E-04   2.4007652E-03
     10     -195.2316519546  -7.8340140E-04   1.7145445E-03
     11     -195.2317830670  -1.3111237E-04   1.3872560E-03
     12     -195.2318366012  -5.3534205E-05   1.2140680E-03
     13     -195.2321193491  -2.8274795E-04   6.8228025E-04
     14     -195.2322042451  -8.4895980E-05   2.4115145E-04
     15     -195.2322012512   2.9939003E-06   1.7827539E-04
     16     -195.2322090490  -7.7977757E-06   1.2049602E-04
     17     -195.2322095775  -5.2855518E-07   5.1652110E-05
     18     -195.2322098953  -3.1778862E-07   4.5820519E-05
     19     -195.2322105809  -6.8561633E-07   1.1734550E-05
------------------------------------------------------------

 total:                                   9.198 sec
 * total energy  :  -195.2322106 Eh     change       -0.2662276E+00 Eh
   gradient norm :     0.3457762 Eh/α   predicted    -0.2386278E+00 ( -10.37%)
   displ. norm   :     0.6757914 α      lambda       -0.2002623E+00
   maximum displ.:     0.1732634 α      in ANC's #260, #257, #285, ...

........................................................................
.............................. CYCLE    3 ..............................
........................................................................
------------------------------------------------------------
  cycle        total energy    energy error   density error
------------------------------------------------------------
      1     -195.3606168000  -1.9855720E+02   1.0176607E-02
      2     -195.0328371002   3.2777970E-01   2.3192995E-02
      3     -195.3789319374  -3.4609484E-01   5.8664066E-03
      4     -195.3335905414   4.5341396E-02   1.0088225E-02
      5     -195.3513607446  -1.7770203E-02   9.1357902E-03
      6     -195.3719665301  -2.0605785E-02   6.1930883E-03
      7     -195.3773131903  -5.3466602E-03   4.1553328E-03
      8     -195.3811839363  -3.8707460E-03   2.8038789E-03
      9     -195.3819440624  -7.6012608E-04   2.2159539E-03
     10     -195.3827095354  -7.6547301E-04   1.4619859E-03
     11     -195.3828200148  -1.1047940E-04   1.2381910E-03
     12     -195.3829247354  -1.0472067E-04   9.5504514E-04
     13     -195.3830481119  -1.2337649E-04   6.3451281E-04
     14     -195.3831226422  -7.4530259E-05   2.3915730E-04
     15     -195.3831327834  -1.0141217E-05   6.6495302E-05
     16     -195.3831320345   7.4890920E-07   8.8586250E-05
     17     -195.3831326137  -5.7923410E-07   4.7277227E-05
     18     -195.3831330985  -4.8472114E-07   7.0641330E-06
------------------------------------------------------------

 total:                                  10.201 sec
 * total energy  :  -195.3831331 Eh     change       -0.1509225E+00 Eh
   gradient norm :     0.1601044 Eh/α   predicted    -0.1458605E+00 (  -3.35%)
   displ. norm   :     0.7329722 α      lambda       -0.1019341E+00
   maximum displ.:     0.1651365 α      in ANC's #82, #85, #94, ...

........................................................................
.............................. CYCLE    4 ..............................
........................................................................
------------------------------------------------------------
  cycle        total energy    energy error   density error
------------------------------------------------------------
      1     -195.4599153832  -1.9866844E+02   7.9282900E-03
      2     -195.4149308648   4.4984518E-02   1.0285352E-02
      3     -195.4013361319   1.3594733E-02   1.2454418E-02
      4     -195.4411859269  -3.9849795E-02   7.4844575E-03
      5     -195.4549257667  -1.3739840E-02   4.2702046E-03
      6     -195.4597313609  -4.8055942E-03   4.0694634E-03
      7     -195.4596181887   1.1317221E-04   4.0456183E-03
      8     -195.4602097930  -5.9160426E-04   3.7009709E-03
      9     -195.4648248267  -4.6150337E-03   4.6785336E-04
     10     -195.4649120174  -8.7190772E-05   2.6909801E-04
     11     -195.4649342914  -2.2274013E-05   1.6049504E-04
     12     -195.4649320016   2.2898428E-06   1.4339880E-04
     13     -195.4649262799   5.7216992E-06   1.5512569E-04
     14     -195.4649334972  -7.2172780E-06   8.4644605E-05
     15     -195.4649353853  -1.8881424E-06   3.9195531E-05
     16     -195.4649357553  -3.6998324E-07   1.5846644E-05
------------------------------------------------------------

 total:                                   9.411 sec
 * total energy  :  -195.4649358 Eh     change       -0.8180266E-01 Eh
   gradient norm :     0.1047509 Eh/α   predicted    -0.7834922E-01 (  -4.22%)
   displ. norm   :     0.7744659 α      lambda       -0.6567612E-01
   maximum displ.:     0.1946128 α      in ANC's #82, #30, #22, ...

........................................................................
.............................. CYCLE    5 ..............................
........................................................................
------------------------------------------------------------
  cycle        total energy    energy error   density error
------------------------------------------------------------
      1     -195.5172413131  -1.9871152E+02   6.7550611E-03
      2     -195.4930433525   2.4197961E-02   8.6533515E-03
      3     -195.4643985354   2.8644817E-02   1.1956587E-02
      4     -195.5061342403  -4.1735705E-02   5.6809247E-03
      5     -195.5175251204  -1.1390880E-02   2.1824113E-03
      6     -195.5186743086  -1.1491882E-03   1.4143623E-03
      7     -195.5196021717  -9.2786315E-04   5.5751936E-04
      8     -195.5194722815   1.2989021E-04   7.8401052E-04
      9     -195.5196233523  -1.5107083E-04   3.7930823E-04
     10     -195.5196565063  -3.3154000E-05   2.5217576E-04
     11     -195.5196810021  -2.4495734E-05   5.4725028E-05
     12     -195.5196811338  -1.3173468E-07   5.3662370E-05
     13     -195.5196819547  -8.2093931E-07   1.5994975E-05
------------------------------------------------------------

 total:                                   8.147 sec
 * total energy  :  -195.5196820 Eh     change       -0.5474620E-01 Eh
   gradient norm :     0.0795115 Eh/α   predicted    -0.5253427E-01 (  -4.04%)
   displ. norm   :     0.8106878 α      lambda       -0.4737337E-01
   maximum displ.:     0.2286354 α      in ANC's #30, #22, #82, ...

........................................................................
.............................. CYCLE    6 ..............................
........................................................................
------------------------------------------------------------
  cycle        total energy    energy error   density error
------------------------------------------------------------
      1     -195.5593669722  -1.9873728E+02   5.5938045E-03
      2     -195.5393731227   1.9993849E-02   7.6469510E-03
      3     -195.5111382569   2.8234866E-02   1.1316095E-02
      4     -195.5456016595  -3.4463403E-02   5.3362891E-03
      5     -195.5565877779  -1.0986118E-02   2.5884232E-03
      6     -195.5603114233  -3.7236453E-03   5.8715616E-04
      7     -195.5604359620  -1.2453878E-04   2.8524200E-04
      8     -195.5604544646  -1.8502586E-05   1.9465524E-04
      9     -195.5604603935  -5.9288501E-06   1.0903504E-04
     10     -195.5604566769   3.7165667E-06   1.3607590E-04
     11     -195.5604638832  -7.2063180E-06   2.6512060E-05
     12     -195.5604639438  -6.0605942E-08   1.6808734E-05
------------------------------------------------------------

 total:                                   9.069 sec
 * total energy  :  -195.5604639 Eh     change       -0.4078199E-01 Eh
   gradient norm :     0.0619162 Eh/α   predicted    -0.3925397E-01 (  -3.75%)
   displ. norm   :     0.8438352 α      lambda       -0.3719719E-01
   maximum displ.:     0.2536697 α      in ANC's #22, #30, #24, ...

........................................................................
.............................. CYCLE    7 ..............................
........................................................................
------------------------------------------------------------
  cycle        total energy    energy error   density error
------------------------------------------------------------
      1     -195.5928927445  -1.9875125E+02   4.5216911E-03
      2     -195.5851013747   7.7913697E-03   5.0532305E-03
      3     -195.5679172061   1.7184169E-02   7.9354864E-03
      4     -195.5850463576  -1.7129151E-02   3.8611433E-03
      5     -195.5876128835  -2.5665260E-03   3.6140225E-03
      6     -195.5928986456  -5.2857621E-03   1.0444689E-03
      7     -195.5932899387  -3.9129308E-04   3.9232480E-04
      8     -195.5933364444  -4.6505679E-05   1.3533451E-04
      9     -195.5933390681  -2.6237148E-06   8.7584525E-05
     10     -195.5933414803  -2.4121967E-06   4.2011324E-05
     11     -195.5933415552  -7.4945007E-08   3.1615843E-05
     12     -195.5933417704  -2.1512543E-07   1.8294847E-05
------------------------------------------------------------

 total:                                  11.428 sec
 * total energy  :  -195.5933418 Eh     change       -0.3287783E-01 Eh
   gradient norm :     0.0495287 Eh/α   predicted    -0.3184191E-01 (  -3.15%)
   displ. norm   :     0.8687056 α      lambda       -0.3126072E-01
   maximum displ.:     0.2835158 α      in ANC's #22, #30, #24, ...

........................................................................
.............................. CYCLE    8 ..............................
........................................................................
------------------------------------------------------------
  cycle        total energy    energy error   density error
------------------------------------------------------------
      1     -195.6205479054  -1.9876329E+02   3.9785972E-03
      2     -195.6157038806   4.8440248E-03   4.1382028E-03
      3     -195.5778043970   3.7899484E-02   1.0541455E-02
      4     -195.6140074624  -3.6203065E-02   3.6033547E-03
      5     -195.6187673435  -4.7598811E-03   2.0686927E-03
      6     -195.6202544260  -1.4870825E-03   1.2377439E-03
      7     -195.6207465196  -4.9209359E-04   5.5865133E-04
      8     -195.6208558072  -1.0928754E-04   1.3866267E-04
      9     -195.6208588543  -3.0471522E-06   7.6828384E-05
     10     -195.6208584812   3.7313382E-07   7.8083169E-05
     11     -195.6208600999  -1.6187682E-06   3.9468199E-05
     12     -195.6208605228  -4.2281002E-07   1.4774391E-05
------------------------------------------------------------

 total:                                   9.720 sec
 * total energy  :  -195.6208605 Eh     change       -0.2751875E-01 Eh
   gradient norm :     0.0431359 Eh/α   predicted    -0.2742586E-01 (  -0.34%)
   displ. norm   :     0.8929938 α      lambda       -0.2766165E-01
   maximum displ.:     0.2863401 α      in ANC's #22, #30, #24, ...

........................................................................
.............................. CYCLE    9 ..............................
........................................................................
------------------------------------------------------------
  cycle        total energy    energy error   density error
------------------------------------------------------------
      1     -195.6423610394  -1.9876641E+02   3.8324625E-03
      2     -195.6044348660   3.7926173E-02   9.9306655E-03
      3     -195.6337715332  -2.9336667E-02   5.1122434E-03
      4     -195.6327868740   9.8465918E-04   4.6117528E-03
      5     -195.6427336900  -9.9468161E-03   1.1800365E-03
      6     -195.6431955698  -4.6187973E-04   5.0328496E-04
      7     -195.6432953146  -9.9744808E-05   2.3661050E-04
      8     -195.6433025215  -7.2069420E-06   1.6526102E-04
      9     -195.6433085418  -6.0202410E-06   8.3691122E-05
     10     -195.6433105062  -1.9644592E-06   2.9322803E-05
     11     -195.6433105070  -7.6880724E-10   2.8720043E-05
     12     -195.6433106958  -1.8886092E-07   1.6934281E-05
------------------------------------------------------------

 total:                                  15.209 sec
 * total energy  :  -195.6433107 Eh     change       -0.2245017E-01 Eh
   gradient norm :     0.0537756 Eh/α   predicted    -0.2486005E-01 (  10.73%)
   displ. norm   :     0.8567778 α      lambda       -0.2414371E-01
   maximum displ.:     0.3056931 α      in ANC's #22, #30, #24, ...

........................................................................
.............................. CYCLE   10 ..............................
........................................................................
------------------------------------------------------------
  cycle        total energy    energy error   density error
------------------------------------------------------------
      1     -195.6624022824  -1.9877354E+02   2.9828375E-03
      2     -195.6595924011   2.8098813E-03   3.2188688E-03
      3     -195.6418899374   1.7702464E-02   7.1395271E-03
      4     -195.6610127178  -1.9122780E-02   1.8360062E-03
      5     -195.6618296022  -8.1688442E-04   1.2705608E-03
      6     -195.6624662356  -6.3663339E-04   4.4747072E-04
      7     -195.6625610769  -9.4841368E-05   1.2922322E-04
      8     -195.6625664724  -5.3955026E-06   6.4064041E-05
      9     -195.6625671503  -6.7781954E-07   2.7801524E-05
     10     -195.6625671213   2.8978889E-08   2.6420441E-05
     11     -195.6625672947  -1.7347489E-07   1.2678529E-05
------------------------------------------------------------

 total:                                  12.571 sec
 * total energy  :  -195.6625673 Eh     change       -0.1925660E-01 Eh
   gradient norm :     0.0476408 Eh/α   predicted    -0.2093342E-01 (   8.71%)
   displ. norm   :     0.8486226 α      lambda       -0.2084531E-01
   maximum displ.:     0.2983693 α      in ANC's #22, #24, #30, ...

........................................................................
.............................. CYCLE   11 ..............................
........................................................................
------------------------------------------------------------
  cycle        total energy    energy error   density error
------------------------------------------------------------
      1     -195.6776357640  -1.9876734E+02   3.1212396E-03
      2     -195.6769117932   7.2397076E-04   2.4225525E-03
      3     -195.6588650526   1.8046741E-02   6.7593716E-03
      4     -195.6661614447  -7.2963921E-03   5.5082711E-03
      5     -195.6765638305  -1.0402386E-02   1.7346792E-03
      6     -195.6776645916  -1.1007611E-03   7.8187502E-04
      7     -195.6779715388  -3.0694724E-04   2.0686799E-04
      8     -195.6779800015  -8.4626824E-06   1.1964767E-04
      9     -195.6779849520  -4.9505182E-06   3.7037263E-05
     10     -195.6779849587  -6.6721668E-09   3.0514263E-05
     11     -195.6779852482  -2.8950390E-07   1.4621450E-05
------------------------------------------------------------

 total:                                  11.836 sec
 * total energy  :  -195.6779852 Eh     change       -0.1541795E-01 Eh
   gradient norm :     0.0549402 Eh/α   predicted    -0.1792866E-01 (  16.28%)
   displ. norm   :     0.8160959 α      lambda       -0.1743704E-01
   maximum displ.:     0.2881173 α      in ANC's #22, #24, #34, ...

........................................................................
.............................. CYCLE   12 ..............................
........................................................................
------------------------------------------------------------
  cycle        total energy    energy error   density error
------------------------------------------------------------
      1     -195.6920314871  -1.9877257E+02   2.4845320E-03
      2     -195.6892950729   2.7364142E-03   2.8540170E-03
      3     -195.6786947109   1.0600362E-02   5.8245000E-03
      4     -195.6819674787  -3.2727677E-03   4.9386735E-03
      5     -195.6918724790  -9.9050004E-03   9.8268884E-04
      6     -195.6922452310  -3.7275194E-04   3.4245306E-04
      7     -195.6922971323  -5.1901304E-05   1.5329256E-04
      8     -195.6923042704  -7.1381384E-06   7.0016129E-05
      9     -195.6923033214   9.4904280E-07   7.8202783E-05
     10     -195.6923056120  -2.2906584E-06   2.0058437E-05
     11     -195.6923056520  -3.9944808E-08   1.3837795E-05
------------------------------------------------------------

 total:                                  10.807 sec
 * total energy  :  -195.6923057 Eh     change       -0.1432040E-01 Eh
   gradient norm :     0.0320184 Eh/α   predicted    -0.1452517E-01 (   1.43%)
   displ. norm   :     0.8471828 α      lambda       -0.1443721E-01
   maximum displ.:     0.3144500 α      in ANC's #22, #24, #18, ...

........................................................................
.............................. CYCLE   13 ..............................
........................................................................
------------------------------------------------------------
  cycle        total energy    energy error   density error
------------------------------------------------------------
      1     -195.7042502446  -1.9877022E+02   2.5302968E-03
      2     -195.7013318593   2.9183853E-03   3.1277345E-03
      3     -195.6889789757   1.2352884E-02   6.2265803E-03
      4     -195.7012454530  -1.2266477E-02   2.3522645E-03
      5     -195.7032860587  -2.0406057E-03   1.5274763E-03
      6     -195.7043353225  -1.0492638E-03   2.4696987E-04
      7     -195.7043565103  -2.1187744E-05   8.1019057E-05
      8     -195.7043571863  -6.7604114E-07   6.2963860E-05
      9     -195.7043577803  -5.9401657E-07   4.6048797E-05
     10     -195.7043582509  -4.7063159E-07   2.3414134E-05
     11     -195.7043584026  -1.5169257E-07   1.0972620E-05
------------------------------------------------------------

 total:                                  11.500 sec
 * total energy  :  -195.7043584 Eh     change       -0.1205275E-01 Eh
   gradient norm :     0.0294281 Eh/α   predicted    -0.1239955E-01 (   2.88%)
   displ. norm   :     0.8568541 α      lambda       -0.1205782E-01
   maximum displ.:     0.3043042 α      in ANC's #22, #24, #18, ...

........................................................................
.............................. CYCLE   14 ..............................
........................................................................
------------------------------------------------------------
  cycle        total energy    energy error   density error
------------------------------------------------------------
      1     -195.7146400144  -1.9877137E+02   2.4645373E-03
      2     -195.7005935495   1.4046465E-02   6.1954181E-03
      3     -195.7102769735  -9.6834240E-03   3.5416243E-03
      4     -195.7108041878  -5.2721424E-04   2.9848503E-03
      5     -195.7141460357  -3.3418479E-03   1.2424128E-03
      6     -195.7148425759  -6.9654018E-04   4.1239888E-04
      7     -195.7148885818  -4.6005924E-05   2.4180028E-04
      8     -195.7149049773  -1.6395538E-05   1.2386172E-04
      9     -195.7149102434  -5.2660216E-06   3.5702769E-05
     10     -195.7149104677  -2.2438559E-07   1.6768514E-05
------------------------------------------------------------

 total:                                   9.820 sec
 * total energy  :  -195.7149105 Eh     change       -0.1055207E-01 Eh
   gradient norm :     0.0225245 Eh/α   predicted    -0.1045533E-01 (  -0.92%)
   displ. norm   :     0.8656870 α      lambda       -0.1005586E-01
   maximum displ.:     0.3001000 α      in ANC's #22, #19, #18, ...

........................................................................
.............................. CYCLE   15 ..............................
........................................................................
------------------------------------------------------------
  cycle        total energy    energy error   density error
------------------------------------------------------------
      1     -195.7236014438  -1.9876702E+02   2.5866350E-03
      2     -195.7124155059   1.1185938E-02   5.4323337E-03
      3     -195.7147118395  -2.2963335E-03   4.9526224E-03
      4     -195.7179001038  -3.1882644E-03   3.3700518E-03
      5     -195.7229284814  -5.0283776E-03   1.3738742E-03
      6     -195.7237718088  -8.4332737E-04   2.7326571E-04
      7     -195.7237993676  -2.7558800E-05   9.9500781E-05
      8     -195.7238013616  -1.9939966E-06   6.4343931E-05
      9     -195.7238015143  -1.5275796E-07   4.9649141E-05
     10     -195.7238016987  -1.8435824E-07   3.1184188E-05
     11     -195.7238019770  -2.7833596E-07   1.2530360E-05
------------------------------------------------------------

 total:                                  10.830 sec
 * total energy  :  -195.7238020 Eh     change       -0.8891509E-02 Eh
   gradient norm :     0.0215721 Eh/α   predicted    -0.8795952E-02 (  -1.07%)
   displ. norm   :     0.8774742 α      lambda       -0.9251637E-02
   maximum displ.:     0.2731758 α      in ANC's #22, #18, #19, ...

........................................................................
.............................. CYCLE   16 ..............................
........................................................................
------------------------------------------------------------
  cycle        total energy    energy error   density error
------------------------------------------------------------
      1     -195.7307733999  -1.9877015E+02   2.9354446E-03
      2     -195.7075124666   2.3260933E-02   7.7702105E-03
      3     -195.7273376563  -1.9825190E-02   3.4013979E-03
      4     -195.7267917617   5.4589464E-04   3.0619722E-03
      5     -195.7302746602  -3.4828986E-03   1.4831993E-03
      6     -195.7311568444  -8.8218412E-04   5.9872539E-04
      7     -195.7311861493  -2.9304970E-05   5.0924539E-04
      8     -195.7312769992  -9.0849822E-05   1.4925173E-04
      9     -195.7312841933  -7.1941330E-06   3.0062236E-05
     10     -195.7312842677  -7.4359775E-08   2.2895611E-05
     11     -195.7312843653  -9.7637923E-08   1.6117847E-05
------------------------------------------------------------

 total:                                  12.005 sec
 * total energy  :  -195.7312844 Eh     change       -0.7482388E-02 Eh
   gradient norm :     0.0347655 Eh/α   predicted    -0.8187517E-02 (   9.42%)
   displ. norm   :     0.8237626 α      lambda       -0.8233081E-02
   maximum displ.:     0.2468499 α      in ANC's #22, #19, #18, ...

........................................................................
.............................. CYCLE   17 ..............................
........................................................................
------------------------------------------------------------
  cycle        total energy    energy error   density error
------------------------------------------------------------
      1     -195.7377602593  -1.9876768E+02   2.7177378E-03
      2     -195.7364649115   1.2953478E-03   2.3854212E-03
      3     -195.7322065351   4.2583764E-03   3.5339922E-03
      4     -195.7181954621   1.4011073E-02   6.7644272E-03
      5     -195.7375802903  -1.9384828E-02   9.7359588E-04
      6     -195.7379025852  -3.2229492E-04   3.4775193E-04
      7     -195.7379490394  -4.6454197E-05   1.7401490E-04
      8     -195.7379539106  -4.8712041E-06   1.3123697E-04
      9     -195.7379562242  -2.3136583E-06   9.0759470E-05
     10     -195.7379582846  -2.0603620E-06   4.5180621E-05
     11     -195.7379589717  -6.8707976E-07   1.2109360E-05
------------------------------------------------------------

 total:                                  10.271 sec
 * total energy  :  -195.7379590 Eh     change       -0.6674606E-02 Eh
   gradient norm :     0.0220173 Eh/α   predicted    -0.6909964E-02 (   3.53%)
   displ. norm   :     0.8234691 α      lambda       -0.6555706E-02
   maximum displ.:     0.2265434 α      in ANC's #22, #19, #8, ...

........................................................................
.............................. CYCLE   18 ..............................
........................................................................
------------------------------------------------------------
  cycle        total energy    energy error   density error
------------------------------------------------------------
      1     -195.7432187903  -1.9876149E+02   2.8141054E-03
      2     -195.7198493771   2.3369413E-02   7.6610991E-03
      3     -195.7340145263  -1.4165149E-02   5.0654278E-03
      4     -195.7361845114  -2.1699851E-03   3.8506554E-03
      5     -195.7429086359  -6.7241245E-03   1.1081916E-03
      6     -195.7435067760  -5.9814011E-04   2.3652002E-04
      7     -195.7435194449  -1.2668953E-05   1.4042939E-04
      8     -195.7435240815  -4.6365721E-06   8.3898808E-05
      9     -195.7435244898  -4.0831995E-07   6.3414864E-05
     10     -195.7435251925  -7.0269837E-07   3.3682918E-05
     11     -195.7435254567  -2.6414438E-07   1.4804690E-05
------------------------------------------------------------

 total:                                   9.803 sec
 * total energy  :  -195.7435255 Eh     change       -0.5566485E-02 Eh
   gradient norm :     0.0195080 Eh/α   predicted    -0.5500572E-02 (  -1.18%)
   displ. norm   :     0.8264835 α      lambda       -0.5772136E-02
   maximum displ.:     0.2446267 α      in ANC's #14, #19, #8, ...

........................................................................
.............................. CYCLE   19 ..............................
........................................................................
------------------------------------------------------------
  cycle        total energy    energy error   density error
------------------------------------------------------------
      1     -195.7483756736  -1.9876975E+02   2.6734872E-03
      2     -195.7459655741   2.4100995E-03   2.9472079E-03
      3     -195.7229713991   2.2994175E-02   7.8730686E-03
      4     -195.7330183720  -1.0046973E-02   5.9263677E-03
      5     -195.7479635802  -1.4945208E-02   1.0368988E-03
      6     -195.7483805420  -4.1696182E-04   5.3584020E-04
      7     -195.7484642184  -8.3676453E-05   2.9319173E-04
      8     -195.7484933380  -2.9119571E-05   1.0284585E-04
      9     -195.7484965468  -3.2087498E-06   4.0567206E-05
     10     -195.7484964699   7.6849801E-08   3.1311307E-05
     11     -195.7484968173  -3.4737749E-07   8.8150720E-06
------------------------------------------------------------

 total:                                   9.993 sec
 * total energy  :  -195.7484968 Eh     change       -0.4971361E-02 Eh
   gradient norm :     0.0161696 Eh/α   predicted    -0.4857476E-02 (  -2.29%)
   displ. norm   :     0.8456168 α      lambda       -0.5286320E-02
   maximum displ.:     0.2656771 α      in ANC's #14, #8, #19, ...

........................................................................
.............................. CYCLE   20 ..............................
........................................................................
------------------------------------------------------------
  cycle        total energy    energy error   density error
------------------------------------------------------------
      1     -195.7525288589  -1.9876574E+02   3.0240924E-03
      2     -195.7501533540   2.3755049E-03   2.9348058E-03
      3     -195.7242937063   2.5859648E-02   8.1267586E-03
      4     -195.7398293863  -1.5535680E-02   5.3048408E-03
      5     -195.7516361812  -1.1806795E-02   1.5075455E-03
      6     -195.7525641707  -9.2798943E-04   5.2539000E-04
      7     -195.7525459766   1.8194036E-05   5.5264767E-04
      8     -195.7525719218  -2.5945198E-05   4.7389213E-04
      9     -195.7526339662  -6.2044324E-05   2.4627999E-04
     10     -195.7526572655  -2.3299394E-05   2.6978793E-05
     11     -195.7526574941  -2.2853564E-07   1.6015311E-05
------------------------------------------------------------

 total:                                  10.549 sec
 * total energy  :  -195.7526575 Eh     change       -0.4160677E-02 Eh
   gradient norm :     0.0256217 Eh/α   predicted    -0.4533206E-02 (   8.95%)
   displ. norm   :     0.7744773 α      lambda       -0.5070616E-02
   maximum displ.:     0.2872092 α      in ANC's #14, #8, #31, ...
 * RMSD in coord.:     1.1210290 α      energy gain  -0.7866746E+00 Eh

generating ANC from exact Hessian ...
Using Lindh-Hessian (1995)
 Shifting diagonal of input Hessian by    1.0424901550106554E-002
 Lowest  eigenvalues of input Hessian
    0.010000    0.000000    0.000000    0.000000    0.000000    0.000000
    0.000000    0.010462    0.010520    0.010566    0.010628    0.010722
    0.010843    0.010877    0.010898    0.010960    0.011220    0.011230
 Highest eigenvalues
    2.080621    2.082138    2.187245    2.193930    2.196228    2.201285


........................................................................
.............................. CYCLE   21 ..............................
........................................................................
------------------------------------------------------------
  cycle        total energy    energy error   density error
------------------------------------------------------------
      1     -195.7562313883  -1.9877406E+02   2.6230103E-03
      2     -195.7359414028   2.0289986E-02   7.0695654E-03
      3     -195.7450113810  -9.0699782E-03   5.3958228E-03
      4     -195.7507392042  -5.7278232E-03   3.5353991E-03
      5     -195.7559709753  -5.2317711E-03   9.8307835E-04
      6     -195.7564229945  -4.5201915E-04   3.1374725E-04
      7     -195.7564566774  -3.3682948E-05   1.3217934E-04
      8     -195.7564518096   4.8678097E-06   1.7297503E-04
      9     -195.7564545789  -2.7693088E-06   1.4397109E-04
     10     -195.7564622796  -7.7006842E-06   2.8060009E-05
     11     -195.7564624097  -1.3012337E-07   1.6169170E-05
------------------------------------------------------------

 total:                                  10.209 sec
 * total energy  :  -195.7564624 Eh     change       -0.3804916E-02 Eh
   gradient norm :     0.0209621 Eh/α   predicted     0.0000000E+00 (-100.00%)
   displ. norm   :     0.3404695 α      lambda       -0.2736935E-02
   maximum displ.:     0.1181245 α      in ANC's #9, #6, #27, ...

........................................................................
.............................. CYCLE   22 ..............................
........................................................................
------------------------------------------------------------
  cycle        total energy    energy error   density error
------------------------------------------------------------
      1     -195.7587497149  -1.9878023E+02   1.4963074E-03
      2     -195.7529379378   5.8117771E-03   3.8816472E-03
      3     -195.7578635897  -4.9256519E-03   1.6533873E-03
      4     -195.7585068906  -6.4330091E-04   8.0565950E-04
      5     -195.7586441337  -1.3724308E-04   5.8632219E-04
      6     -195.7587979449  -1.5381121E-04   1.3505179E-04
      7     -195.7587953600   2.5849651E-06   1.4681592E-04
      8     -195.7588006212  -5.2612504E-06   9.7706527E-05
      9     -195.7588034483  -2.8270711E-06   5.0012178E-05
     10     -195.7588042772  -8.2895190E-07   1.9552742E-05
------------------------------------------------------------

 total:                                   8.972 sec
 * total energy  :  -195.7588043 Eh     change       -0.2341868E-02 Eh
   gradient norm :     0.0095221 Eh/α   predicted    -0.1527139E-02 ( -34.79%)
   displ. norm   :     0.7323301 α      lambda       -0.4187185E-02
   maximum displ.:     0.2622309 α      in ANC's #9, #27, #6, ...

........................................................................
.............................. CYCLE   23 ..............................
........................................................................
------------------------------------------------------------
  cycle        total energy    energy error   density error
------------------------------------------------------------
      1     -195.7620113870  -1.9878468E+02   2.9464227E-03
      2     -195.7414513663   2.0560021E-02   7.2049991E-03
      3     -195.7565744061  -1.5123040E-02   3.9127429E-03
      4     -195.7605704041  -3.9959981E-03   2.0109735E-03
      5     -195.7617172695  -1.1468654E-03   1.1431815E-03
      6     -195.7621647092  -4.4743972E-04   5.9083221E-04
      7     -195.7621684954  -3.7861840E-06   5.7749147E-04
      8     -195.7622076356  -3.9140254E-05   4.6971306E-04
      9     -195.7622873348  -7.9699146E-05   1.3792204E-04
     10     -195.7622948823  -7.5474806E-06   1.4544318E-05
     11     -195.7622949242  -4.1959737E-08   9.1753082E-06
------------------------------------------------------------

 total:                                  10.034 sec
 * total energy  :  -195.7622949 Eh     change       -0.3490647E-02 Eh
   gradient norm :     0.0176979 Eh/α   predicted    -0.3217107E-02 (  -7.84%)
   displ. norm   :     0.7783391 α      lambda       -0.3585377E-02
   maximum displ.:     0.2914500 α      in ANC's #9, #27, #11, ...

........................................................................
.............................. CYCLE   24 ..............................
........................................................................
------------------------------------------------------------
  cycle        total energy    energy error   density error
------------------------------------------------------------
      1     -195.7654829582  -1.9878506E+02   2.7984554E-03
      2     -195.7631011322   2.3818261E-03   2.9642070E-03
      3     -195.7293358690   3.3765263E-02   9.2738306E-03
      4     -195.7641292209  -3.4793352E-02   1.7917554E-03
      5     -195.7651210680  -9.9184712E-04   1.0083268E-03
      6     -195.7654108629  -2.8979485E-04   5.6645475E-04
      7     -195.7655333281  -1.2246523E-04   2.1270488E-04
      8     -195.7655417773  -8.4492127E-06   1.5484638E-04
      9     -195.7655515990  -9.8217130E-06   3.4524918E-05
     10     -195.7655504661   1.1328893E-06   6.0856560E-05
     11     -195.7655515118  -1.0457013E-06   3.4174686E-05
     12     -195.7655518757  -3.6384492E-07   1.5243275E-05
------------------------------------------------------------

 total:                                  10.776 sec
 * total energy  :  -195.7655519 Eh     change       -0.3256951E-02 Eh
   gradient norm :     0.0236762 Eh/α   predicted    -0.2878719E-02 ( -11.61%)
   displ. norm   :     0.8186060 α      lambda       -0.3958301E-02
   maximum displ.:     0.3157070 α      in ANC's #9, #11, #6, ...

........................................................................
.............................. CYCLE   25 ..............................
........................................................................
------------------------------------------------------------
  cycle        total energy    energy error   density error
------------------------------------------------------------
      1     -195.7690256813  -1.9878635E+02   2.8388218E-03
      2     -195.7591307993   9.8948820E-03   5.0593212E-03
      3     -195.7494270172   9.7037821E-03   6.9001215E-03
      4     -195.7677690637  -1.8342047E-02   1.8008750E-03
      5     -195.7687974027  -1.0283390E-03   8.5717438E-04
      6     -195.7690636975  -2.6629475E-04   4.3369569E-04
      7     -195.7690562797   7.4177925E-06   4.7460026E-04
      8     -195.7690391805   1.7099182E-05   5.0199216E-04
      9     -195.7691291761  -8.9995584E-05   1.4691453E-04
     10     -195.7691376722  -8.4960922E-06   1.1923863E-05
     11     -195.7691377000  -2.7869589E-08   6.9862537E-06
------------------------------------------------------------

 total:                                   9.822 sec
 * total energy  :  -195.7691377 Eh     change       -0.3585824E-02 Eh
   gradient norm :     0.0179387 Eh/α   predicted    -0.3305411E-02 (  -7.82%)
   displ. norm   :     0.8344403 α      lambda       -0.3852729E-02
   maximum displ.:     0.3301820 α      in ANC's #9, #11, #6, ...

........................................................................
.............................. CYCLE   26 ..............................
........................................................................
------------------------------------------------------------
  cycle        total energy    energy error   density error
------------------------------------------------------------
      1     -195.7725502681  -1.9878956E+02   2.8051882E-03
      2     -195.7723115620   2.3870616E-04   1.8518843E-03
      3     -195.7316492084   4.0662354E-02   9.7931942E-03
      4     -195.7706513939  -3.9002185E-02   2.1480850E-03
      5     -195.7722237345  -1.5723406E-03   9.4916324E-04
      6     -195.7724655745  -2.4183992E-04   5.6777192E-04
      7     -195.7725832377  -1.1766324E-04   2.4038643E-04
      8     -195.7726052476  -2.2009942E-05   6.8011270E-05
      9     -195.7726069936  -1.7459186E-06   2.2189649E-05
     10     -195.7726065996   3.9395482E-07   3.8023307E-05
     11     -195.7726070348  -4.3515885E-07   1.9531789E-05
------------------------------------------------------------

 total:                                  10.590 sec
 * total energy  :  -195.7726070 Eh     change       -0.3469335E-02 Eh
   gradient norm :     0.0124381 Eh/α   predicted    -0.3267680E-02 (  -5.81%)
   displ. norm   :     0.8423543 α      lambda       -0.3513828E-02
   maximum displ.:     0.3425395 α      in ANC's #9, #11, #6, ...

........................................................................
.............................. CYCLE   27 ..............................
........................................................................
------------------------------------------------------------
  cycle        total energy    energy error   density error
------------------------------------------------------------
      1     -195.7755594603  -1.9879425E+02   2.8646794E-03
      2     -195.7520282830   2.3531177E-02   7.5680829E-03
      3     -195.7637542922  -1.1726009E-02   5.5046060E-03
      4     -195.7749896735  -1.1235381E-02   1.3177817E-03
      5     -195.7754763037  -4.8663016E-04   7.7598938E-04
      6     -195.7757432141  -2.6691037E-04   3.0736721E-04
      7     -195.7757769764  -3.3762360E-05   1.6824206E-04
      8     -195.7757511856   2.5790860E-05   2.9708592E-04
      9     -195.7757794354  -2.8249843E-05   1.2598525E-04
     10     -195.7757852267  -5.7913301E-06   1.1491204E-05
     11     -195.7757852305  -3.7571795E-09   8.4130974E-06
------------------------------------------------------------

 total:                                  10.721 sec
 * total energy  :  -195.7757852 Eh     change       -0.3178196E-02 Eh
   gradient norm :     0.0102288 Eh/α   predicted    -0.3003551E-02 (  -5.50%)
   displ. norm   :     0.8664146 α      lambda       -0.3226140E-02
   maximum displ.:     0.3564014 α      in ANC's #9, #6, #11, ...

........................................................................
.............................. CYCLE   28 ..............................
........................................................................
------------------------------------------------------------
  cycle        total energy    energy error   density error
------------------------------------------------------------
      1     -195.7786052996  -1.9879560E+02   2.8236216E-03
      2     -195.7670672039   1.1538096E-02   5.3968768E-03
      3     -195.7605273877   6.5398162E-03   6.6217900E-03
      4     -195.7766552983  -1.6127911E-02   1.9917673E-03
      5     -195.7783356210  -1.6803227E-03   9.3928349E-04
      6     -195.7786564066  -3.2078558E-04   4.6203198E-04
      7     -195.7786547013   1.7053179E-06   4.6841010E-04
      8     -195.7786626081  -7.9068410E-06   4.3444864E-04
      9     -195.7787174252  -5.4817102E-05   2.1597553E-04
     10     -195.7787351343  -1.7709089E-05   3.7455676E-05
     11     -195.7787355687  -4.3437566E-07   1.4320086E-05
------------------------------------------------------------

 total:                                  10.291 sec
 * total energy  :  -195.7787356 Eh     change       -0.2950338E-02 Eh
   gradient norm :     0.0128268 Eh/α   predicted    -0.2824002E-02 (  -4.28%)
   displ. norm   :     0.8531010 α      lambda       -0.3350566E-02
   maximum displ.:     0.3517489 α      in ANC's #9, #11, #6, ...

........................................................................
.............................. CYCLE   29 ..............................
........................................................................
------------------------------------------------------------
  cycle        total energy    energy error   density error
------------------------------------------------------------
      1     -195.7813331867  -1.9881230E+02   2.6699406E-03
      2     -195.7765746756   4.7585111E-03   3.7084937E-03
      3     -195.7546912049   2.1883471E-02   7.9757581E-03
      4     -195.7803070419  -2.5615837E-02   1.4640294E-03
      5     -195.7807734215  -4.6637953E-04   1.1682338E-03
      6     -195.7813749817  -6.0156028E-04   3.1209889E-04
      7     -195.7814156940  -4.0712284E-05   8.3603448E-05
      8     -195.7814121219   3.5721474E-06   1.2252459E-04
      9     -195.7814162852  -4.1633032E-06   6.9892011E-05
     10     -195.7814181236  -1.8384253E-06   1.1112050E-05
     11     -195.7814181516  -2.7977961E-08   5.8748344E-06
------------------------------------------------------------

 total:                                   9.855 sec
 * total energy  :  -195.7814182 Eh     change       -0.2682583E-02 Eh
   gradient norm :     0.0201567 Eh/α   predicted    -0.2894522E-02 (   7.90%)
   displ. norm   :     0.8460906 α      lambda       -0.3281639E-02
   maximum displ.:     0.3456558 α      in ANC's #9, #6, #11, ...

........................................................................
.............................. CYCLE   30 ..............................
........................................................................
------------------------------------------------------------
  cycle        total energy    energy error   density error
------------------------------------------------------------
      1     -195.7839246205  -1.9880261E+02   2.7441520E-03
      2     -195.7703457786   1.3578842E-02   5.7755268E-03
      3     -195.7672975665   3.0482121E-03   6.3841681E-03
      4     -195.7767630085  -9.4654420E-03   3.8281833E-03
      5     -195.7839130544  -7.1500459E-03   7.5853966E-04
      6     -195.7840674438  -1.5438939E-04   4.2414625E-04
      7     -195.7840765905  -9.1467022E-06   4.0371475E-04
      8     -195.7840981991  -2.1608678E-05   3.2206256E-04
      9     -195.7841257936  -2.7594460E-05   1.8044612E-04
     10     -195.7841367288  -1.0935168E-05   6.2501118E-05
     11     -195.7841377768  -1.0480663E-06   3.0360145E-05
     12     -195.7841380073  -2.3048264E-07   1.1997142E-05
------------------------------------------------------------

 total:                                  11.246 sec
 * total energy  :  -195.7841380 Eh     change       -0.2719856E-02 Eh
   gradient norm :     0.0175460 Eh/α   predicted    -0.2815432E-02 (   3.51%)
   displ. norm   :     0.7735663 α      lambda       -0.2754964E-02
   maximum displ.:     0.3133533 α      in ANC's #6, #9, #11, ...

........................................................................
.............................. CYCLE   31 ..............................
........................................................................
------------------------------------------------------------
  cycle        total energy    energy error   density error
------------------------------------------------------------
      1     -195.7864660361  -1.9880013E+02   2.2959142E-03
      2     -195.7696601886   1.6805848E-02   6.3609700E-03
      3     -195.7779336128  -8.2734242E-03   4.6659532E-03
      4     -195.7823854393  -4.4518266E-03   2.8792693E-03
      5     -195.7864192746  -4.0338353E-03   7.0579889E-04
      6     -195.7866287900  -2.0951544E-04   1.7311763E-04
      7     -195.7866239103   4.8797010E-06   2.1407428E-04
      8     -195.7866278096  -3.8992800E-06   1.8524994E-04
      9     -195.7866380857  -1.0276095E-05   8.9895145E-05
     10     -195.7866405028  -2.4171309E-06   3.8813767E-05
     11     -195.7866408064  -3.0355486E-07   2.6125935E-05
     12     -195.7866409946  -1.8818548E-07   1.1311596E-05
------------------------------------------------------------

 total:                                  11.270 sec
 * total energy  :  -195.7866410 Eh     change       -0.2502987E-02 Eh
   gradient norm :     0.0165513 Eh/α   predicted    -0.2201779E-02 ( -12.03%)
   displ. norm   :     0.7817073 α      lambda       -0.3267998E-02
   maximum displ.:     0.3102639 α      in ANC's #6, #11, #9, ...

........................................................................
.............................. CYCLE   32 ..............................
........................................................................
------------------------------------------------------------
  cycle        total energy    energy error   density error
------------------------------------------------------------
      1     -195.7893390617  -1.9880936E+02   2.2937534E-03
      2     -195.7875232629   1.8157988E-03   2.4538905E-03
      3     -195.7672777127   2.0245550E-02   7.1046538E-03
      4     -195.7874661209  -2.0188408E-02   1.9824397E-03
      5     -195.7888666108  -1.4004898E-03   1.1041156E-03
      6     -195.7893070441  -4.4043327E-04   5.3073512E-04
      7     -195.7893132426  -6.1985263E-06   5.0775709E-04
      8     -195.7893586425  -4.5399918E-05   3.6845654E-04
      9     -195.7894044794  -4.5836906E-05   1.3800469E-04
     10     -195.7894119060  -7.4265448E-06   1.9521718E-05
     11     -195.7894120023  -9.6373469E-08   9.3628934E-06
------------------------------------------------------------

 total:                                  11.679 sec
 * total energy  :  -195.7894120 Eh     change       -0.2771008E-02 Eh
   gradient norm :     0.0148715 Eh/α   predicted    -0.2632485E-02 (  -5.00%)
   displ. norm   :     0.8398570 α      lambda       -0.2860820E-02
   maximum displ.:     0.3562439 α      in ANC's #6, #11, #9, ...

........................................................................
.............................. CYCLE   33 ..............................
........................................................................
------------------------------------------------------------
  cycle        total energy    energy error   density error
------------------------------------------------------------
      1     -195.7918027986  -1.9880839E+02   2.4496488E-03
      2     -195.7900668257   1.7359729E-03   2.4266768E-03
      3     -195.7680228267   2.2043999E-02   7.3307362E-03
      4     -195.7871013397  -1.9078513E-02   3.1331112E-03
      5     -195.7914028298  -4.3014901E-03   1.0991363E-03
      6     -195.7917650482  -3.6221840E-04   5.8480515E-04
      7     -195.7917716507  -6.6024976E-06   5.5956393E-04
      8     -195.7918295789  -5.7928240E-05   3.9910178E-04
      9     -195.7918887593  -5.9180361E-05   9.2850835E-05
     10     -195.7918920433  -3.2840185E-06   1.9111972E-05
     11     -195.7918921057  -6.2430388E-08   1.4526446E-05
------------------------------------------------------------

 total:                                  10.980 sec
 * total energy  :  -195.7918921 Eh     change       -0.2480103E-02 Eh
   gradient norm :     0.0148934 Eh/α   predicted    -0.2439369E-02 (  -1.64%)
   displ. norm   :     0.7910053 α      lambda       -0.2671388E-02
   maximum displ.:     0.3308576 α      in ANC's #6, #3, #11, ...

........................................................................
.............................. CYCLE   34 ..............................
........................................................................
------------------------------------------------------------
  cycle        total energy    energy error   density error
------------------------------------------------------------
      1     -195.7938167053  -1.9881700E+02   2.4456680E-03
      2     -195.7634272776   3.0389428E-02   8.5536551E-03
      3     -195.7902170011  -2.6789724E-02   3.2851950E-03
      4     -195.7905049657  -2.8796457E-04   2.6544039E-03
      5     -195.7938384355  -3.3334698E-03   7.5970119E-04
      6     -195.7940842888  -2.4585334E-04   2.1596509E-04
      7     -195.7941026388  -1.8349970E-05   7.6004672E-05
      8     -195.7941020769   5.6188657E-07   8.7357588E-05
      9     -195.7941038361  -1.7592288E-06   5.4312965E-05
     10     -195.7941047124  -8.7631540E-07   2.4157701E-05
     11     -195.7941047940  -8.1539355E-08   1.7813249E-05
------------------------------------------------------------

 total:                                  11.366 sec
 * total energy  :  -195.7941048 Eh     change       -0.2212688E-02 Eh
   gradient norm :     0.0136123 Eh/α   predicted    -0.2171427E-02 (  -1.86%)
   displ. norm   :     0.7917897 α      lambda       -0.2207738E-02
   maximum displ.:     0.3754421 α      in ANC's #6, #3, #11, ...

........................................................................
.............................. CYCLE   35 ..............................
........................................................................
------------------------------------------------------------
  cycle        total energy    energy error   density error
------------------------------------------------------------
      1     -195.7958989977  -1.9881410E+02   2.0926763E-03
      2     -195.7915849600   4.3140377E-03   3.4387714E-03
      3     -195.7811736882   1.0411272E-02   5.9767005E-03
      4     -195.7896726368  -8.4989486E-03   3.5701956E-03
      5     -195.7958344838  -6.1618470E-03   5.7233539E-04
      6     -195.7959665406  -1.3205681E-04   1.7329378E-04
      7     -195.7959765539  -1.0013275E-05   9.6481179E-05
      8     -195.7959740725   2.4814038E-06   1.2336708E-04
      9     -195.7959771227  -3.0502232E-06   8.6328796E-05
     10     -195.7959792548  -2.1320607E-06   4.2476722E-05
     11     -195.7959796693  -4.1453293E-07   2.6350005E-05
     12     -195.7959798581  -1.8875224E-07   1.3860286E-05
------------------------------------------------------------

 total:                                  11.808 sec
 * total energy  :  -195.7959799 Eh     change       -0.1875064E-02 Eh
   gradient norm :     0.0119690 Eh/α   predicted    -0.1795925E-02 (  -4.22%)
   displ. norm   :     0.7286195 α      lambda       -0.2084571E-02
   maximum displ.:     0.3591627 α      in ANC's #6, #3, #11, ...

........................................................................
.............................. CYCLE   36 ..............................
........................................................................
------------------------------------------------------------
  cycle        total energy    energy error   density error
------------------------------------------------------------
      1     -195.7973896756  -1.9881871E+02   1.9014282E-03
      2     -195.7869030103   1.0486665E-02   5.0533416E-03
      3     -195.7915050588  -4.6020485E-03   3.8967218E-03
      4     -195.7963962972  -4.8912385E-03   1.4759303E-03
      5     -195.7972288423  -8.3254512E-04   7.8836508E-04
      6     -195.7974519993  -2.2315697E-04   3.9439544E-04
      7     -195.7974880298  -3.6030455E-05   2.5564688E-04
      8     -195.7975008153  -1.2785499E-05   1.7641563E-04
      9     -195.7975091636  -8.3483299E-06   9.4281503E-05
     10     -195.7975123544  -3.1908122E-06   2.7760145E-05
     11     -195.7975125889  -2.3443684E-07   1.2879054E-05
------------------------------------------------------------

 total:                                  10.042 sec
 * total energy  :  -195.7975126 Eh     change       -0.1532731E-02 Eh
   gradient norm :     0.0191181 Eh/α   predicted    -0.1595637E-02 (   4.10%)
   displ. norm   :     0.7314083 α      lambda       -0.2111348E-02
   maximum displ.:     0.3595411 α      in ANC's #6, #3, #11, ...

........................................................................
.............................. CYCLE   37 ..............................
........................................................................
------------------------------------------------------------
  cycle        total energy    energy error   density error
------------------------------------------------------------
      1     -195.7990190742  -1.9882103E+02   1.7343271E-03
      2     -195.7926766824   6.3423919E-03   3.9918277E-03
      3     -195.7929572860  -2.8060364E-04   3.9287016E-03
      4     -195.7953242421  -2.3669561E-03   2.7492192E-03
      5     -195.7990535325  -3.7292904E-03   3.3888939E-04
      6     -195.7990835957  -3.0063184E-05   1.9173280E-04
      7     -195.7990926236  -9.0279285E-06   1.2797232E-04
      8     -195.7990977179  -5.0942165E-06   6.0192794E-05
      9     -195.7990984447  -7.2679583E-07   3.7709861E-05
     10     -195.7990988463  -4.0166813E-07   2.0529480E-05
     11     -195.7990989845  -1.3819982E-07   8.1607408E-06
------------------------------------------------------------

 total:                                  10.175 sec
 * total energy  :  -195.7990990 Eh     change       -0.1586396E-02 Eh
   gradient norm :     0.0153810 Eh/α   predicted    -0.1620419E-02 (   2.14%)
   displ. norm   :     0.6871120 α      lambda       -0.1808311E-02
   maximum displ.:     0.3629163 α      in ANC's #6, #3, #8, ...

........................................................................
.............................. CYCLE   38 ..............................
........................................................................
------------------------------------------------------------
  cycle        total energy    energy error   density error
------------------------------------------------------------
      1     -195.8005499376  -1.9881680E+02   1.5103516E-03
      2     -195.7880958834   1.2454054E-02   5.4580181E-03
      3     -195.7987435565  -1.0647673E-02   2.2927415E-03
      4     -195.8003370759  -1.5935194E-03   8.2490280E-04
      5     -195.8005743294  -2.3725345E-04   4.8964337E-04
      6     -195.8006558484  -8.1519074E-05   2.5640748E-04
      7     -195.8006733707  -1.7522229E-05   1.4684629E-04
      8     -195.8006808197  -7.4490503E-06   5.0696675E-05
      9     -195.8006815563  -7.3657404E-07   2.0590717E-05
     10     -195.8006817151  -1.5883018E-07   4.7283185E-06
------------------------------------------------------------

 total:                                   6.398 sec
 * total energy  :  -195.8006817 Eh     change       -0.1582731E-02 Eh
   gradient norm :     0.0131844 Eh/α   predicted    -0.1331029E-02 ( -15.90%)
   displ. norm   :     0.7298629 α      lambda       -0.2429485E-02
   maximum displ.:     0.3907296 α      in ANC's #6, #3, #8, ...

........................................................................
.............................. CYCLE   39 ..............................
........................................................................
------------------------------------------------------------
  cycle        total energy    energy error   density error
------------------------------------------------------------
      1     -195.8023496937  -1.9882292E+02   1.7520300E-03
      2     -195.7848613700   1.7488324E-02   6.4579622E-03
      3     -195.8004497831  -1.5588413E-02   2.4252896E-03
      4     -195.8017088786  -1.2590955E-03   1.3389345E-03
      5     -195.8023377702  -6.2889164E-04   7.5921122E-04
      6     -195.8025432067  -2.0543646E-04   3.4812765E-04
      7     -195.8025816991  -3.8492469E-05   1.5536658E-04
      8     -195.8025889991  -7.2999916E-06   7.0909288E-05
      9     -195.8025907619  -1.7628087E-06   2.0708929E-05
     10     -195.8025908778  -1.1583742E-07   1.3059918E-05
------------------------------------------------------------

 total:                                   5.527 sec
 * total energy  :  -195.8025909 Eh     change       -0.1909163E-02 Eh
   gradient norm :     0.0148578 Eh/α   predicted    -0.1861842E-02 (  -2.48%)
   displ. norm   :     0.7964804 α      lambda       -0.2101890E-02
   maximum displ.:     0.4167780 α      in ANC's #6, #3, #8, ...

........................................................................
.............................. CYCLE   40 ..............................
........................................................................
------------------------------------------------------------
  cycle        total energy    energy error   density error
------------------------------------------------------------
      1     -195.8044014859  -1.9882179E+02   1.6580756E-03
      2     -195.8020414989   2.3599870E-03   2.5327330E-03
      3     -195.7911557045   1.0885794E-02   5.7317603E-03
      4     -195.8029935699  -1.1837865E-02   1.6783583E-03
      5     -195.8043861422  -1.3925723E-03   3.7771729E-04
      6     -195.8044392838  -5.3141664E-05   1.2563734E-04
      7     -195.8044419364  -2.6525559E-06   8.7056538E-05
      8     -195.8044440480  -2.1116055E-06   4.6871583E-05
      9     -195.8044445237  -4.7573084E-07   3.1036558E-05
     10     -195.8044445227   1.0295196E-09   3.0158256E-05
     11     -195.8044446347  -1.1199140E-07   2.4647086E-05
     12     -195.8044447833  -1.4858401E-07   1.4197756E-05
------------------------------------------------------------

 total:                                   6.709 sec
 * total energy  :  -195.8044448 Eh     change       -0.1853905E-02 Eh
   gradient norm :     0.0160224 Eh/α   predicted    -0.1717645E-02 (  -7.35%)
   displ. norm   :     0.8258938 α      lambda       -0.2174176E-02
   maximum displ.:     0.4473833 α      in ANC's #6, #3, #8, ...

........................................................................
.............................. CYCLE   41 ..............................
........................................................................
------------------------------------------------------------
  cycle        total energy    energy error   density error
------------------------------------------------------------
      1     -195.8063661797  -1.9882081E+02   1.6389941E-03
      2     -195.8063527721   1.3407619E-05   9.7769363E-04
      3     -195.8003470593   6.0057128E-03   3.7892604E-03
      4     -195.8041674702  -3.8204109E-03   2.2692038E-03
      5     -195.8062876034  -2.1201332E-03   4.6152749E-04
      6     -195.8063839494  -9.6345963E-05   9.2294754E-05
      7     -195.8063833988   5.5053334E-07   9.5366849E-05
      8     -195.8063849999  -1.6010291E-06   7.2152676E-05
      9     -195.8063861445  -1.1446334E-06   4.7945425E-05
     10     -195.8063866371  -4.9259401E-07   3.0980212E-05
     11     -195.8063867952  -1.5812395E-07   2.3119374E-05
     12     -195.8063869201  -1.2486319E-07   1.3858207E-05
------------------------------------------------------------

 total:                                   8.027 sec
 * total energy  :  -195.8063869 Eh     change       -0.1942137E-02 Eh
   gradient norm :     0.0124492 Eh/α   predicted    -0.1828598E-02 (  -5.85%)
   displ. norm   :     0.8328231 α      lambda       -0.2205370E-02
   maximum displ.:     0.4446107 α      in ANC's #6, #3, #8, ...

........................................................................
.............................. CYCLE   42 ..............................
........................................................................
------------------------------------------------------------
  cycle        total energy    energy error   density error
------------------------------------------------------------
      1     -195.8082956435  -1.9882502E+02   1.6277592E-03
      2     -195.8076889550   6.0668855E-04   1.5423435E-03
      3     -195.7918374192   1.5851536E-02   6.2844779E-03
      4     -195.8075829178  -1.5745499E-02   1.2456776E-03
      5     -195.8082036409  -6.2072306E-04   5.1138283E-04
      6     -195.8083065282  -1.0288726E-04   1.9093710E-04
      7     -195.8083182154  -1.1687203E-05   8.3894476E-05
      8     -195.8083204789  -2.2635503E-06   3.2153343E-05
      9     -195.8083208122  -3.3323866E-07   1.5417483E-05
------------------------------------------------------------

 total:                                   4.794 sec
 * total energy  :  -195.8083208 Eh     change       -0.1933892E-02 Eh
   gradient norm :     0.0113874 Eh/α   predicted    -0.1867503E-02 (  -3.43%)
   displ. norm   :     0.8620251 α      lambda       -0.2061525E-02
   maximum displ.:     0.4588421 α      in ANC's #6, #3, #8, ...
 * RMSD in coord.:     1.1823432 α      energy gain  -0.5566332E-01 Eh

generating ANC from exact Hessian ...
Using Lindh-Hessian (1995)
 Shifting diagonal of input Hessian by    1.0088224906284603E-002
 Lowest  eigenvalues of input Hessian
    0.010000    0.000000    0.000000    0.000000    0.000000    0.000000
    0.000000    0.010124    0.010146    0.010243    0.010268    0.010416
    0.010488    0.010553    0.010592    0.010824    0.010893    0.010950
 Highest eigenvalues
    2.089405    2.092933    2.187006    2.187454    2.201744    2.205725


........................................................................
.............................. CYCLE   43 ..............................
........................................................................
------------------------------------------------------------
  cycle        total energy    energy error   density error
------------------------------------------------------------
      1     -195.8100901765  -1.9882522E+02   1.7031536E-03
      2     -195.8007157032   9.3744733E-03   4.8624884E-03
      3     -195.8067728530  -6.0571498E-03   3.0117718E-03
      4     -195.8100599653  -3.2871123E-03   5.1671932E-04
      5     -195.8101510055  -9.1040135E-05   2.8383388E-04
      6     -195.8101618063  -1.0800845E-05   2.3263057E-04
      7     -195.8101814936  -1.9687303E-05   1.0557857E-04
      8     -195.8101852738  -3.7802104E-06   3.2743574E-05
      9     -195.8101854751  -2.0127180E-07   1.9269397E-05
------------------------------------------------------------

 total:                                   4.672 sec
 * total energy  :  -195.8101855 Eh     change       -0.1864663E-02 Eh
   gradient norm :     0.0125347 Eh/α   predicted     0.0000000E+00 (-100.00%)
   displ. norm   :     0.2175357 α      lambda       -0.8090416E-03
   maximum displ.:     0.1016185 α      in ANC's #7, #3, #1, ...

........................................................................
.............................. CYCLE   44 ..............................
........................................................................
------------------------------------------------------------
  cycle        total energy    energy error   density error
------------------------------------------------------------
      1     -195.8108537530  -1.9883094E+02   6.6121787E-04
      2     -195.8060464643   4.8072887E-03   3.4503405E-03
      3     -195.8108005422  -4.7540779E-03   5.7340272E-04
      4     -195.8107788427   2.1699495E-05   4.8460302E-04
      5     -195.8108841116  -1.0526885E-04   1.2395952E-04
      6     -195.8108867808  -2.6692184E-06   1.0009928E-04
      7     -195.8108911866  -4.4058100E-06   3.6164838E-05
      8     -195.8108915228  -3.3617380E-07   2.2006300E-05
      9     -195.8108916300  -1.0722971E-07   1.3863302E-05
------------------------------------------------------------

 total:                                   4.880 sec
 * total energy  :  -195.8108916 Eh     change       -0.7061549E-03 Eh
   gradient norm :     0.0055889 Eh/α   predicted    -0.4236697E-03 ( -40.00%)
   displ. norm   :     0.6130629 α      lambda       -0.1685031E-02
   maximum displ.:     0.2897548 α      in ANC's #7, #3, #1, ...

........................................................................
.............................. CYCLE   45 ..............................
........................................................................
------------------------------------------------------------
  cycle        total energy    energy error   density error
------------------------------------------------------------
      1     -195.8122910887  -1.9883742E+02   1.3781440E-03
      2     -195.8122847022   6.3864167E-06   8.2472401E-04
      3     -195.8101372392   2.1474631E-03   2.2453731E-03
      4     -195.8102100596  -7.2820448E-05   2.2415548E-03
      5     -195.8122224165  -2.0123569E-03   4.1867785E-04
      6     -195.8122976560  -7.5239469E-05   1.3069922E-04
      7     -195.8123031360  -5.4799958E-06   6.8287838E-05
      8     -195.8123044751  -1.3391308E-06   3.4790104E-05
      9     -195.8123047198  -2.4470589E-07   2.2329801E-05
     10     -195.8123048157  -9.5880580E-08   1.5759939E-05
------------------------------------------------------------

 total:                                   5.454 sec
 * total energy  :  -195.8123048 Eh     change       -0.1413186E-02 Eh
   gradient norm :     0.0093529 Eh/α   predicted    -0.1159172E-02 ( -17.97%)
   displ. norm   :     0.7457544 α      lambda       -0.1634118E-02
   maximum displ.:     0.3537575 α      in ANC's #7, #3, #1, ...

........................................................................
.............................. CYCLE   46 ..............................
........................................................................
------------------------------------------------------------
  cycle        total energy    energy error   density error
------------------------------------------------------------
      1     -195.8137937547  -1.9883779E+02   1.5425795E-03
      2     -195.8117239567   2.0697981E-03   2.4689409E-03
      3     -195.8065642575   5.1596991E-03   4.2585157E-03
      4     -195.8136292407  -7.0649832E-03   6.5376508E-04
      5     -195.8137946455  -1.6540474E-04   2.4257067E-04
      6     -195.8138086243  -1.3978794E-05   1.5223076E-04
      7     -195.8138150832  -6.4589898E-06   9.6760668E-05
      8     -195.8138177168  -2.6335355E-06   5.9745499E-05
      9     -195.8138186741  -9.5729686E-07   3.2562223E-05
     10     -195.8138189058  -2.3176719E-07   2.0505421E-05
     11     -195.8138189680  -6.2158989E-08   1.5756381E-05
------------------------------------------------------------

 total:                                   5.648 sec
 * total energy  :  -195.8138190 Eh     change       -0.1514152E-02 Eh
   gradient norm :     0.0145032 Eh/α   predicted    -0.1271551E-02 ( -16.02%)
   displ. norm   :     0.8305132 α      lambda       -0.1862591E-02
   maximum displ.:     0.3980512 α      in ANC's #7, #3, #1, ...

........................................................................
.............................. CYCLE   47 ..............................
........................................................................
------------------------------------------------------------
  cycle        total energy    energy error   density error
------------------------------------------------------------
      1     -195.8155203994  -1.9883450E+02   1.6829803E-03
      2     -195.8073359302   8.1844692E-03   4.6282203E-03
      3     -195.8136832624  -6.3473322E-03   2.3101319E-03
[...]
   but WITHOUT ANY WARRANTY; without even the implied warranty of
   MERCHANTABILITY or FITNESS FOR A PARTICULAR PURPOSE.  See the
   GNU Lesser General Public License for more details.
   
   Cite this work as:
   * C. Bannwarth, E. Caldeweyher, S. Ehlert, A. Hansen, P. Pracht,
     J. Seibert, S. Spicher, S. Grimme, WIREs Comput. Mol. Sci., 2020, 11,
     e01493. DOI: 10.1002/wcms.1493
   
   for GFN2-xTB:
   * C. Bannwarth, S. Ehlert and S. Grimme., J. Chem. Theory Comput., 2019,
     15, 1652-1671. DOI: 10.1021/acs.jctc.8b01176
   for GFN1-xTB:
   * S. Grimme, C. Bannwarth, P. Shushkov, J. Chem. Theory Comput., 2017,
     13, 1989-2009. DOI: 10.1021/acs.jctc.7b00118
   for GFN0-xTB:
   * P. Pracht, E. Caldeweyher, S. Ehlert, S. Grimme, ChemRxiv, 2019, preprint.
     DOI: 10.26434/chemrxiv.8326202.v1
   for GFN-FF:
   * S. Spicher and S. Grimme, Angew. Chem. Int. Ed., 2020, 59, 15665-15673.
     DOI: 10.1002/anie.202004239
   
   for ALPB and GBSA implicit solvation:
   * S. Ehlert, M. Stahn, S. Spicher, S. Grimme, J. Chem. Theory Comput.,
     2021, 17, 4250-4261. DOI: 10.1021/acs.jctc.1c00471
   
   for ddCOSMO and CPCM-X implicit solvation:
   * M. Stahn, S. Ehlert, S. Grimme, J. Phys. Chem. A,
     2023, XX, XXXX-XXXX. DOI: 10.1021/acs.jpca.3c04382
   
   for DFT-D4:
   * E. Caldeweyher, C. Bannwarth and S. Grimme, J. Chem. Phys., 2017,
     147, 034112. DOI: 10.1063/1.4993215
   * E. Caldeweyher, S. Ehlert, A. Hansen, H. Neugebauer, S. Spicher,
     C. Bannwarth and S. Grimme, J. Chem. Phys., 2019, 150, 154122.
     DOI: 10.1063/1.5090222
   * E. Caldeweyher, J.-M. Mewes, S. Ehlert and S. Grimme, Phys. Chem. Chem. Phys.
     2020, 22, 8499-8512. DOI: 10.1039/D0CP00502A
   
   for sTDA-xTB:
   * S. Grimme and C. Bannwarth, J. Chem. Phys., 2016, 145, 054103.
     DOI: 10.1063/1.4959605
   
   in the mass-spec context:
   * V. Asgeirsson, C. Bauer and S. Grimme, Chem. Sci., 2017, 8, 4879.
     DOI: 10.1039/c7sc00601b
   * J. Koopman and S. Grimme, ACS Omega 2019, 4, 12, 15120-15133.
     DOI: 10.1021/acsomega.9b02011
   
   for metadynamics refer to:
   * S. Grimme, J. Chem. Theory Comput., 2019, 155, 2847-2862
     DOI: 10.1021/acs.jctc.9b00143
   
   for SPH calculations refer to:
   * S. Spicher and S. Grimme, J. Chem. Theory Comput., 2021, 17, 1701-1714
     DOI: 10.1021/acs.jctc.0c01306
   
   for ONIOM refer to:
   * C. Plett, A. Katbashev, S. Ehlert, S. Grimme, M. Bursch,
     Phys. Chem. Chem. Phys., 2023, 25, 17860-17868. DOI: 10.1039/D3CP02178E
   
   for DIPRO refer to:
   * J. Kohn, N. Gildemeister, S. Grimme, D. Fazzi, A. Hansen,
     J. Chem. Phys., 2023, just accepted.
   
   for PTB refer to:
   * S. Grimme, M. Mueller, A. Hansen, J. Chem. Phys., 2023, 158, 124111.
     DOI: 10.1063/5.0137838
   
   with help from (in alphabetical order)
   P. Atkinson, C. Bannwarth, F. Bohle, G. Brandenburg, E. Caldeweyher
   M. Checinski, S. Dohm, S. Ehlert, S. Ehrlich, I. Gerasimov, C. Hölzer
   A. Katbashev, J. Kohn, J. Koopman, C. Lavigne, S. Lehtola, F. März, M. Müller,
   F. Musil, H. Neugebauer, J. Pisarek, C. Plett, P. Pracht, F. Pultar,
   J. Seibert, P. Shushkov, S. Spicher, M. Stahn, M. Steiner, T. Strunk,
   J. Stückrath, T. Rose, and J. Unsleber
   
 * started run on 2025/03/10 at 14:37:14.418     
   ID    Z sym.   atoms
    1    6 C      1-9, 11, 12, 14-21, 25-33, 35, 36, 38-45, 48-71, 138-146,
                  148, 149, 151-158, 162-170, 172, 173, 175-182, 185-208
    2    7 N      10, 13, 34, 37, 147, 150, 171, 174
    3    8 O      22, 23, 46, 47, 159, 160, 183, 184
    4    5 B      24, 161
    5    1 H      72-137, 209-274

           -------------------------------------------------
          |                Calculation Setup                |
           -------------------------------------------------

          program call               : xtb opt_dimer.mol --dipro 0.3 --chrg 0 --uhf 2 --spinpol --tblite
          coordinate file            : opt_dimer.mol
          omp threads                :                     8


molecular fragmentation (1/2 indicates fragments):
111111111111111111111111111111111111111111111111111111111111111111111111
111111111111111111111111111111111111111111111111111111111111111112222222
222222222222222222222222222222222222222222222222222222222222222222222222
2222222222222222222222222222222222222222222222222222222222
# atoms in fragment 1/2:   137   137
 fragment masses (1/2) :      942.03      942.03
CMA distance (Bohr)    :  12.319
constraining FC (au)   :  0.0500
Wavefunction read from restart file
           -------------------------------------------------
          |                    D I P R O                    |
           -------------------------------------------------
Calculation for dimer 
--------------------- 
  
charge of dimer :   0.
unpaired e- of dimer :  2
repulsion energy          6.0537475316005E+00 Eh
dispersion energy         4.0418591174483E-02 Eh
number of electrons       7.2200000000000E+02 e
integral cutoff           1.9311100799991E+01 bohr

------------------------------------------------------------
  cycle        total energy    energy error   density error
------------------------------------------------------------
      1     -390.6031907347  -3.9669736E+02   1.3862263E-01
      2     -391.5170682375  -9.1387750E-01   7.3770127E-02
      3     -390.5326096839   9.8445855E-01   5.3223384E-02
      4     -390.6695346181  -1.3692493E-01   4.0557988E-02
      5     -391.6544751937  -9.8494058E-01   1.9425004E-02
      6     -391.6769079002  -2.2432706E-02   1.5065412E-02
      7     -391.7391553805  -6.2247480E-02   9.6930569E-03
      8     -391.4640404037   2.7511498E-01   1.6941488E-02
      9     -391.7230031418  -2.5896274E-01   9.4922474E-03
     10     -391.7623216352  -3.9318493E-02   7.5695977E-03
     11     -391.7767135299  -1.4391895E-02   6.3718113E-03
     12     -391.7919923578  -1.5278828E-02   3.4497370E-03
     13     -391.7940628542  -2.0704964E-03   2.8614420E-03
     14     -391.7958656703  -1.8028161E-03   2.2164792E-03
     15     -391.7962759957  -4.1032535E-04   1.8438977E-03
     16     -391.7982519706  -1.9759749E-03   7.2862097E-04
     17     -391.7984886390  -2.3666845E-04   4.7607982E-04
     18     -391.7985844766  -9.5837612E-05   2.1071861E-04
     19     -391.7985865939  -2.1172875E-06   2.4344558E-04
     20     -391.7986180066  -3.1412675E-05   1.0122523E-04
     21     -391.7986243633  -6.3567011E-06   3.1783068E-05
     22     -391.7986247358  -3.7250169E-07   2.1078076E-05
     23     -391.7986251030  -3.6718797E-07   3.9030925E-06
------------------------------------------------------------

electronic energy        -3.9789279122575E+02 Eh
total energy             -3.9179862510298E+02 Eh

 total:                                  21.024 sec
 - repulsion                              0.001 sec (  0%)
 - dispersion                             0.082 sec (  0%)
 - coulomb                                0.021 sec (  0%)
 - hamiltonian                            0.045 sec (  0%)
 - scc                                   20.875 sec ( 99%)

Found 2 fragments!
Fragment 1:  1-137
Fragment 2:  138-274

[Info] Fragment spin read from .UHFfrag
Calculation for fragment 1
 ------------------------------
   
charge of fragment :   0.
unpaired e- of fragment :  1
------------------------------------------------------------
  cycle        total energy    energy error   density error
------------------------------------------------------------
      1     -195.2549618819  -1.9828472E+02   1.3924279E-01
      2     -195.7362282368  -4.8126635E-01   7.3220762E-02
      3     -195.3466929125   3.8953532E-01   4.9624054E-02
      4     -194.7609294102   5.8576350E-01   4.9159847E-02
      5     -195.7270375827  -9.6610817E-01   2.2017335E-02
      6     -195.8100010945  -8.2963512E-02   1.5967616E-02
      7     -195.8432619820  -3.3260887E-02   8.7053700E-03
      8     -195.8482712745  -5.0092925E-03   8.3852514E-03
      9     -195.8568252899  -8.5540154E-03   4.5192251E-03
     10     -195.8472064487   9.6188412E-03   7.1766046E-03
     11     -195.8618438763  -1.4637428E-02   1.4172223E-03
     12     -195.8623415634  -4.9768717E-04   4.8011356E-04
     13     -195.8622866927   5.4870697E-05   5.3523744E-04
     14     -195.8623503550  -6.3662255E-05   2.9793528E-04
     15     -195.8623629871  -1.2632077E-05   2.2897753E-04
     16     -195.8623814956  -1.8508474E-05   2.9060501E-05
     17     -195.8623816011  -1.0557611E-07   2.2249715E-05
     18     -195.8623816323  -3.1141838E-08   1.9004615E-05
------------------------------------------------------------

 total:                                   4.646 sec
Calculation for fragment 2
 ------------------------------
   
charge of fragment :   0.
unpaired e- of fragment :  1
------------------------------------------------------------
  cycle        total energy    energy error   density error
------------------------------------------------------------
      1     -195.2548630485  -1.9828475E+02   1.3829257E-01
      2     -195.7379777455  -4.8311470E-01   7.2729436E-02
      3     -195.3668608322   3.7111691E-01   4.8688280E-02
      4     -194.6353735512   7.3148728E-01   5.0941883E-02
      5     -195.7277498204  -1.0923763E+00   2.1871057E-02
      6     -195.8156097664  -8.7859946E-02   1.5595231E-02
      7     -195.8390540021  -2.3444236E-02   9.0043796E-03
      8     -195.8441808704  -5.1268683E-03   9.3536456E-03
      9     -195.8592456524  -1.5064782E-02   4.6968543E-03
     10     -195.8540562606   5.1893918E-03   5.3853255E-03
     11     -195.8599681180  -5.9118574E-03   2.5480453E-03
     12     -195.8621328203  -2.1647023E-03   6.8365854E-04
     13     -195.8622125791  -7.9758769E-05   3.6291430E-04
     14     -195.8622368541  -2.4274955E-05   2.3126987E-04
     15     -195.8622522710  -1.5416904E-05   9.7161327E-05
     16     -195.8622548295  -2.5585079E-06   2.4726325E-05
     17     -195.8622547347   9.4818972E-08   2.3971816E-05
     18     -195.8622548270  -9.2288928E-08   1.5307970E-05
------------------------------------------------------------

 total:                                   3.952 sec
   
   ::::::::::::::::::::::::::::::::::::::::::::::
   ::     D I P R O      C O U P L I N G S     ::
   ::::::::::::::::::::::::::::::::::::::::::::::
   
energy threshhold for near-degenerate orbitals near HOMO and LUMO considered for DIPRO:  0.300 eV
no. of orbitals within energy window of frag 1         6
no. of orbitals within energy window of frag 2         6
   
  Fragment 1 SOMO-3  Fragment 2 SOMO-3
--------------------------------------
E_mon(orb) frag1 frag2              -9.821    -9.820 eV
J(AB):                0.040 eV
S(AB):            -0.00126316 Eh
|J(AB,eff)|:            0.028 eV
   
  Fragment 1 SOMO-3  Fragment 2 SOMO-2
--------------------------------------
E_mon(orb) frag1 frag2              -9.821    -9.712 eV
J(AB):                0.004 eV
S(AB):            -0.00013684 Eh
|J(AB,eff)|:            0.003 eV
   
  Fragment 1 SOMO-3  Fragment 2 SOMO-1
--------------------------------------
E_mon(orb) frag1 frag2              -9.821    -9.732 eV
J(AB):                0.000 eV
S(AB):            -0.00009273 Eh
|J(AB,eff)|:            0.001 eV
   
  Fragment 1 SOMO-3  Fragment 2 SOMO 
--------------------------------------
E_mon(orb) frag1 frag2              -9.821    -9.596 eV
J(AB):                0.006 eV
S(AB):            -0.00003933 Eh
|J(AB,eff)|:            0.005 eV
   
  Fragment 1 SOMO-3  Fragment 2 LUMO 
--------------------------------------
E_mon(orb) frag1 frag2              -9.821    -9.262 eV
J(AB):               -0.000 eV
S(AB):            -0.00010712 Eh
|J(AB,eff)|:            0.001 eV
   
  Fragment 1 SOMO-3  Fragment 2 LUMO+1
--------------------------------------
E_mon(orb) frag1 frag2              -9.821    -9.226 eV
J(AB):               -0.010 eV
S(AB):             0.00030508 Eh
|J(AB,eff)|:            0.007 eV
   
  Fragment 1 SOMO-2  Fragment 2 SOMO-3
--------------------------------------
E_mon(orb) frag1 frag2              -9.712    -9.820 eV
J(AB):               -0.004 eV
S(AB):             0.00014454 Eh
|J(AB,eff)|:            0.003 eV
   
  Fragment 1 SOMO-2  Fragment 2 SOMO-2
--------------------------------------
E_mon(orb) frag1 frag2              -9.712    -9.712 eV
J(AB):               -0.009 eV
S(AB):             0.00042113 Eh
|J(AB,eff)|:            0.005 eV
   
  Fragment 1 SOMO-2  Fragment 2 SOMO-1
--------------------------------------
E_mon(orb) frag1 frag2              -9.712    -9.732 eV
J(AB):               -0.007 eV
S(AB):             0.00033366 Eh
|J(AB,eff)|:            0.004 eV
   
  Fragment 1 SOMO-2  Fragment 2 SOMO 
--------------------------------------
E_mon(orb) frag1 frag2              -9.712    -9.596 eV
J(AB):                0.011 eV
S(AB):            -0.00045626 Eh
|J(AB,eff)|:            0.006 eV
   
  Fragment 1 SOMO-2  Fragment 2 LUMO 
--------------------------------------
E_mon(orb) frag1 frag2              -9.712    -9.262 eV
J(AB):               -0.001 eV
S(AB):             0.00004817 Eh
|J(AB,eff)|:            0.001 eV
   
  Fragment 1 SOMO-2  Fragment 2 LUMO+1
--------------------------------------
E_mon(orb) frag1 frag2              -9.712    -9.226 eV
J(AB):                0.007 eV
S(AB):            -0.00027744 Eh
|J(AB,eff)|:            0.004 eV
   
  Fragment 1 SOMO-1  Fragment 2 SOMO-3
--------------------------------------
E_mon(orb) frag1 frag2              -9.731    -9.820 eV
J(AB):                0.001 eV
S(AB):            -0.00010324 Eh
|J(AB,eff)|:            0.000 eV
   
  Fragment 1 SOMO-1  Fragment 2 SOMO-2
--------------------------------------
E_mon(orb) frag1 frag2              -9.731    -9.712 eV
J(AB):                0.007 eV
S(AB):            -0.00033659 Eh
|J(AB,eff)|:            0.004 eV
   
  Fragment 1 SOMO-1  Fragment 2 SOMO-1
--------------------------------------
E_mon(orb) frag1 frag2              -9.731    -9.732 eV
J(AB):               -0.013 eV
S(AB):             0.00059361 Eh
|J(AB,eff)|:            0.007 eV
   
  Fragment 1 SOMO-1  Fragment 2 SOMO 
--------------------------------------
E_mon(orb) frag1 frag2              -9.731    -9.596 eV
J(AB):               -0.004 eV
S(AB):             0.00013904 Eh
|J(AB,eff)|:            0.003 eV
   
  Fragment 1 SOMO-1  Fragment 2 LUMO 
--------------------------------------
E_mon(orb) frag1 frag2              -9.731    -9.262 eV
J(AB):                0.001 eV
S(AB):            -0.00000716 Eh
|J(AB,eff)|:            0.001 eV
   
  Fragment 1 SOMO-1  Fragment 2 LUMO+1
--------------------------------------
E_mon(orb) frag1 frag2              -9.731    -9.226 eV
J(AB):               -0.013 eV
S(AB):             0.00052471 Eh
|J(AB,eff)|:            0.008 eV
   
  Fragment 1 SOMO   Fragment 2 SOMO-3
--------------------------------------
E_mon(orb) frag1 frag2              -9.597    -9.820 eV
J(AB):               -0.005 eV
S(AB):             0.00001584 Eh
|J(AB,eff)|:            0.005 eV
   
  Fragment 1 SOMO   Fragment 2 SOMO-2
--------------------------------------
E_mon(orb) frag1 frag2              -9.597    -9.712 eV
J(AB):                0.011 eV
S(AB):            -0.00047144 Eh
|J(AB,eff)|:            0.007 eV
   
  Fragment 1 SOMO   Fragment 2 SOMO-1
--------------------------------------
E_mon(orb) frag1 frag2              -9.597    -9.732 eV
J(AB):                0.004 eV
S(AB):            -0.00012494 Eh
|J(AB,eff)|:            0.002 eV
   
  Fragment 1 SOMO   Fragment 2 SOMO 
--------------------------------------
E_mon(orb) frag1 frag2              -9.597    -9.596 eV
J(AB):                0.057 eV
S(AB):            -0.00235759 Eh
|J(AB,eff)|:            0.035 eV
   
  Fragment 1 SOMO   Fragment 2 LUMO 
--------------------------------------
E_mon(orb) frag1 frag2              -9.597    -9.262 eV
J(AB):                0.055 eV
S(AB):            -0.00223904 Eh
|J(AB,eff)|:            0.033 eV
   
  Fragment 1 SOMO   Fragment 2 LUMO+1
--------------------------------------
E_mon(orb) frag1 frag2              -9.597    -9.226 eV
J(AB):                0.054 eV
S(AB):            -0.00223005 Eh
|J(AB,eff)|:            0.033 eV
   
  Fragment 1 LUMO   Fragment 2 SOMO-3
--------------------------------------
E_mon(orb) frag1 frag2              -9.262    -9.820 eV
J(AB):               -0.001 eV
S(AB):            -0.00007783 Eh
|J(AB,eff)|:            0.002 eV
   
  Fragment 1 LUMO   Fragment 2 SOMO-2
--------------------------------------
E_mon(orb) frag1 frag2              -9.262    -9.712 eV
J(AB):                0.001 eV
S(AB):            -0.00003423 Eh
|J(AB,eff)|:            0.000 eV
   
  Fragment 1 LUMO   Fragment 2 SOMO-1
--------------------------------------
E_mon(orb) frag1 frag2              -9.262    -9.732 eV
J(AB):                0.001 eV
S(AB):            -0.00001564 Eh
|J(AB,eff)|:            0.001 eV
   
  Fragment 1 LUMO   Fragment 2 SOMO 
--------------------------------------
E_mon(orb) frag1 frag2              -9.262    -9.596 eV
J(AB):               -0.054 eV
S(AB):             0.00220745 Eh
|J(AB,eff)|:            0.033 eV
   
  Fragment 1 LUMO   Fragment 2 LUMO 
--------------------------------------
E_mon(orb) frag1 frag2              -9.262    -9.262 eV
J(AB):               -0.019 eV
S(AB):             0.00094508 Eh
|J(AB,eff)|:            0.010 eV
   
  Fragment 1 LUMO   Fragment 2 LUMO+1
--------------------------------------
E_mon(orb) frag1 frag2              -9.262    -9.226 eV
J(AB):                0.000 eV
S(AB):            -0.00002581 Eh
|J(AB,eff)|:            0.000 eV
   
  Fragment 1 LUMO+1  Fragment 2 SOMO-3
--------------------------------------
E_mon(orb) frag1 frag2              -9.226    -9.820 eV
J(AB):                0.011 eV
S(AB):            -0.00035257 Eh
|J(AB,eff)|:            0.007 eV
   
  Fragment 1 LUMO+1  Fragment 2 SOMO-2
--------------------------------------
E_mon(orb) frag1 frag2              -9.226    -9.712 eV
J(AB):                0.008 eV
S(AB):            -0.00029629 Eh
|J(AB,eff)|:            0.005 eV
   
  Fragment 1 LUMO+1  Fragment 2 SOMO-1
--------------------------------------
E_mon(orb) frag1 frag2              -9.226    -9.732 eV
J(AB):                0.013 eV
S(AB):            -0.00052711 Eh
|J(AB,eff)|:            0.008 eV
   
  Fragment 1 LUMO+1  Fragment 2 SOMO 
--------------------------------------
E_mon(orb) frag1 frag2              -9.226    -9.596 eV
J(AB):                0.053 eV
S(AB):            -0.00221540 Eh
|J(AB,eff)|:            0.033 eV
   
  Fragment 1 LUMO+1  Fragment 2 LUMO 
--------------------------------------
E_mon(orb) frag1 frag2              -9.226    -9.262 eV
J(AB):                0.001 eV
S(AB):            -0.00001765 Eh
|J(AB,eff)|:            0.001 eV
   
  Fragment 1 LUMO+1  Fragment 2 LUMO+1
--------------------------------------
E_mon(orb) frag1 frag2              -9.226    -9.226 eV
J(AB):               -0.020 eV
S(AB):             0.00104000 Eh
|J(AB,eff)|:            0.010 eV
   
..............................................................................
:  total |J(AB,eff)| for hole transport (occ. MOs) :               0.047 eV  :
:  total |J(AB,eff)| for charge transport (unocc. MOs) :           0.015 eV  :
:  total |J(AB,eff)| for charge transfer (CT) :                    0.068 eV  :
..............................................................................
  
 Please remember, DIPRO is not available for restart!
   
normal termination of dipro
----------------------------------------------------------
 * finished run on 2025/03/10 at 14:37:44.168     
----------------------------------------------------------
 dipro:
 * wall-time:     0 d,  0 h,  0 min, 29.697 sec
 *  cpu-time:     0 d,  0 h,  1 min, 38.102 sec
 * ratio c/w:     3.303 speedup
Reorganization energy (electron): 0.030227294864550523 eV
Reorganization energy (hole): 0.03635986737366505 eV
Electron Transfer integral J: 0.015 eV
Hole Transfer integral J: 0.047 eV
