190
 energy: -557.043090651994 gnorm: 0.481677366457 xtb: 6.7.1 (edcfbbe)
C            1.33010000000000        3.48860000000000        0.92420000000000
C            1.53300000000000        2.10690000000000        0.78840000000000
C            2.67380000000000        1.65060000000000        0.05300000000000
C            3.42300000000000        2.64740000000000       -0.67890000000000
C            3.09030000000000        4.02600000000000       -0.61150000000000
C            2.10280000000000        4.40660000000000        0.23500000000000
C            3.26960000000000        0.34370000000000        0.10380000000000
C            4.55330000000000        0.19680000000000       -0.47110000000000
C            5.07830000000000        1.20640000000000       -1.32560000000000
N            4.49510000000000        2.39000000000000       -1.41710000000000
C            2.80650000000000       -0.80290000000000        0.83460000000000
C            3.83150000000000       -1.68260000000000        1.34590000000000
N            5.04390000000000       -1.75710000000000        0.82630000000000
C            5.36730000000000       -0.93390000000000       -0.16620000000000
C            6.59120000000000       -1.11790000000000       -0.84780000000000
C            6.97890000000000       -0.18580000000000       -1.78130000000000
C            6.28360000000000        0.96770000000000       -2.03430000000000
C            1.46330000000000       -1.19040000000000        1.05950000000000
C            1.20800000000000       -2.10820000000000        2.08390000000000
C            2.24230000000000       -2.67640000000000        2.81640000000000
C            3.53820000000000       -2.55370000000000        2.43080000000000
O            0.64800000000000        1.32870000000000        1.39990000000000
O            0.47610000000000       -0.75670000000000        0.27710000000000
C           -2.15310000000000       -1.93500000000000        2.10650000000000
C           -2.16110000000000       -0.93550000000000        1.12240000000000
C           -2.92700000000000       -1.15180000000000       -0.06690000000000
C           -3.47520000000000       -2.47450000000000       -0.26510000000000
C           -3.30090000000000       -3.50210000000000        0.69910000000000
C           -2.70440000000000       -3.18280000000000        1.87290000000000
C           -3.36660000000000       -0.14980000000000       -0.99780000000000
C           -4.37070000000000       -0.52770000000000       -1.91950000000000
C           -4.68320000000000       -1.90160000000000       -2.12050000000000
N           -4.21380000000000       -2.83340000000000       -1.30710000000000
C           -3.04400000000000        1.25090000000000       -1.00080000000000
C           -4.08200000000000        2.13250000000000       -1.48190000000000
N           -5.05520000000000        1.73840000000000       -2.28390000000000
C           -5.12440000000000        0.45580000000000       -2.62530000000000
C           -6.03850000000000        0.05320000000000       -3.62470000000000
C           -6.19050000000000       -1.28820000000000       -3.88430000000000
C           -5.56410000000000       -2.27420000000000       -3.16780000000000
C           -1.80720000000000        1.84740000000000       -0.65110000000000
C           -1.78170000000000        3.22750000000000       -0.41800000000000
C           -2.92820000000000        3.99920000000000       -0.55770000000000
C           -4.05310000000000        3.51180000000000       -1.13900000000000
O           -1.46780000000000        0.16350000000000        1.39670000000000
O           -0.67760000000000        1.14120000000000       -0.62070000000000
B           -0.25370000000000        0.46720000000000        0.60740000000000
S            1.65780000000000        6.20230000000000        0.34710000000000
F            0.96150000000000        6.02550000000000        1.82540000000000
F            3.08680000000000        6.59710000000000        1.08370000000000
F            1.22340000000000        7.74310000000000        0.41120000000000
F            2.35700000000000        6.54970000000000       -1.11400000000000
F            0.25420000000000        5.85480000000000       -0.45080000000000
S            1.86660000000000       -3.51680000000000        4.43830000000000
F            3.40480000000000       -4.11820000000000        4.59030000000000
F            2.37790000000000       -2.14390000000000        5.22450000000000
F            1.56000000000000       -4.16620000000000        5.87550000000000
F            0.33220000000000       -2.91350000000000        4.47770000000000
F            1.43310000000000       -4.93650000000000        3.74790000000000
S            8.55110000000000       -0.48730000000000       -2.71670000000000
F            7.84070000000000       -0.05130000000000       -4.14340000000000
F            8.13970000000000       -2.06380000000000       -2.99190000000000
F            9.90500000000000       -0.75400000000000       -3.53390000000000
F            9.35140000000000       -0.94150000000000       -1.34640000000000
F            9.05260000000000        1.07000000000000       -2.49810000000000
S           -2.45250000000000       -4.51130000000000        3.14060000000000
F           -2.56210000000000       -5.71830000000000        2.01080000000000
F           -4.07540000000000       -4.67580000000000        3.42090000000000
F           -2.16990000000000       -5.65850000000000        4.22150000000000
F           -2.36270000000000       -3.43060000000000        4.37550000000000
F           -0.82790000000000       -4.42730000000000        2.82990000000000
S           -2.96650000000000        5.72170000000000        0.14810000000000
F           -4.33840000000000        6.13820000000000       -0.68490000000000
F           -3.94120000000000        5.17740000000000        1.37790000000000
F           -3.01950000000000        7.18230000000000        0.81190000000000
F           -1.66070000000000        5.41920000000000        1.11010000000000
F           -2.09040000000000        6.35230000000000       -1.08420000000000
S           -7.33660000000000       -1.78970000000000       -5.25290000000000
F           -6.71310000000000       -0.63780000000000       -6.26030000000000
F           -8.49380000000000       -0.72180000000000       -4.75770000000000
F           -8.31910000000000       -2.22280000000000       -6.44420000000000
F           -8.02490000000000       -2.97080000000000       -4.32750000000000
F           -6.24350000000000       -2.88700000000000       -5.82870000000000
H           -3.70330000000000       -4.47560000000000        0.48190000000000
H           -5.73820000000000       -3.32000000000000       -3.36090000000000
H           -6.59980000000000        0.80260000000000       -4.15820000000000
H           -1.68330000000000       -1.70930000000000        3.05120000000000
H           -0.85650000000000        3.68840000000000       -0.12130000000000
H            6.63640000000000        1.70580000000000       -2.73580000000000
H            0.18880000000000       -2.36920000000000        2.30010000000000
H            7.19800000000000       -1.97850000000000       -0.61840000000000
H            3.67670000000000        4.71660000000000       -1.19120000000000
H            4.35290000000000       -3.08870000000000        2.88570000000000
H           -4.91040000000000        4.11440000000000       -1.38170000000000
H            0.53480000000000        3.81740000000000        1.57480000000000
C            1.33010000000000        3.48860000000000        5.92420000000000
C            1.53300000000000        2.10690000000000        5.78840000000000
C            2.67380000000000        1.65060000000000        5.05300000000000
C            3.42300000000000        2.64740000000000        4.32110000000000
C            3.09030000000000        4.02600000000000        4.38850000000000
C            2.10280000000000        4.40660000000000        5.23500000000000
C            3.26960000000000        0.34370000000000        5.10380000000000
C            4.55330000000000        0.19680000000000        4.52890000000000
C            5.07830000000000        1.20640000000000        3.67440000000000
N            4.49510000000000        2.39000000000000        3.58290000000000
C            2.80650000000000       -0.80290000000000        5.83460000000000
C            3.83150000000000       -1.68260000000000        6.34590000000000
N            5.04390000000000       -1.75710000000000        5.82630000000000
C            5.36730000000000       -0.93390000000000        4.83380000000000
C            6.59120000000000       -1.11790000000000        4.15220000000000
C            6.97890000000000       -0.18580000000000        3.21870000000000
C            6.28360000000000        0.96770000000000        2.96570000000000
C            1.46330000000000       -1.19040000000000        6.05950000000000
C            1.20800000000000       -2.10820000000000        7.08390000000000
C            2.24230000000000       -2.67640000000000        7.81640000000000
C            3.53820000000000       -2.55370000000000        7.43080000000000
O            0.64800000000000        1.32870000000000        6.39990000000000
O            0.47610000000000       -0.75670000000000        5.27710000000000
C           -2.15310000000000       -1.93500000000000        7.10650000000000
C           -2.16110000000000       -0.93550000000000        6.12240000000000
C           -2.92700000000000       -1.15180000000000        4.93310000000000
C           -3.47520000000000       -2.47450000000000        4.73490000000000
C           -3.30090000000000       -3.50210000000000        5.69910000000000
C           -2.70440000000000       -3.18280000000000        6.87290000000000
C           -3.36660000000000       -0.14980000000000        4.00220000000000
C           -4.37070000000000       -0.52770000000000        3.08050000000000
C           -4.68320000000000       -1.90160000000000        2.87950000000000
N           -4.21380000000000       -2.83340000000000        3.69290000000000
C           -3.04400000000000        1.25090000000000        3.99920000000000
C           -4.08200000000000        2.13250000000000        3.51810000000000
N           -5.05520000000000        1.73840000000000        2.71610000000000
C           -5.12440000000000        0.45580000000000        2.37470000000000
C           -6.03850000000000        0.05320000000000        1.37530000000000
C           -6.19050000000000       -1.28820000000000        1.11570000000000
C           -5.56410000000000       -2.27420000000000        1.83220000000000
C           -1.80720000000000        1.84740000000000        4.34890000000000
C           -1.78170000000000        3.22750000000000        4.58200000000000
C           -2.92820000000000        3.99920000000000        4.44230000000000
C           -4.05310000000000        3.51180000000000        3.86100000000000
O           -1.46780000000000        0.16350000000000        6.39670000000000
O           -0.67760000000000        1.14120000000000        4.37930000000000
B           -0.25370000000000        0.46720000000000        5.60740000000000
S            1.65780000000000        6.20230000000000        5.34710000000000
F            0.96150000000000        6.02550000000000        6.82540000000000
F            3.08680000000000        6.59710000000000        6.08370000000000
F            1.22340000000000        7.74310000000000        5.41120000000000
F            2.35700000000000        6.54970000000000        3.88600000000000
F            0.25420000000000        5.85480000000000        4.54920000000000
S            1.86660000000000       -3.51680000000000        9.43830000000000
F            3.40480000000000       -4.11820000000000        9.59030000000000
F            2.37790000000000       -2.14390000000000       10.22450000000000
F            1.56000000000000       -4.16620000000000       10.87550000000000
F            0.33220000000000       -2.91350000000000        9.47770000000000
F            1.43310000000000       -4.93650000000000        8.74790000000000
S            8.55110000000000       -0.48730000000000        2.28330000000000
F            7.84070000000000       -0.05130000000000        0.85660000000000
F            8.13970000000000       -2.06380000000000        2.00810000000000
F            9.90500000000000       -0.75400000000000        1.46610000000000
F            9.35140000000000       -0.94150000000000        3.65360000000000
F            9.05260000000000        1.07000000000000        2.50190000000000
S           -2.45250000000000       -4.51130000000000        8.14060000000000
F           -2.56210000000000       -5.71830000000000        7.01080000000000
F           -4.07540000000000       -4.67580000000000        8.42090000000000
F           -2.16990000000000       -5.65850000000000        9.22150000000000
F           -2.36270000000000       -3.43060000000000        9.37550000000000
F           -0.82790000000000       -4.42730000000000        7.82990000000000
S           -2.96650000000000        5.72170000000000        5.14810000000000
F           -4.33840000000000        6.13820000000000        4.31510000000000
F           -3.94120000000000        5.17740000000000        6.37790000000000
F           -3.01950000000000        7.18230000000000        5.81190000000000
F           -1.66070000000000        5.41920000000000        6.11010000000000
F           -2.09040000000000        6.35230000000000        3.91580000000000
S           -7.33660000000000       -1.78970000000000       -0.25290000000000
F           -6.71310000000000       -0.63780000000000       -1.26030000000000
F           -8.49380000000000       -0.72180000000000        0.24230000000000
F           -8.31910000000000       -2.22280000000000       -1.44420000000000
F           -8.02490000000000       -2.97080000000000        0.67250000000000
F           -6.24350000000000       -2.88700000000000       -0.82870000000000
H           -3.70330000000000       -4.47560000000000        5.48190000000000
H           -5.73820000000000       -3.32000000000000        1.63910000000000
H           -6.59980000000000        0.80260000000000        0.84180000000000
H           -1.68330000000000       -1.70930000000000        8.05120000000000
H           -0.85650000000000        3.68840000000000        4.87870000000000
H            6.63640000000000        1.70580000000000        2.26420000000000
H            0.18880000000000       -2.36920000000000        7.30010000000000
H            7.19800000000000       -1.97850000000000        4.38160000000000
H            3.67670000000000        4.71660000000000        3.80880000000000
H            4.35290000000000       -3.08870000000000        7.88570000000000
H           -4.91040000000000        4.11440000000000        3.61830000000000
H            0.53480000000000        3.81740000000000        6.57480000000000
190
 energy: -557.231355264157 gnorm: 0.330330608278 xtb: 6.7.1 (edcfbbe)
C            1.33040050171180        3.48936933810885        0.92525069355918
C            1.53370904589220        2.10882690753780        0.78806817365716
C            2.67421070929954        1.65153212414756        0.05366313691331
C            3.42317274710216        2.64765119774383       -0.67782108098684
C            3.09030538091655        4.02530816202231       -0.61056394929768
C            2.10252531050544        4.40802313692734        0.23609296101348
C            3.27089466119919        0.34480305930759        0.10474069785331
C            4.55364839082875        0.19629436730789       -0.46998162813745
C            5.07884650829765        1.20655858940827       -1.32616295281098
N            4.49492455567360        2.38869376409231       -1.41761767674862
C            2.80748695001927       -0.80321527837940        0.83660549140653
C            3.83129318190626       -1.68158178989066        1.34394011366789
N            5.04577621863940       -1.75553134536359        0.82788056890898
C            5.36631181605008       -0.93609042499547       -0.16787508672864
C            6.58533004243810       -1.12498843507259       -0.85841124644040
C            6.97503965017254       -0.18870597076840       -1.78627389584944
C            6.28353228413832        0.96703604597648       -2.03531026530695
C            1.46240039279309       -1.18716470086149        1.06078369000479
C            1.20380154860638       -2.10555662564511        2.08435866120040
C            2.24076809558557       -2.67832680899517        2.79735244423624
C            3.54031782586625       -2.55123462550626        2.43106226307639
O            0.64875736011565        1.32652343369767        1.40299831278634
O            0.47666585430612       -0.75738034142917        0.28059462487541
C           -2.13204365542127       -1.94194342867587        2.09507860262458
C           -2.15635664136947       -0.93712618286938        1.11939773854317
C           -2.92740833754395       -1.15046198512450       -0.06624907047582
C           -3.46581890299367       -2.47121702034500       -0.27056427574904
C           -3.29898807465688       -3.50255077820580        0.69430941440797
C           -2.69285854570305       -3.18487423217372        1.85794265310464
C           -3.36465518496983       -0.14789562099780       -0.99861445856519
C           -4.35553751314664       -0.52654501338668       -1.93000277796194
C           -4.65247043125300       -1.89986257732710       -2.14146707299413
N           -4.17228444884148       -2.83131235094151       -1.32919082653546
C           -3.04418610491565        1.25274582213283       -0.99887121192357
C           -4.08176107016335        2.13283828596009       -1.48055741856755
N           -5.05265837179445        1.73697957297743       -2.28662594155161
C           -5.11289877488353        0.45944953850891       -2.63634023115821
C           -6.03120261634428        0.05475940479304       -3.63336737526123
C           -6.18533575603514       -1.28715804151284       -3.88829043234154
C           -5.55050122693577       -2.27242352317248       -3.17850139964753
C           -1.80833366059771        1.84890309621738       -0.64939233149205
C           -1.78189514199349        3.22834372304415       -0.41620809100736
C           -2.92812545637942        4.00025005422981       -0.55561101275086
C           -4.05284874278914        3.51137034629059       -1.13825676023482
O           -1.46944844811280        0.16364018174766        1.39958823930885
O           -0.67748406079063        1.14016832413837       -0.61858906735340
B           -0.25396415680051        0.46980080724801        0.60742734760782
S            1.65614673730889        6.20379276672045        0.35045604415390
F            0.95845412600374        6.02010674080018        1.82393735295187
F            3.08800463022565        6.59389867531682        1.08225143859676
F            1.22340229327338        7.74391031397135        0.41054625026145
F            2.35640190060824        6.54955795870255       -1.11226414077596
F            0.25504106473655        5.85367687026546       -0.45107090210468
S            1.84882286461700       -3.56747398621722        4.38811011199972
F            3.40415502655834       -4.12213313923195        4.58032358084478
F            2.37915886079808       -2.15659820224588        5.14474384025884
F            1.56080567837408       -4.18086567242387        5.84956390613407
F            0.31576946783970       -2.94183185464870        4.46530380238140
F            1.41761869784360       -4.98798949426815        3.73098083375223
S            8.55114025425691       -0.48717602754832       -2.71262565519092
F            7.84121478248910       -0.05169510284218       -4.14201779931321
F            8.13935383602962       -2.06370403336602       -2.99269413195180
F            9.90413691350085       -0.75340324148482       -3.53365212365653
F            9.35272571992577       -0.94373887613536       -1.34709909973663
F            9.05217582457771        1.07068991081858       -2.49847637964995
S           -2.44728686120116       -4.54601541529694        3.09483781489078
F           -2.54863520265584       -5.75604238776305        1.98443719553086
F           -4.05903070694703       -4.79904109202407        3.41065763227078
F           -2.15343397291542       -5.65887864592040        4.21197356092313
F           -2.27582097937187       -3.45024362109473        4.35712275679470
F           -0.81617100832217       -4.43638489878908        2.82541764844451
S           -2.96452244024559        5.72367923495776        0.15028183645332
F           -4.33782126208324        6.13733352004696       -0.68373615415613
F           -3.94044255385788        5.17348742418524        1.37910318092503
F           -3.01999093735808        7.18284269731427        0.81185291865210
F           -1.66063006515898        5.41451203591249        1.11145416386156
F           -2.09043945929164        6.35246467361448       -1.08479203266738
S           -7.33758952320533       -1.78978192384814       -5.24879044909617
F           -6.71344664367705       -0.63875628272093       -6.25937698135894
F           -8.49412840918932       -0.72063123141839       -4.75813711533218
F           -8.31869243625793       -2.22244338053729       -6.44318124471615
F           -8.02453846649916       -2.97292944534373       -4.32844397360223
F           -6.24377570156901       -2.88628054945776       -5.82857590716053
H           -3.70386857316444       -4.47447684241494        0.47819426717598
H           -5.73763606653563       -3.31845326919126       -3.35985485494454
H           -6.60084669438004        0.80287972797490       -4.15825469525729
H           -1.66989297296635       -1.70864752087665        3.04051885286511
H           -0.85626974250375        3.68919261044870       -0.12209774069076
H            6.63696264787824        1.70600361248329       -2.73501663690136
H            0.18718200883044       -2.36906020070843        2.29638188970158
H            7.19689235867667       -1.97938363791634       -0.62058372516631
H            3.67628198804240        4.71579947399808       -1.19114367129214
H            4.35437013542103       -3.08958560874424        2.88197079086676
H           -4.90992361013333        4.11396322590692       -1.38192105517056
H            0.53463992776478        3.81856278063359        1.57441189315775
C            1.32962536347418        3.48744845197009        5.92372041509489
C            1.53127579389438        2.11165538557390        5.78793766425009
C            2.67299079704753        1.65349147685137        5.05329563922646
C            3.42545276422302        2.64999401670546        4.32139533692326
C            3.08943796994870        4.02695458794514        4.38726759108520
C            2.10362593279408        4.40826603210228        5.23438950327406
C            3.27739727402181        0.35565536950616        5.10016100014564
C            4.55894742765337        0.19619916431912        4.52510277207786
C            5.08193790007760        1.20775013928379        3.67099470404142
N            4.49085482853685        2.38636854350349        3.57754101120324
C            2.82638009232368       -0.77696063956792        5.85222995093350
C            3.87951054705857       -1.65363315075580        6.39843118161375
N            5.05047086943780       -1.75471745422300        5.83845738832415
C            5.37441168313805       -0.93424716390925        4.82922673682062
C            6.58760151132586       -1.11893209757619        4.15096156602016
C            6.97671527006857       -0.18383096823719        3.21472531080713
C            6.28529287486313        0.96663355355557        2.96099145680798
C            1.43565414382960       -1.16724711427030        6.10073424632492
C            1.18881150947315       -2.07972693845184        7.12952912815006
C            2.24071802234710       -2.66126991544659        7.83015966913975
C            3.54540862009186       -2.54490051315821        7.44690779458106
O            0.64753294739575        1.32520567307986        6.40368721057317
O            0.48044660186799       -0.75243899874194        5.29312823620085
C           -2.15199563103432       -1.93265551813670        7.11070564207325
C           -2.15722834854729       -0.93234614764563        6.12644822392651
C           -2.93139474934692       -1.12875089309412        4.94117989682780
C           -3.49519143498651       -2.44153964882661        4.74336765118783
C           -3.33728098885822       -3.49507500639800        5.74548518689320
C           -2.71848406016791       -3.18379610016113        6.89861660917225
C           -3.37506250758261       -0.13813358463321        4.00710034856877
C           -4.38065844396976       -0.51225560141210        3.07732682947487
C           -4.72255842020606       -1.86647676835953        2.88604035226554
N           -4.25952058578304       -2.76727185047819        3.71809447313393
C           -3.04387308788419        1.25475799600457        3.99803531595791
C           -4.08094578266935        2.13477503842917        3.51472042728389
N           -5.05762583354942        1.74059063456273        2.71686359381804
C           -5.12625348897240        0.46318990240172        2.36686633596554
C           -6.04049300584060        0.05595875136810        1.36877504352338
C           -6.19442675870533       -1.28087043378730        1.11467193165231
C           -5.56912669411857       -2.26657653357749        1.83404268774967
C           -1.80722634282634        1.84995105454275        4.34619393640621
C           -1.78116649298343        3.22739706923045        4.58039692688310
C           -2.92825817019065        3.99937995304884        4.44197565438045
C           -4.05372629356319        3.51164214436460        3.86248481940155
O           -1.46367289975695        0.16456903187065        6.40152059273023
O           -0.67508449002851        1.13868963708451        4.37946542878855
B           -0.25954606854763        0.48183722304547        5.60953695155135
S            1.65576754334819        6.20433506116771        5.34260433704856
F            0.96338299709019        6.02462083527305        6.82369727108247
F            3.08487085876041        6.59564788339615        6.08291139074787
F            1.22291662296264        7.74404809802478        5.41263862553610
F            2.36299216250457        6.54909209549274        3.88957765138357
F            0.25399629672102        5.85180976266289        4.55152990742168
S            1.86629301913187       -3.51841715876662        9.43795198079729
F            3.40387060720643       -4.11718883430567        9.58902778989443
F            2.37713598240727       -2.14566161804182       10.22303897122791
F            1.55946002969155       -4.16719714866597       10.87486570671832
F            0.33290557859996       -2.91371785587312        9.47683587962455
F            1.43279115219304       -4.93546468101949        8.74785552787987
S            8.55371460663773       -0.48678921848920        2.28851060410635
F            7.84437640340840       -0.03911000219487        0.86306857382752
F            8.13836714512355       -2.06210228800751        2.00595351553707
F            9.90485295993520       -0.75335952344807        1.46943633000474
F            9.35371307026658       -0.94318058145724        3.65726332156933
F            9.05385600383404        1.07093230887468        2.50405341353953
S           -2.44900568327720       -4.51514342655118        8.14510756200361
F           -2.56462682160621       -5.71498765294362        7.00971506113143
F           -4.07235835394166       -4.67579487211843        8.42019733395477
F           -2.16720689715129       -5.66177215075270        9.22363013576215
F           -2.36169958368269       -3.43200753785844        9.37600636565025
F           -0.82708453730553       -4.42694465195213        7.82897246434807
S           -2.96611426670925        5.72298714149657        5.14219664159244
F           -4.34031523680364        6.13781053784319        4.31679641207581
F           -3.93936277620993        5.17794477723940        6.37626207911399
F           -3.01921010902184        7.18144517016473        5.81251976150603
F           -1.66184561846241        5.41775613276372        6.10879808076724
F           -2.08913546855405        6.35342622837357        3.91584602482794
S           -7.35716327108305       -1.79113838425647       -0.23410820057047
F           -6.74088842531894       -0.63628349319872       -1.24098829090326
F           -8.50700113549550       -0.71674217588265        0.24922395722329
F           -8.32634981451143       -2.22017252168125       -1.43885776981869
F           -8.04034266715175       -2.97561342078141        0.68307011097782
F           -6.29348784249430       -2.91407343995040       -0.80227971637989
H           -3.72141684717347       -4.47471585710283        5.50742169477314
H           -5.74062455821212       -3.31452551935503        1.64643631067650
H           -6.60174750888839        0.80417646903282        0.83998654965993
H           -1.68300980968400       -1.70685786182748        8.05394263185813
H           -0.85665122446682        3.68879215248859        4.87768425404715
H            6.63945340855349        1.70745180181368        2.26616603305152
H            0.17877703300800       -2.37065401694014        7.31391926191495
H            7.19716438470174       -1.97610024942946        4.38334845262371
H            3.67612165902997        4.71774456083985        3.80859676384955
H            4.35294329600171       -3.09339798451648        7.89033391675707
H           -4.90920481784371        4.11534080494182        3.61668392221651
H            0.53495312543900        3.81681366445758        6.57481563929204
190
 energy: -557.386456569308 gnorm: 0.193663833686 xtb: 6.7.1 (edcfbbe)
C            1.33058408214485        3.48989371409441        0.92609492603050