116
 energy: -22.928061455056 gnorm: 0.329736929581 xtb: 6.6.1 (8d0f1dd)
C           -3.31122850772930        0.79849766164622       -0.92477639677520
C           -2.44380812530352       -0.12270372891954       -0.27661132624697
C           -1.41337090092821        0.39579727573559        0.56335275196199
C           -0.89266158675590        1.65801491088749        0.27377586709581
C           -1.72665675402493        2.51431363229076       -0.49448366572522
C           -2.95444148494349        2.13954154133227       -1.01494489940871
C           -0.74098268209890       -0.43411532818871        1.49825021926784
C            0.56872586496315        0.03782116815119        1.86248088067890
C            1.03782416582094        1.29402317993033        1.50887470833621
N            0.31238977034758        2.07067427098208        0.65193736800696
C           -1.29695700510141       -1.39996043042223        2.41574187746061
C           -0.38243517664656       -2.18060797534842        3.13232615520648
N            0.91308504082021       -1.90366887689689        3.30325166013478
C            1.37712470144904       -0.74872102533751        2.81811050966982
C            2.52149331701875       -0.17739833758153        3.39379298866852
C            2.95849061756259        1.02681208890480        2.95105897606587
C            2.24288949469137        1.78498308775960        2.03503020483770
C           -2.74860936222260       -1.74497937691422        2.38401158947411
C           -3.09416315450955       -2.91614440870436        3.00571134491758
C           -2.16786021984049       -3.77788778654213        3.63251872101904
C           -0.85708937311598       -3.40495313382985        3.68547234358092
O           -3.71994433332149       -0.94984598373544        1.67726658385724
O           -2.55702603277562       -1.47241711578389       -0.57241635275616
C           -3.84297843593025        3.13357444054366       -1.60938954875544
C           -2.68769581069131       -5.03867041417370        4.30484659386931
H           -1.39666850744143        3.51251503834900       -0.76806311868865
H           -4.27662633836220        0.55105838579656       -1.33106614114542
H            2.66329581305412        2.73912661909249        1.72562431984580
H            3.05775395548473       -0.69369546277216        4.16536137542516
H           -0.24710966264510       -4.12034095424229        4.22946223699121
H           -4.11477991332403       -3.04712728052358        3.03244694615357
O           -4.21824883374556        4.03433712717988       -0.87713382485991
O           -4.44510595673734        2.90643496899600       -2.81853501752979
C           -5.44216520282800        3.83300025693726       -3.02488532025093
C            4.23586651889298        1.50004220933226        3.59165660008449
O            5.05927614697201        0.66079890002952        3.91714215179376
O            4.47001334453535        2.86385149488593        3.72605651435371
C            5.79457498613219        3.08584475587818        4.15829123132174
O           -3.82227255313510       -5.27347675879771        4.16636005494405
O           -1.85023202017753       -5.79767454267276        5.06656077253571
C           -2.55119635829503       -6.86252441382958        5.62930343183426
C           -5.07197156564436       -1.42399175670916        1.58830531863830
C           -1.33089900128490       -2.23622472573986       -0.99264499351172
H           -2.54510546830388       -7.76426885143998        4.99136022291012
H           -3.57194749219491       -6.44405511486021        5.74196173723541
H           -2.09133598235598       -7.02043774843818        6.64022264233588
H            5.72707967266424        3.46798026205549        5.10135971236643
H            6.34060091246885        3.78468702308830        3.50069950143490
H            6.17933064298187        2.03010500085905        4.19342358084693
H           -0.91862729772622       -2.57650129080332       -0.01361370304871
H           -0.49769766914251       -1.60651221708571       -1.34094446550576
H           -1.52632419730509       -2.94569707152159       -1.75361447637286
H           -5.11788846557077       -2.41810833635233        1.17520213188926
H           -5.67929807973498       -0.69619639428435        1.04301666067831
H           -5.57598832326623       -1.42383358739762        2.57928294206544
H           -6.13050215934830        3.76035386975488       -2.23272855695873
H           -5.86615610071888        3.45938329385866       -4.02668959924245
H           -5.13479557532099        4.87790991548477       -2.98314551356402
C           -1.38192942069774        3.73616555005018        2.91232598411686
C           -1.84821468128685        2.59982427735607        3.49755545445181
C           -1.05946531454833        2.05730632010638        4.60922730982276
C            0.19893954712228        2.69376791964407        4.86302140881997
C            0.50425395911860        3.94630308659851        4.28768785650746
C           -0.26031777722226        4.46998310053134        3.25072669343212
C           -1.20488993561782        0.74454293276906        5.14851520323437
C           -0.06287609782692        0.02744069315890        5.60930570802864
C            1.19208754369866        0.71421540266195        5.78882868583885
N            1.19428660993148        2.06344359410476        5.62744624321596
C           -2.41361422770794        0.07928500213936        5.25249410304426
C           -2.45851584031083       -1.32662100968547        5.60237876023992
N           -1.29466212405906       -1.98318595734370        5.89916817085159
C           -0.14475655767527       -1.32117560077092        5.98824682881008
C            0.97209270935794       -1.98958449505532        6.53157704134458
C            2.21982707914082       -1.36973967291181        6.68703967237737
C            2.30561929262884       -0.09745313075593        6.26436900324455
C           -3.73018485967715        0.71367583494582        5.25810242262992
C           -4.89964478833448       -0.06184623426677        5.21204641615509
C           -4.82617965800088       -1.39228978090841        5.46901303780036
C           -3.67144193418464       -1.98914944386360        5.67265433266067
O           -3.75568638935321        2.07705011038914        5.52067969627343
O           -2.94192434743730        1.91263938797883        3.01658762327703
C            0.21273512614467        5.50086066357994        2.34765104514621
C           -6.06660304520411       -2.17604633098929        5.80641622556876
H            1.41756699010566        4.38133362238595        4.66974005703471
H           -1.82880610647429        4.11982501512100        2.06992133318584
H            3.26888037378556        0.32655662585251        6.31721410015598
H            0.87146188387207       -3.08471526305024        6.57830423410869
H           -3.67716811065157       -3.05999292755990        5.83019634570050
H           -5.77379677507622        0.43595144608221        4.71017130754348
O            1.34459852619901        5.82615848916894        2.44941456579099
O           -0.74718748219123        6.07961784856304        1.59848183464284
C           -0.21473095568964        7.24015934882472        1.05753806029483
C            3.53228080814219       -2.00967610361154        7.02506769044485
O            3.64093082622715       -3.14437803815732        7.50071391725347
O            4.56565258381079       -1.22937033368332        6.69086985080897
C            5.72579357310716       -1.80692399125161        7.22246151275881
O           -7.04801223588612       -1.95726935745904        5.14194115322235
O           -6.01514389321278       -2.93743591896022        6.94765316328794
C           -7.21292732384718       -3.62681918543340        7.15115816329978
C           -4.95459780685163        2.65960679932188        5.86868674392943
C           -3.68284113682406        2.59129188358641        2.05479246020704
H           -7.43119628931628       -4.22607794725959        6.20622607140901
H           -8.06548455146707       -2.91765848248592        7.29781126410398
H           -7.07314693247270       -4.33087306029711        7.91223421050944
H            6.57332189837178       -1.29353136199234        6.78341268688262
H            5.74663761932316       -2.84282155125561        6.88089468184451
H            5.69426191474290       -1.72781984964892        8.29460302186842
H           -4.10481209541493        3.44288266176275        2.60483747673152
H           -4.49244774344916        1.87419893016926        1.82433103764650
H           -3.18901540870812        2.85154642679373        1.06781919454921
H           -5.55414326821421        2.76698137191684        4.93950725322359
H           -4.78658370641210        3.62090640967288        6.25983200635257
H           -5.43485580473958        1.97242995129449        6.65265772412460
H            0.89164886030839        7.38838561720231        1.13776105146914
H           -0.62894889903848        8.04195665205089        1.64837664327952
H           -0.59282546386754        7.45699159724320        0.03719083132488
116
 energy: -22.756834727209 gnorm: 0.471314010966 xtb: 6.6.1 (8d0f1dd)
C           -3.01604871575482        1.08544863248856       -1.42990566898512
C           -2.41748244925757        0.12890616543074       -0.62079531748875
C           -1.52270134680577        0.63680718133563        0.38663359530234
C           -1.07110521889936        2.03157980050314        0.24880282827080
C           -1.80199039352730        3.00503474761015       -0.57806187427868
C           -2.84145605816662        2.43839679309833       -1.33874982068210
C           -0.91984858611271       -0.23508998352235        1.36761584285125
C            0.40856619206425        0.18876720604916        1.60985805935267
C            0.89223134947674        1.45346219023206        1.17562692461482
N            0.16757828196520        2.43860693643551        0.58707580373172
C           -1.28955665092375       -1.42676744376667        2.11628297516737
C           -0.34532346120881       -2.12079954408124        2.95657678713804
N            0.93546664632941       -1.72909614322929        3.18733087993161
C            1.25212464355221       -0.63270224647539        2.46746204434974
C            2.70437291939807       -0.34345786042708        2.66819757347968
C            3.03732270862778        0.88045343578041        2.08664487270782
C            2.21904918151647        1.84389289799037        1.46507490121236
C           -2.65496092851552       -1.81288427499164        2.12442362884575
C           -2.95194778278438       -3.08197107908263        2.53383896591577
C           -2.03781927332704       -3.67296610676356        3.42592836508384
C           -0.76181890668552       -3.22028140059164        3.59152037706240
O           -3.69355315663911       -0.87439191591045        1.85903795367671
O           -2.57149341230543       -1.23868335897328       -0.83920078775582
C           -3.73515489282335        3.22955139561602       -2.26004268598352
C           -2.53219448795034       -4.71740576255462        4.40896699106088
H           -1.61479876059602        4.04914189268108       -0.58886771537057
H           -3.55779104917786        0.72235973448599       -2.28882657351922
H            2.62327757387601        2.68833631198003        0.95233091187422
H            3.29247989433730       -0.97644234710296        3.29790738176363
H           -0.01130871196425       -3.84976807882610        4.12388507954116
H           -3.86563655772932       -3.57957653538397        2.24748810888584
O           -3.66776863580807        4.45106389070002       -2.36776556420100
O           -4.84325898533643        2.69333557928609       -2.79760883217157
C           -5.54366362476839        3.63293148166100       -3.61634605078598
C            4.43659165505638        1.20816564300977        2.43563573878073
O            5.10856096572073        0.48060867691915        3.17797870189268
O            5.09017701136223        2.21595699730904        1.67386069922807
C            6.40169928311039        2.48706994130860        1.97627627629966
O           -3.26742907882276       -5.59377961217426        3.89926061312420
O           -2.09004467725187       -4.71030064875108        5.71925725500625
C           -2.71499264895090       -5.77465427096494        6.40495201137373
C           -5.04676349433131       -1.27457361606173        1.47259057686809
C           -1.82116922910764       -1.82756690416857       -1.82204012109547
H           -2.68529951300480       -6.68644629358716        5.79637985976917
H           -3.78723574196788       -5.80513720854663        6.55082618190058
H           -2.04964245545805       -6.05974290375321        7.24500175181647
H            6.62618221780063        1.67077063360075        2.64124052949814
H            6.48288156476860        3.47516112025287        2.31030092193276
H            6.95194940440765        2.32603058021131        0.94286618538619
H           -0.88868265707602       -1.34415266316616       -2.02727542263182
H           -2.35106834124836       -1.96655320033627       -2.76903485823241
H           -1.64940892255586       -2.85464347745291       -1.39816837076425
H           -4.83112192496044       -2.20294809435024        1.00088225823747
H           -5.46152802184568       -0.62755964488782        0.74074323337679
H           -5.82591127028857       -1.24709891919769        2.33271262186745
H           -6.06824645257749        4.29729494936479       -3.12117972200036
H           -6.21621626730724        3.09263899780028       -4.24673177689829
H           -4.88054812016734        4.16901320563343       -4.31853401269416
C           -1.59163982115116        3.55448372810081        3.64414157732442
C           -1.93795887186408        2.27770044585681        4.17506663099950
C           -1.08802708482715        1.83353159984244        5.17496995470839
C            0.04207516292814        2.62526425288193        5.55356576594262
C            0.18848688620854        3.89391483422557        5.10017777073584
C           -0.55479931527677        4.30430553523642        3.92994459399902
C           -1.16593179344672        0.58580660116325        5.86772301892337
C           -0.08106326268396       -0.07560302831469        6.41969144874440
C            1.01728681696256        0.69517803341016        6.57323026694168
N            1.06501619295450        1.99350634536547        6.32141093964426
C           -2.48267038621014       -0.04234673424952        5.99930761103430
C           -2.44358934010836       -1.37356516169252        6.17431443017602
N           -1.30720868794322       -2.05651107547253        6.45365994974341
C           -0.12238841318786       -1.48571542495526        6.67111132125597
C            1.10108961224429       -2.08819449257953        7.11895447224690
C            2.19733460771573       -1.30421630937590        7.41419971482506
C            2.19012792712784        0.03664684075399        6.99822579295017
C           -3.79492097583300        0.65493526943792        6.03131905480783
C           -4.91860461413782       -0.05592430309407        5.73273313423698
C           -4.80785710266473       -1.40603469856752        5.57289813233609
C           -3.69724354615999       -2.00603416696480        6.03554824850630
O           -3.71196181642745        2.03463526659849        6.50494021829778
O           -2.87439791101024        1.51803049703478        3.51815981052538
C           -0.18263491978808        5.45433244523999        3.07999373140323
C           -5.94430483770356       -2.11014665327814        5.26783477600641
H            1.10288361111739        4.34248005511607        5.31795698631019
H           -2.10234647383579        3.86833606788460        2.68864580034259
H            3.15788467698864        0.60392493285898        6.94707327218269
H            1.46022777084291       -3.14722363784273        7.33661511250330
H           -3.68743300197397       -3.15821981780074        5.87638348121439
H           -5.70496676594815        0.63134386698569        5.42165478643672
O            0.51589381971443        6.27927785398328        3.61946916983794
O           -0.69407981676340        5.32102998965586        1.80274756191713
C           -0.19103790824198        6.27026837782708        0.84106758353215
C            3.38102756962631       -1.79614476018282        7.95779160562320
O            3.57410061783899       -2.91827394130997        8.38244916443725
O            4.31717548326168       -0.81148284840040        7.99675061715351
C            5.61821730082930       -1.37223008786081        8.21676768715482
O           -7.03103718822338       -1.54407091770571        5.04909378114604
O           -5.92554347169150       -3.45323312506396        5.41581687289416
C           -7.29432655567959       -3.92928291209082        5.17190027406230
C           -4.78848424447823        2.53491244402147        7.16313460354893
C           -3.46267182472350        1.93148280453968        2.24294656012835
H           -7.08916029841332       -4.71732121670136        4.55142522868982
H           -7.86277735483255       -3.33045894890341        4.51953678553627
H           -7.48389189650113       -4.30887177507929        6.20403886479304
H            6.21312382086743       -0.62579708376460        8.78902908535380
H            6.15227290845169       -1.32436327931586        7.31676035992493
H            5.71712010809624       -2.38257973613678        8.71040077943896
H           -4.00103799444392        2.93702851569942        2.42691906165684
H           -4.18475119645840        1.12366662434851        1.88325515300688
H           -2.60461770514487        2.20926842468655        1.59318366895044
H           -5.68979544386003        2.52746741803813        6.52891074968807
H           -4.55843373151378        3.21334732470795        7.94758369172703
H           -5.07147542099097        1.63229317138233        7.76250447110273
H           -1.00711573149988        6.99350600844940        0.92701829320465
H           -0.00547346743184        5.77035762553683       -0.10308584948317
H            0.69646296454248        6.84599310518308        1.17729361277129
116
 energy: -22.776055886494 gnorm: 0.446684833969 xtb: 6.6.1 (8d0f1dd)
C           -2.91682737571934        0.46188290136036       -1.58807588188946
C           -2.37377687722081       -0.23746678117027       -0.53167346607094
C           -1.47263627751225        0.34464329231532        0.40392354981932
C           -1.07370950324555        1.76707565160286        0.27799911585348
C           -1.85854612275438        2.50746230949585       -0.64155900052975
C           -2.59374487078252        1.85796383490386       -1.62060767066030
C           -0.89922252827219       -0.29131136443343        1.58023884965777
C            0.36182696900480        0.26121651967778        1.89293320811198
C            0.80434339973728        1.55607553755792        1.40852181648039
N            0.15265543215788        2.28743441095738        0.64232446952325
C           -1.38856594445400       -1.42489575511180        2.27276178955010
C           -0.42986092901052       -2.14190640616096        3.08653065260538
N            0.80994072969048       -1.63561048962102        3.34702064751296
C            1.20426674186457       -0.51421722281623        2.73442608450121
C            2.50386961539323       -0.03552359792597        3.06728687746711
C            2.97548657415249        1.04882578035391        2.41922739322207
C            2.14241446887702        1.87919127485298        1.67989319371896
C           -2.82894275518452       -1.75359142916572        2.42875443142663
C           -3.07582147292147       -2.87096800767309        3.18485990421199
C           -2.08477155174631       -3.84904926120525        3.60383288808848
C           -0.71525510991897       -3.40955498512276        3.50203795516571
O           -3.77781679503020       -0.93382424160134        1.71065281720345
O           -2.38528210676124       -1.64653669997936       -0.45741340669393
C           -3.40070319950596        2.66943466515985       -2.61309088447934
C           -2.54687634767780       -5.24670127487244        3.86784415285398
H           -1.61996672163880        3.50894741945980       -0.98032684886435
H           -3.50171320293466        0.04963613629038       -2.40392356748543
H            2.55408393786624        2.70647691690610        1.09355402487418
H            2.95987566343700       -0.54573375524376        3.81072123479869
H            0.06645877049746       -3.98825338655119        4.09345259306256
H           -4.07832094349671       -3.21894153559040        3.16149289996226
O           -3.08775311058473        3.81968705360169       -2.93725899015573
O           -4.38522399277197        1.95770935663020       -3.21101175298300
C           -4.98787997166084        2.89384377739457       -4.05348755398663
C            4.24897348394308        1.66140111737459        3.14929300271225
O            4.76413917068688        1.07120592932642        4.08281895142220
O            4.85673442855894        2.76017864110273        2.46097329366401
C            6.09063743426955        3.40265014918306        2.90158838855387
O           -3.69366421722360       -5.44405690209483        3.61722752576204
O           -1.61155356421950       -6.20591752794060        4.28619526387825
C           -2.07922035641214       -7.40146347567969        4.74897365090668
C           -5.09670460657639       -1.02410972556959        2.31945080402418
C           -3.60520867498804       -2.18575808195024       -0.74920059458002
H           -2.75143471956274       -8.00041228815710        4.03111267683862
H           -2.70359520806147       -6.97286109368529        5.54265240712503
H           -1.19069121028187       -7.89444690801840        5.05828223093051
H            5.82976899479339        4.16114465261754        3.62496949357660
H            6.72104520253256        3.73134408801249        2.00991186162770
H            6.57736557127420        2.68321364188663        3.59355764996334
H           -3.84428492082011       -2.13437336883932       -1.82922834092871
H           -4.47569212078096       -1.57532329882116       -0.30656876582729
H           -3.66975043800587       -3.19181059104064       -0.22155972219536
H           -5.64543090848670       -2.01436500069400        2.35629537840729
H           -5.71101216737772       -0.39958133076196        1.67419439562972
H           -4.92991075970324       -0.81840213749564        3.37779535941467
H           -4.98978041768642        3.90093439990440       -3.71764306535010
H           -5.92395132536874        2.46391472649289       -4.13706905778942
H           -4.54898996723934        2.72387962820221       -5.05500573322603
C           -1.47183397150895        3.95501308443506        3.43204997958167
C           -1.79859150992073        2.71240814305683        3.99638667032990
C           -0.81519907183114        1.89004843173998        4.82664443981312
C            0.52342652439999        2.32663779071916        4.73193755069812
C            0.80681673849784        3.58786279311882        4.06585960263445
C           -0.13941419173225        4.41739603950826        3.44205922943702
C           -1.08903608560397        0.71984751944180        5.55864350170218
C            0.02191609104837       -0.03115023185223        5.90297736884188
C            1.40051860677475        0.53709284123229        5.75391312439363
N            1.62922620395836        1.72650116476338        5.29064321567178
C           -2.37699407185462        0.16293137272969        5.93415932270908
C           -2.46660395415910       -1.31237366070600        6.08862183911053
N           -1.34405498199963       -2.05349783401483        6.23987194568413
C           -0.16952020204096       -1.36361454674164        6.40659152900316
C            0.94392271195370       -1.93192302976366        6.96272275547435
C            2.17387802020285       -1.30935017637485        7.09755035422384
C            2.37921736229486       -0.21382789408655        6.32931858140916
C           -3.60571233899263        0.90358339899486        6.05820058188634
C           -4.72823412571338        0.10530545767648        6.02320697281354
C           -4.84400937607978       -1.34364470870946        5.84122100657598
C           -3.67870363949337       -2.05472006418727        6.08720522311730
O           -3.80188645776672        2.23686014699079        6.16668450750881
O           -2.99318486511846        1.93662469972922        3.67093183373063
C            0.09650982573676        5.69692406586153        2.75637227325256
C           -6.11709555724825       -2.13970980656419        5.51396936566490
H            1.75239003166608        3.98903060679488        4.16784230666169
H           -2.24644371713036        4.60971265267660        2.89065401644415
H            3.35507807727724        0.16360450173303        6.09172430422731
H            0.79500410473261       -3.00629102991303        7.16816177708457
H           -3.75155210490264       -3.16829257274377        5.85411875142157
H           -5.70902949237034        0.61826419777767        5.96960018402540
O            1.16981804457321        5.82863201690486        2.12207834726209
O           -1.08184294479525        6.46040743244979        2.62867791882866
C           -1.01848716059154        7.42708321401181        1.62323145608198
C            3.16064230796179       -1.82501657448470        8.10155853182039
O            2.95203493868361       -2.84114039326093        8.79581944996514
O            4.19304721756269       -0.90597056263605        8.25051139373116
C            5.19245266756182       -1.50210160040808        9.00185094054912
O           -6.74387213772386       -2.53360896673024        6.55707802045254
O           -6.36204984950792       -2.29794744118263        4.15164071028139
C           -7.31530414416615       -3.24868557600950        4.07235654540333
C           -2.86710916316066        2.70224517606759        7.09356853916010
C           -4.05736354163040        2.74646643725580        3.29372731273389
H           -7.21350621344293       -4.13034956517333        4.75970011195055
H           -7.55506053142726       -3.70599670458965        3.01189522152162
H           -8.19146948321221       -2.79244370755629        4.54883787887869
H            5.98662094429354       -0.79265545266000        9.28575679618583
H            5.71559836037905       -2.42991831579672        8.39791261694488
H            4.74361125345968       -2.01805808858284        9.91523952095429
H           -3.97530543417453        3.84324725250939        3.23452689142335
H           -4.95715535418812        2.44983711444597        3.87995976451864
H           -4.35305986634637        2.52067100670015        2.15340559897687
H           -2.16299275636455        1.93024289233842        7.48911118542848
H           -3.57689137772026        3.07083787990459        7.78546564683542
H           -2.57000252365084        3.63480091075788        6.58976211862745
H           -0.11375093345237        7.12555015039588        1.01047211235241
H           -0.71341923124365        8.43018536718195        1.88007492219618
H           -1.76447031914199        7.48475356955691        0.83858971841709
116
 energy: -22.798668662267 gnorm: 0.446386582910 xtb: 6.6.1 (8d0f1dd)
C           -3.01755310268328        0.37355370519647       -1.62192927924969
C           -2.40141058958543       -0.57262821313595       -0.63736367290831
C           -1.59856709125928        0.13887388919713        0.38245941995399
C           -1.11496366150324        1.43275312697342        0.12975101824258
C           -1.93516872964042        2.19206654743069       -0.78113895493865
C           -2.84668766330491        1.70531363455577       -1.63918015812982
C           -0.88499623101864       -0.62639698236282        1.35798009221549
C            0.35987844734458       -0.13522499590669        1.86581080436375
C            0.79994589277543        1.11689265476487        1.41123768029375
N            0.03358400389624        1.93889069952270        0.62745073616775
C           -1.32172508362296       -1.92976235546758        1.98242469307720
C           -0.41152226500153       -2.60887524796951        2.88335134060583
N            0.86911177657015       -2.08812257690341        3.15743539361050
C            1.16155783583271       -0.90362831125087        2.75949077374845
C            2.28664790010770       -0.22790835037887        3.37432556648818
C            2.61350572462749        1.12712114319231        2.98959980007835
C            1.68636083719738        1.77326256826406        2.18533794839095
C           -2.70800928927640       -2.32181106622647        2.15004021071100
C           -3.04406046263613       -3.44010098912048        2.88063380087390
C           -2.04420870260536       -4.23694121330811        3.43254839672234
C           -0.74826891234620       -3.78797309277132        3.47183358835165
O           -3.61583901005481       -1.40188702839008        1.67997309380913
O           -2.50558418594723       -1.89344834262516       -0.65247381741707
C           -3.50188085542483        2.56574270829494       -2.65863576064406
C           -2.37653810709329       -5.57019992421480        3.85423868169618
H           -1.72779768853563        3.28935207209448       -0.83966459773162
H           -3.50163881590091        0.07012865416085       -2.51446110042327
H            2.04541933147186        2.71670709567881        1.70399712872586
H            2.83151425860358       -0.78174690822569        4.09741614896984
H           -0.04181345280668       -4.15580995174362        4.23272697892357
H           -4.10243989447599       -3.65971515125457        3.01145449058443
O           -3.55223695940235        3.77784343269720       -2.42213788979914