116
 energy: -22.928061455056 gnorm: 0.329736929581 xtb: 6.6.1 (8d0f1dd)
C           -3.31122850772930        0.79849766164622       -0.92477639677520
C           -2.44380812530352       -0.12270372891954       -0.27661132624697
C           -1.41337090092821        0.39579727573559        0.56335275196199
C           -0.89266158675590        1.65801491088749        0.27377586709581
C           -1.72665675402493        2.51431363229076       -0.49448366572522
C           -2.95444148494349        2.13954154133227       -1.01494489940871
C           -0.74098268209890       -0.43411532818871        1.49825021926784
C            0.56872586496315        0.03782116815119        1.86248088067890
C            1.03782416582094        1.29402317993033        1.50887470833621
N            0.31238977034758        2.07067427098208        0.65193736800696
C           -1.29695700510141       -1.39996043042223        2.41574187746061
C           -0.38243517664656       -2.18060797534842        3.13232615520648
N            0.91308504082021       -1.90366887689689        3.30325166013478
C            1.37712470144904       -0.74872102533751        2.81811050966982
C            2.52149331701875       -0.17739833758153        3.39379298866852
C            2.95849061756259        1.02681208890480        2.95105897606587
C            2.24288949469137        1.78498308775960        2.03503020483770
C           -2.74860936222260       -1.74497937691422        2.38401158947411
C           -3.09416315450955       -2.91614440870436        3.00571134491758
C           -2.16786021984049       -3.77788778654213        3.63251872101904
C           -0.85708937311598       -3.40495313382985        3.68547234358092
O           -3.71994433332149       -0.94984598373544        1.67726658385724
O           -2.55702603277562       -1.47241711578389       -0.57241635275616
C           -3.84297843593025        3.13357444054366       -1.60938954875544
C           -2.68769581069131       -5.03867041417370        4.30484659386931
H           -1.39666850744143        3.51251503834900       -0.76806311868865
H           -4.27662633836220        0.55105838579656       -1.33106614114542
H            2.66329581305412        2.73912661909249        1.72562431984580
H            3.05775395548473       -0.69369546277216        4.16536137542516
H           -0.24710966264510       -4.12034095424229        4.22946223699121
H           -4.11477991332403       -3.04712728052358        3.03244694615357
O           -4.21824883374556        4.03433712717988       -0.87713382485991
O           -4.44510595673734        2.90643496899600       -2.81853501752979
C           -5.44216520282800        3.83300025693726       -3.02488532025093
C            4.23586651889298        1.50004220933226        3.59165660008449
O            5.05927614697201        0.66079890002952        3.91714215179376
O            4.47001334453535        2.86385149488593        3.72605651435371
C            5.79457498613219        3.08584475587818        4.15829123132174
O           -3.82227255313510       -5.27347675879771        4.16636005494405
O           -1.85023202017753       -5.79767454267276        5.06656077253571
C           -2.55119635829503       -6.86252441382958        5.62930343183426
C           -5.07197156564436       -1.42399175670916        1.58830531863830
C           -1.33089900128490       -2.23622472573986       -0.99264499351172
H           -2.54510546830388       -7.76426885143998        4.99136022291012
H           -3.57194749219491       -6.44405511486021        5.74196173723541
H           -2.09133598235598       -7.02043774843818        6.64022264233588
H            5.72707967266424        3.46798026205549        5.10135971236643
H            6.34060091246885        3.78468702308830        3.50069950143490
H            6.17933064298187        2.03010500085905        4.19342358084693
H           -0.91862729772622       -2.57650129080332       -0.01361370304871
H           -0.49769766914251       -1.60651221708571       -1.34094446550576
H           -1.52632419730509       -2.94569707152159       -1.75361447637286
H           -5.11788846557077       -2.41810833635233        1.17520213188926
H           -5.67929807973498       -0.69619639428435        1.04301666067831
H           -5.57598832326623       -1.42383358739762        2.57928294206544
H           -6.13050215934830        3.76035386975488       -2.23272855695873
H           -5.86615610071888        3.45938329385866       -4.02668959924245
H           -5.13479557532099        4.87790991548477       -2.98314551356402
C           -1.38192942069774        3.73616555005018        2.91232598411686
C           -1.84821468128685        2.59982427735607        3.49755545445181
C           -1.05946531454833        2.05730632010638        4.60922730982276
C            0.19893954712228        2.69376791964407        4.86302140881997
C            0.50425395911860        3.94630308659851        4.28768785650746
C           -0.26031777722226        4.46998310053134        3.25072669343212
C           -1.20488993561782        0.74454293276906        5.14851520323437
C           -0.06287609782692        0.02744069315890        5.60930570802864
C            1.19208754369866        0.71421540266195        5.78882868583885
N            1.19428660993148        2.06344359410476        5.62744624321596
C           -2.41361422770794        0.07928500213936        5.25249410304426
C           -2.45851584031083       -1.32662100968547        5.60237876023992
N           -1.29466212405906       -1.98318595734370        5.89916817085159
C           -0.14475655767527       -1.32117560077092        5.98824682881008
C            0.97209270935794       -1.98958449505532        6.53157704134458
C            2.21982707914082       -1.36973967291181        6.68703967237737
C            2.30561929262884       -0.09745313075593        6.26436900324455
C           -3.73018485967715        0.71367583494582        5.25810242262992
C           -4.89964478833448       -0.06184623426677        5.21204641615509
C           -4.82617965800088       -1.39228978090841        5.46901303780036
C           -3.67144193418464       -1.98914944386360        5.67265433266067
O           -3.75568638935321        2.07705011038914        5.52067969627343
O           -2.94192434743730        1.91263938797883        3.01658762327703
C            0.21273512614467        5.50086066357994        2.34765104514621
C           -6.06660304520411       -2.17604633098929        5.80641622556876
H            1.41756699010566        4.38133362238595        4.66974005703471
H           -1.82880610647429        4.11982501512100        2.06992133318584
H            3.26888037378556        0.32655662585251        6.31721410015598
H            0.87146188387207       -3.08471526305024        6.57830423410869
H           -3.67716811065157       -3.05999292755990        5.83019634570050
H           -5.77379677507622        0.43595144608221        4.71017130754348
O            1.34459852619901        5.82615848916894        2.44941456579099
O           -0.74718748219123        6.07961784856304        1.59848183464284
C           -0.21473095568964        7.24015934882472        1.05753806029483
C            3.53228080814219       -2.00967610361154        7.02506769044485
O            3.64093082622715       -3.14437803815732        7.50071391725347
O            4.56565258381079       -1.22937033368332        6.69086985080897
C            5.72579357310716       -1.80692399125161        7.22246151275881
O           -7.04801223588612       -1.95726935745904        5.14194115322235
O           -6.01514389321278       -2.93743591896022        6.94765316328794
C           -7.21292732384718       -3.62681918543340        7.15115816329978
C           -4.95459780685163        2.65960679932188        5.86868674392943
C           -3.68284113682406        2.59129188358641        2.05479246020704
H           -7.43119628931628       -4.22607794725959        6.20622607140901
H           -8.06548455146707       -2.91765848248592        7.29781126410398
H           -7.07314693247270       -4.33087306029711        7.91223421050944
H            6.57332189837178       -1.29353136199234        6.78341268688262
H            5.74663761932316       -2.84282155125561        6.88089468184451
H            5.69426191474290       -1.72781984964892        8.29460302186842
H           -4.10481209541493        3.44288266176275        2.60483747673152
H           -4.49244774344916        1.87419893016926        1.82433103764650
H           -3.18901540870812        2.85154642679373        1.06781919454921
H           -5.55414326821421        2.76698137191684        4.93950725322359
H           -4.78658370641210        3.62090640967288        6.25983200635257
H           -5.43485580473958        1.97242995129449        6.65265772412460
H            0.89164886030839        7.38838561720231        1.13776105146914
H           -0.62894889903848        8.04195665205089        1.64837664327952
H           -0.59282546386754        7.45699159724320        0.03719083132488
116
 energy: -22.512127355904 gnorm: 0.581259733156 xtb: 6.6.1 (8d0f1dd)
C           -3.00839194124466       -0.85506273029180       -1.71511192319850
C           -2.29176252781540       -1.69506999300841       -0.86347032597736
C           -1.57313389217251       -0.88793668200599        0.12540667006065
C           -1.66345426476972        0.52652028763279       -0.01701188554860
C           -2.47165670193267        1.27023163762685       -0.90282808245071
C           -3.14444066295683        0.54503805003753       -1.88678359360402
C           -0.91688542129866       -1.17984127051416        1.41441623453513
C            0.28667168121512       -0.49140506792286        1.83095997611173
C            0.36733769454200        0.77348982327240        1.30755786444236
N           -0.78547301875563        1.35748368637235        0.66840635162070
C           -1.10684093338642       -2.51321758969841        2.07461005622846
C           -0.11989089822471       -2.91236728143447        3.12040043763848
N            1.02368540413103       -2.21272142796077        3.32689592509903
C            1.16719489345012       -1.03441399325011        2.80747919545631
C            2.44350622056288       -0.45274961870291        3.08667220775830
C            2.69328707239511        0.89558021895440        2.57644445690261
C            1.61255845908539        1.43003919812167        1.84216741296139
C           -2.50586363069107       -3.03542677006290        2.16948333341583
C           -2.82828059189580       -4.15454725686784        2.90851897868383
C           -1.67456610736056       -4.84565953981887        3.43050240405005
C           -0.38025373777152       -4.26715432402931        3.49821082923549
O           -3.39227359038922       -2.13688090798618        1.71028607444273
O           -2.48804379208977       -3.02316764681592       -1.05990369106299
C           -3.85213340984818        1.14051078885909       -2.95215923395405
C           -1.53275689477926       -6.36305368464524        3.86266338490315
H           -2.26273934961195        2.33469695380635       -0.96764266596967
H           -3.79580713630152       -1.31313441696038       -2.25837314292075
H            1.38980891364305        2.48940544088901        1.76070873354690
H            3.20679255653320       -1.21697863294345        3.37402473164744
H            0.43285376082487       -4.65753627888469        4.20523504277440
H           -3.82536385064825       -4.55487467083747        3.24634029705565
O           -3.90071073817665        2.35299134920285       -3.15719358750448
O           -4.49096057186819        0.12663103668055       -3.63909152800054
C           -5.40196208526793        0.49896323516538       -4.49647915263242
C            3.80329445209589        1.63573168107907        3.27112604717831
O            4.89250882663383        1.33330080784315        3.85632599195632
O            3.59551323405841        2.98374887516378        3.13031384344069
C            4.67354255014606        3.91240189248188        3.20229151980738
O           -0.82125559546676       -6.57258402410908        4.86117981646165
O           -2.38646586639521       -7.28803489859272        3.20862062457475
C           -1.76889313928292       -8.59429864400140        3.33481374601389
C           -4.61858023244744       -2.00863770398172        2.57800421868796
C           -3.03577647801658       -3.70813143900832       -2.28334401898929
H           -0.86786983992718       -8.30163517085351        2.75036892558285
H           -2.18323460038989       -9.44711499297431        2.75282639598305
H           -1.73880941960125       -8.90733847201717        4.34719264687727
H            4.93253266440969        4.00649408911822        4.18528948590170
H            4.16625330457486        4.64192164442441        2.45424244010801
H            5.51281884820857        3.59648989981764        2.60434982202932
H           -2.86732636989407       -3.04408571676738       -3.01867052589786
H           -4.01546073197807       -4.06227543461344       -2.08602009032766
H           -2.30230246791600       -4.60113727402769       -2.28507741107806
H           -4.61962469906310       -0.94717024252953        3.05294325531004
H           -4.92291683482019       -2.79681140076557        3.31989820058567
H           -5.58107167987187       -2.06078665570688        1.94712202550666
H           -5.64322332159693        1.59149528724434       -4.23538993620605
H           -6.21112381348507       -0.21584289507240       -4.51459046985574
H           -4.90049890764621        0.46180583751765       -5.59059550899725
C           -1.23898109875015        5.49223593175682        4.41967444162303
C           -1.65057184513437        4.25827494191350        4.88813827915634
C           -0.86556217468362        3.32880274567005        5.46775974887436
C            0.56697330319384        3.67681847009981        5.40350447246677
C            1.09279359078970        4.98036291754458        5.05392034307429
C            0.09225367114672        5.86407261699653        4.54739061933006
C           -1.17610061791540        1.91444473295285        5.85719813736166
C           -0.03394656627036        1.04848205198393        5.81588381716783
C            1.29281183025307        1.33202840201644        5.97055487869370
N            1.51331852741589        2.64356410855163        5.90402095473274
C           -2.42263909374618        1.24170545993038        6.16234073412165
C           -2.62149374791144       -0.17323272772478        6.16502104460826
N           -1.47213585474251       -0.92780756080971        6.02270843317012
C           -0.20677005176904       -0.40264896921284        5.97773447853360
C            0.78233030119395       -1.26321211300929        6.34200768806214
C            2.08060165169293       -0.74724075200889        6.48633190129943
C            2.36913876129586        0.61326621058381        6.23511837829393
C           -3.60455446704749        1.93704243643375        6.45144030183281
C           -4.88903120963941        1.34144574821524        6.27958446993140
C           -5.06317566054064        0.14238361031486        5.74899301490369
C           -3.98059130919560       -0.77724536663850        5.87030276386001
O           -3.68441872002256        3.02145270815002        7.25913517707893
O           -2.89615748265428        3.79593599161603        4.50392446283559
C            0.20217722143772        7.14467183110719        3.85034680763685
C           -6.34085536146476       -0.10706935622762        5.26564302246382
H            2.04902267291911        5.37553562230987        5.35713074497871
H           -1.93769798209764        6.12839646431061        4.18570165725863
H            3.36612393105536        1.21082302860462        6.24092493084076
H            0.51609595706434       -2.31148017267119        6.43912203004438
H           -4.04494461643065       -1.58634037371010        5.26800604394563
H           -5.60570260207442        2.19578754216525        6.10189855768479
O            1.09777961970652        7.48149054145009        3.11837807610464
O           -0.49587791577913        8.12104460125841        4.54657598039016
C            0.29249206765880        9.25964731149023        4.38624820971216
C            3.06423903710988       -1.86184200256002        6.74454434061943
O            3.33763569574102       -2.09651468377225        7.88400506007757
O            3.70392797407368       -2.58441036373636        5.73874115669676
C            4.38351849739265       -3.63230134632959        6.26861778336186
O           -7.19156932472896        0.76456636101814        5.29084300571482
O           -6.63783204548259       -1.44830488123351        4.96856128205975
C           -7.97262350264702       -1.99482114990471        4.53598326080395
C           -2.39793139321598        3.38219313788213        7.79965227694716
C           -2.61371548096273        2.79011796607909        3.53038196225835
H           -8.70952170885155       -1.99151740224454        5.32828849242666
H           -8.03680948139871       -2.94521307872167        4.17015833269802
H           -8.31053713478339       -1.40446415069632        3.74821144868410
H            3.72732600328023       -4.20982436900686        6.84172470298811
H            5.15199032763900       -3.18957223431485        6.79709855134246
H            4.75103084109991       -4.33442936272693        5.40345497125401
H           -3.00541843018452        1.78026967488280        3.75262826928796
H           -1.50805297389673        2.55494158499179        3.69072979420017
H           -2.92640654806369        2.99855214511289        2.56876945506083
H           -1.64284311572302        2.40865920457134        7.86966458446829
H           -2.73764430081240        3.48714841748184        8.90489630961494
H           -1.92964026475844        4.29303002905790        7.55209181001675
H            0.26020170840030        9.77960875102374        5.38756819533616
H           -0.21375998282977       10.05612909463821        3.67019572588892
H            1.23990850105738        8.92247672520529        4.15989592975568
116
 energy: -22.516388633487 gnorm: 0.580556987218 xtb: 6.6.1 (8d0f1dd)
C           -3.10408052421211       -2.01384924351325       -2.17952883060937
C           -2.16998849139306       -2.26217861646682       -1.16054498849651
C           -2.18425667287725       -1.53621323948850        0.10090362342790
C           -2.47171624519102       -0.10347033639262       -0.14262148605636
C           -3.26247976381178        0.15578543404779       -1.21880038950373
C           -3.74856243484795       -0.73703093482951       -2.19204228762752
C           -1.40879295681431       -1.86084876432428        1.22269688225489
C           -0.31325144611639       -1.01422981992766        1.40785302489890
C           -0.53672789277777        0.42333686285876        0.99693168570795
N           -1.77059623633047        0.75988412225292        0.55206005275387
C           -1.21781595312907       -3.14492833767338        1.69065670283053
C            0.04229982301489       -3.54498964263935        2.26771341121382
N            1.15513299665890       -2.73848777844768        2.43273727609654
C            0.86191655774012       -1.46132862622933        2.00809988296921
C            1.89902077370176       -0.64256689209627        2.05809038983952
C            1.71006986501338        0.68849356037574        1.81177248924090
C            0.60276530152227        1.36841534887785        1.20098098420754
C           -2.31354169010734       -4.00227618414891        1.98340723856575
C           -2.17843840722257       -5.00554567478415        2.90896092045170
C           -0.97687918763989       -5.56640081829062        3.21035734929878
C            0.15334544808417       -4.67679364143445        3.03752739549157
O           -3.65185758555970       -3.63179611097466        1.59927836165738
O           -1.28911611706785       -3.28443359426834       -1.55315962597395
C           -4.47514147230295       -0.25957171548881       -3.46892971906121
C           -0.71870538353536       -6.86240718554168        3.81517130461154
H           -3.50831138787668        1.18480387937156       -1.35149607174265
H           -3.16464271421785       -2.78735330409000       -2.95549398055151
H            0.55944749259853        2.35082281114675        0.92042149814860
H            2.73672188580881       -0.93500956651285        2.59736848661739
H            1.18806440301625       -4.98964986422649        3.29602378211265
H           -3.17986378047337       -5.27027164056294        3.17987707342850
O           -4.99532759884562        0.84386802629263       -3.44226407271561
O           -4.45969269044598       -1.07369304384637       -4.66757237442756
C           -5.40843435223988       -0.62343602416357       -5.63184827523831
C            2.37840939892483        1.71988569462165        2.74780679854229
O            3.41740816217689        1.44221192774326        3.34890815775337
O            1.63206953160853        2.83266273500846        2.98690297758607
C            2.52095132115931        3.92482056664918        3.39381539607533
O            0.44289965173182       -7.28609438081500        3.68110054464270
O           -1.58503022088892       -7.68249328373631        4.61139468508686
C           -0.99646765934184       -8.56024401670460        5.43285359126178
C           -4.38774340215421       -2.46537395856150        1.94171252644206
C           -0.25361345489110       -3.17185309683663       -2.38147593731982
H           -0.32360355357362       -9.30453943024175        4.93575545509290
H           -1.87529643895979       -9.17666695749241        5.69181871133179
H           -0.69071751803679       -8.00287700852223        6.31028645737546
H            2.54115252757203        3.94050495691267        4.58820096049546
H            2.33080718721064        4.75803087152772        2.62101741905838
H            3.45312229401132        3.30352517808671        3.05873446899806
H            0.15241591072424       -2.21985081454240       -2.44601169829111
H           -0.41622368436309       -3.77110844968077       -3.27418220526109
H            0.73637890368197       -3.58227349060390       -2.11764060138327
H           -3.86037124984180       -1.66832784378928        2.23258977307003
H           -4.76120857945306       -2.69710682540202        2.91317907628860
H           -5.24431049349692       -2.29254235924429        1.39638287857065
H           -6.14989117968332       -1.36263876940170       -5.57943698338627
H           -4.98328647729626       -0.33086859871671       -6.64618218930752
H           -5.93163659212257        0.32250496380383       -5.36986149453918
C           -0.44971225477136        6.07788810443889        5.52477979866262
C           -0.93399416676185        4.90351537133485        4.96260949484036
C           -0.19327389910509        3.74240190098139        5.46241266705735
C            1.06488122778130        3.74504745494114        6.19996128463435
C            1.36694295899038        5.11196653017356        6.67298004637326
C            0.62079419292902        6.23220027567982        6.37198326206700
C           -0.83654323879729        2.37477240965667        5.50248236553918
C            0.06892650108120        1.38011582890891        5.57568728213965
C            1.46083502637164        1.50457557551841        5.93554674802475
N            1.98637949456290        2.73677654812247        6.29776822238843
C           -2.26127436833773        2.10031952885205        5.34909897417666
C           -2.64741541029565        0.75946984025286        5.05018747518218
N           -1.75896429410511       -0.18826658377062        4.91672091072081
C           -0.46362109834061        0.12521828571941        5.22447284534947
C            0.41421521125215       -1.02688604407745        5.35607216024627
C            1.65548981370188       -0.97688236696202        5.78989960772240
C            2.14947984093260        0.32522206476277        6.08044392884447
C           -3.30410944724518        3.17780026542141        5.57390157023339
C           -4.64824417250702        2.88292634063420        5.28922624657586
C           -4.96072721549702        1.48112585226488        5.22189679353554
C           -3.98543138139936        0.48457299717712        5.16406398553588
O           -3.17588326393387        4.44126599668190        6.36372310531391
O           -1.69095494788779        4.97711943663973        3.81765048718856
C            0.77097180929537        7.36351841593746        7.25352503364800
C           -6.41557414652108        1.08122847998909        5.35481815928823
H            2.11713338543829        5.22575209481889        7.48116313430554
H           -1.01147172903320        6.85559438490380        5.27898590926229
H            2.89231202463460       -0.02360094792442        6.78878071534366
H           -0.03766198004399       -1.92420326653973        5.40671105367948
H           -4.50079782748302       -0.60452448739591        4.98366309279321
H           -5.41634221022266        3.46174382898378        5.62818949425303
O            1.03438277833591        7.41860520879756        8.44515843030886
O            0.52007484123006        8.46578628201021        6.30218492583852
C            1.02631379604549        9.57269055452519        7.09490037196456
C            2.41282011605353       -2.30994458918905        5.78987808317253
O            2.16808452278704       -3.25883472919028        5.06041814824239
O            3.39033915601881       -2.48440297258734        6.82130731102971
C            3.38989896317494       -3.95815157468465        7.13649082456323
O           -7.12007145643529        1.41077389915287        6.30084343832461
O           -6.73880270231873       -0.16579954350320        4.73610552028261
C           -7.96790391917238       -0.64641173905688        5.41075204007395
C           -2.80241165320994        4.46477666006946        7.63004509941648
C           -1.38256252685624        3.99496579858512        2.80864553740392
H           -8.61498912526083       -1.03209126846384        4.62701408965385
H           -8.59409012235097        0.01968134928601        5.98429095665805
H           -7.66182130835031       -1.40008136675298        6.27040511692632
H            2.28209348806706       -4.10802917580441        7.12792875045418
H            3.83917356553318       -4.39214095410776        8.01768172496436
H            4.11741801048316       -4.22854771498099        6.40597776249690
H           -1.91224233719655        3.10664242464038        3.10871275694728
H           -0.38319082341873        3.69235751867538        2.97694516195246
H           -1.31273604785785        4.23170818213776        1.68783272955755
H           -2.78033927016254        5.66160627599713        7.92271462827240
H           -1.68659143141090        3.98846036140623        7.64690982452249
H           -3.43461318448006        4.01827200438407        8.21231392560361
H            0.52647919851508       10.22329646011147        7.87414477343228
H            1.40056725504694       10.14718939828337        6.17087908976293
H            1.93778975637528        9.36251312078881        7.76314328204093
116
 energy: -22.512356892144 gnorm: 0.609189169949 xtb: 6.6.1 (8d0f1dd)
C           -3.03131491120006       -3.14682434545724       -2.14107816709922
C           -1.90661694763723       -3.32312538047998       -1.32261423144145
C           -1.52052571422791       -2.13442792026725       -0.66624432545720
C           -1.74315365520395       -0.73053227050279       -1.22589752555064
C           -3.12862325181298       -0.72739174403514       -1.95138637174277
C           -3.68438476174350       -1.90323884874275       -2.45574733161333
C           -0.65399605515891       -2.21016347654308        0.42918285584387
C            0.22669721008257       -1.07271322188338        0.60881060067560
C           -0.06377965478630        0.15262496635383        0.05237898174915
N           -1.06825390647380        0.38153550615060       -0.95193357108752
C           -0.47739475998747       -3.06493054881997        1.47830352951191
C            0.80791588630172       -3.37590115459188        1.91996713862722
N            1.75521314496675       -2.23981413533927        2.12724361239355
C            1.26977960310648       -1.20422298026499        1.46895653143907
C            2.01873884917245       -0.02017635440746        1.61346846857538
C            1.50779260892620        1.26511796378188        1.45029764570711
C            0.64638918758456        1.28490190722729        0.35596777669154
C           -1.66951809995201       -3.71930274979651        1.77058087069809
C           -1.53417719971189       -4.89508794558072        2.49019758320791
C           -0.30012991355646       -5.25800133174304        3.11630420832134
C            0.83859566530539       -4.64671894455329        2.57077625013262
O           -2.94094985481510       -3.31083007681243        1.46345853051234
O           -1.22642523939810       -4.43917160672445       -1.37998404643283
C           -4.90871386193872       -1.73361229274000       -3.20347345304705
C           -0.25672810834283       -6.48269423246344        4.04174468264915
H           -3.73558347525746        0.13412115864223       -1.95687805989646
H           -3.61051653971915       -4.05747362919105       -2.50273342583390
H            0.38883323455062        2.12889878394535       -0.12982754708011
H            3.07866353671833       -0.12338614603287        1.98113776612318
H            1.73515585011311       -4.97563973763842        3.01101082463556
H           -2.33421805561389       -5.42889469688667        2.77471087073882
O           -5.34955152164374       -0.73676421411151       -3.54635632176835