116
 energy: -22.928061455056 gnorm: 0.329736929581 xtb: 6.6.1 (8d0f1dd)
C           -3.31122850772930        0.79849766164622       -0.92477639677520
C           -2.44380812530352       -0.12270372891954       -0.27661132624697
C           -1.41337090092821        0.39579727573559        0.56335275196199
C           -0.89266158675590        1.65801491088749        0.27377586709581
C           -1.72665675402493        2.51431363229076       -0.49448366572522
C           -2.95444148494349        2.13954154133227       -1.01494489940871
C           -0.74098268209890       -0.43411532818871        1.49825021926784
C            0.56872586496315        0.03782116815119        1.86248088067890
C            1.03782416582094        1.29402317993033        1.50887470833621
N            0.31238977034758        2.07067427098208        0.65193736800696
C           -1.29695700510141       -1.39996043042223        2.41574187746061
C           -0.38243517664656       -2.18060797534842        3.13232615520648
N            0.91308504082021       -1.90366887689689        3.30325166013478
C            1.37712470144904       -0.74872102533751        2.81811050966982
C            2.52149331701875       -0.17739833758153        3.39379298866852
C            2.95849061756259        1.02681208890480        2.95105897606587
C            2.24288949469137        1.78498308775960        2.03503020483770
C           -2.74860936222260       -1.74497937691422        2.38401158947411
C           -3.09416315450955       -2.91614440870436        3.00571134491758
C           -2.16786021984049       -3.77788778654213        3.63251872101904
C           -0.85708937311598       -3.40495313382985        3.68547234358092
O           -3.71994433332149       -0.94984598373544        1.67726658385724
O           -2.55702603277562       -1.47241711578389       -0.57241635275616
C           -3.84297843593025        3.13357444054366       -1.60938954875544
C           -2.68769581069131       -5.03867041417370        4.30484659386931
H           -1.39666850744143        3.51251503834900       -0.76806311868865
H           -4.27662633836220        0.55105838579656       -1.33106614114542
H            2.66329581305412        2.73912661909249        1.72562431984580
H            3.05775395548473       -0.69369546277216        4.16536137542516
H           -0.24710966264510       -4.12034095424229        4.22946223699121
H           -4.11477991332403       -3.04712728052358        3.03244694615357
O           -4.21824883374556        4.03433712717988       -0.87713382485991
O           -4.44510595673734        2.90643496899600       -2.81853501752979
C           -5.44216520282800        3.83300025693726       -3.02488532025093
C            4.23586651889298        1.50004220933226        3.59165660008449
O            5.05927614697201        0.66079890002952        3.91714215179376
O            4.47001334453535        2.86385149488593        3.72605651435371
C            5.79457498613219        3.08584475587818        4.15829123132174
O           -3.82227255313510       -5.27347675879771        4.16636005494405
O           -1.85023202017753       -5.79767454267276        5.06656077253571
C           -2.55119635829503       -6.86252441382958        5.62930343183426
C           -5.07197156564436       -1.42399175670916        1.58830531863830
C           -1.33089900128490       -2.23622472573986       -0.99264499351172
H           -2.54510546830388       -7.76426885143998        4.99136022291012
H           -3.57194749219491       -6.44405511486021        5.74196173723541
H           -2.09133598235598       -7.02043774843818        6.64022264233588
H            5.72707967266424        3.46798026205549        5.10135971236643
H            6.34060091246885        3.78468702308830        3.50069950143490
H            6.17933064298187        2.03010500085905        4.19342358084693
H           -0.91862729772622       -2.57650129080332       -0.01361370304871
H           -0.49769766914251       -1.60651221708571       -1.34094446550576
H           -1.52632419730509       -2.94569707152159       -1.75361447637286
H           -5.11788846557077       -2.41810833635233        1.17520213188926
H           -5.67929807973498       -0.69619639428435        1.04301666067831
H           -5.57598832326623       -1.42383358739762        2.57928294206544
H           -6.13050215934830        3.76035386975488       -2.23272855695873
H           -5.86615610071888        3.45938329385866       -4.02668959924245
H           -5.13479557532099        4.87790991548477       -2.98314551356402
C           -1.38192942069774        3.73616555005018        2.91232598411686
C           -1.84821468128685        2.59982427735607        3.49755545445181
C           -1.05946531454833        2.05730632010638        4.60922730982276
C            0.19893954712228        2.69376791964407        4.86302140881997
C            0.50425395911860        3.94630308659851        4.28768785650746
C           -0.26031777722226        4.46998310053134        3.25072669343212
C           -1.20488993561782        0.74454293276906        5.14851520323437
C           -0.06287609782692        0.02744069315890        5.60930570802864
C            1.19208754369866        0.71421540266195        5.78882868583885
N            1.19428660993148        2.06344359410476        5.62744624321596
C           -2.41361422770794        0.07928500213936        5.25249410304426
C           -2.45851584031083       -1.32662100968547        5.60237876023992
N           -1.29466212405906       -1.98318595734370        5.89916817085159
C           -0.14475655767527       -1.32117560077092        5.98824682881008
C            0.97209270935794       -1.98958449505532        6.53157704134458
C            2.21982707914082       -1.36973967291181        6.68703967237737
C            2.30561929262884       -0.09745313075593        6.26436900324455
C           -3.73018485967715        0.71367583494582        5.25810242262992
C           -4.89964478833448       -0.06184623426677        5.21204641615509
C           -4.82617965800088       -1.39228978090841        5.46901303780036
C           -3.67144193418464       -1.98914944386360        5.67265433266067
O           -3.75568638935321        2.07705011038914        5.52067969627343
O           -2.94192434743730        1.91263938797883        3.01658762327703
C            0.21273512614467        5.50086066357994        2.34765104514621
C           -6.06660304520411       -2.17604633098929        5.80641622556876
H            1.41756699010566        4.38133362238595        4.66974005703471
H           -1.82880610647429        4.11982501512100        2.06992133318584
H            3.26888037378556        0.32655662585251        6.31721410015598
H            0.87146188387207       -3.08471526305024        6.57830423410869
H           -3.67716811065157       -3.05999292755990        5.83019634570050
H           -5.77379677507622        0.43595144608221        4.71017130754348
O            1.34459852619901        5.82615848916894        2.44941456579099
O           -0.74718748219123        6.07961784856304        1.59848183464284
C           -0.21473095568964        7.24015934882472        1.05753806029483
C            3.53228080814219       -2.00967610361154        7.02506769044485
O            3.64093082622715       -3.14437803815732        7.50071391725347
O            4.56565258381079       -1.22937033368332        6.69086985080897
C            5.72579357310716       -1.80692399125161        7.22246151275881
O           -7.04801223588612       -1.95726935745904        5.14194115322235
O           -6.01514389321278       -2.93743591896022        6.94765316328794
C           -7.21292732384718       -3.62681918543340        7.15115816329978
C           -4.95459780685163        2.65960679932188        5.86868674392943
C           -3.68284113682406        2.59129188358641        2.05479246020704
H           -7.43119628931628       -4.22607794725959        6.20622607140901
H           -8.06548455146707       -2.91765848248592        7.29781126410398
H           -7.07314693247270       -4.33087306029711        7.91223421050944
H            6.57332189837178       -1.29353136199234        6.78341268688262
H            5.74663761932316       -2.84282155125561        6.88089468184451
H            5.69426191474290       -1.72781984964892        8.29460302186842
H           -4.10481209541493        3.44288266176275        2.60483747673152
H           -4.49244774344916        1.87419893016926        1.82433103764650
H           -3.18901540870812        2.85154642679373        1.06781919454921
H           -5.55414326821421        2.76698137191684        4.93950725322359
H           -4.78658370641210        3.62090640967288        6.25983200635257
H           -5.43485580473958        1.97242995129449        6.65265772412460
H            0.89164886030839        7.38838561720231        1.13776105146914
H           -0.62894889903848        8.04195665205089        1.64837664327952
H           -0.59282546386754        7.45699159724320        0.03719083132488
116
 energy: -22.841353176286 gnorm: 0.377981575028 xtb: 6.6.1 (8d0f1dd)
C           -3.42007728557186        0.63135759653463       -1.19110811276149
C           -2.76990401410769       -0.34306878212557       -0.42574401373231
C           -1.72954857747376        0.19669682075956        0.41130741314163
C           -1.18371909425380        1.51311585686964        0.03928603452683
C           -1.77457975351139        2.36249920599020       -0.96247971979274
C           -2.91376674566670        1.93189589595005       -1.54306440569773
C           -0.99124184667840       -0.42819620526988        1.48260002340703
C            0.33097789373032       -0.05246874880333        1.74905717813172
C            0.68520519338278        1.25852608332846        1.31206329868560
N           -0.04337380795406        2.04468624800303        0.54987882399231
C           -1.56711136015910       -1.57272733862235        2.14792066687376
C           -0.66426016890100       -2.24898743173472        3.04324897487658
N            0.54290350906942       -1.75069528367595        3.42678833557655
C            1.04441287850638       -0.68621233855237        2.82401432333025
C            2.34077394533988       -0.27864815235212        3.17943882552450
C            2.70541831495603        0.95829097017575        2.69297157957931
C            1.86832384893153        1.78818976085807        1.85578643876159
C           -2.98940177001632       -1.98050908303775        2.16175492834185
C           -3.35871128194876       -3.21028118584226        2.79059298437305
C           -2.37924172619776       -3.96954410417054        3.45279166815777
C           -1.13295796889237       -3.37294513915158        3.71993904626594
O           -3.87913015056747       -1.08066603712388        1.69877954110086
O           -3.33405953040232       -1.62806446479103       -0.53412830130580
C           -3.75822426242019        2.87354828320790       -2.41570826850654
C           -2.70583663023622       -5.35860612890105        3.93977810449474
H           -1.32843110053574        3.29006788745298       -1.21396217655953
H           -4.33510053101942        0.42992969858349       -1.65463013855652
H            2.25705055810568        2.70195141125470        1.59321013563362
H            2.95564306803326       -0.81496146880033        3.87507109007520
H           -0.37492041114501       -4.03999456952229        4.04352910445277
H           -4.32899936569104       -3.66090934902713        2.68257100331393
O           -3.29293894350017        3.85161072457822       -2.91738488823717
O           -5.12438432557847        2.73599741163735       -2.31622259836890
C           -5.90515247950020        3.64196384966373       -3.12376704190746
C            4.12225239525742        1.20097945440178        3.04081182462013
O            4.71177445967601        0.46216982609292        3.80775901458814
O            4.77963136378065        2.13150422708586        2.35143324206897
C            6.13246160942181        1.95790924961917        2.35264734051644
O           -3.84989522209027       -5.81659652602386        3.80066809459187
O           -1.65713860453086       -6.16697274156019        4.31067029664716
C           -2.08658550552109       -7.42734342649582        4.70262379732086
C           -5.24186068662180       -1.53412604724868        1.47355350318150
C           -2.63007511506466       -2.80110038615761       -1.17497186770358
H           -2.47655725722724       -7.25167255320503        5.76723114580104
H           -1.36278779598200       -8.10594529969545        4.69249333098122
H           -2.93662091513557       -7.65400396480182        4.14350422742475
H            6.41226755673430        1.08184457449411        1.64377735358814
H            6.33060088167528        1.51876004734082        3.39660509082643
H            6.63936457684998        2.92594339973975        2.13608392400772
H           -2.65663598873358       -3.71905788393686       -0.54724174437537
H           -1.56777576545622       -2.52100685931460       -1.08499986236151
H           -2.99809948300570       -2.85234053258205       -2.22310043315831
H           -5.31998019258524       -2.60216927425873        1.63856975848211
H           -5.65101910541497       -1.45148173275602        0.43250955739496
H           -5.87584339521533       -0.92007390755877        2.06753590301775
H           -5.66511640687794        4.66157111665038       -2.95103835914589
H           -6.89811295701591        3.51201305649790       -2.89176056666721
H           -5.88792837661087        3.39094233029790       -4.19929428094199
C           -1.42715048943503        3.96779155634278        3.52764507839234
C           -1.62669665458460        2.63524723035526        4.01765079584338
C           -0.62751713418781        2.10934595731443        4.86522153541792
C            0.61868309053516        2.76447594851531        5.00917144754106
C            0.66682467780089        4.09276035149968        4.66696788468802
C           -0.32747441565646        4.74577706147723        3.90367755636373
C           -0.77270153322529        0.85907257884461        5.52935176635468
C            0.38595616909302        0.13540457942313        5.88038711889628
C            1.59087891341114        0.78230126011527        5.80417819449705
N            1.79890130242474        2.06339516947868        5.33727461099800
C           -2.08494998444173        0.26841824676536        5.78449564606893
C           -2.10499559516733       -1.07564568999320        6.06241085261004
N           -1.03903252340229       -1.69244620658721        6.64647320497057
C            0.26570870070871       -1.19044640036854        6.43739808813942
C            1.32283479941095       -1.60145604325070        7.23312584005616
C            2.41181286945314       -0.84721235202979        7.35356398162749
C            2.61069960738163        0.28546077828808        6.62309496077527
C           -3.27381216600755        0.99297863891370        5.95163098315363
C           -4.55148276544098        0.38133960366262        5.68125136669480
C           -4.62564489488390       -1.05094169088428        5.58345870815301
C           -3.41715539478144       -1.75166273051301        5.89770176300274
O           -3.14735475298829        2.35104599407703        6.24504195353068
O           -2.67539886344362        1.87250666030949        3.55448284603583
C            0.03394074633937        5.94248174715328        3.11749841263711
C           -5.90487326906052       -1.72489768644760        5.32469491405475
H            1.60869050334887        4.54821124793836        4.81890928128277
H           -1.83440575979651        4.20428944766082        2.60743173930759
H            3.58057873799643        0.72148845150342        6.63134629298794
H            1.26826284128693       -2.45765328514983        7.87792647469454
H           -3.45936679135397       -2.81676068698176        6.08605346382428
H           -5.48598250929791        0.93263500876269        5.61226676800845
O            0.99848844362153        6.64891031984863        3.37337605685926
O           -0.82765315868927        5.99709851251427        2.00362813930809
C           -0.44522626872492        7.16250878611874        1.31161653342121
C            3.42193059979884       -1.44007080605060        8.18681435474580
O            3.35004646989880       -2.56972861387671        8.67548621177330
O            4.52519651956704       -0.57319428982790        8.27172220857537
C            5.56053554361463       -1.19345850033596        8.93215956528868
O           -6.98036946692827       -1.17359005150251        5.52714635308773
O           -5.69558493119951       -3.05689141542903        4.94042093829878
C           -6.82496295004057       -3.74269584120766        4.64408236343786
C           -4.32292906914742        3.00813559612254        6.81866334686766
C           -3.61077617520561        2.42656900363018        2.64306221693840
H           -7.16489033751458       -3.50685951808757        3.67495915522090
H           -7.66656952896518       -3.60785465486748        5.30028153879412
H           -6.64856201374949       -4.88293806687903        4.55789917544780
H            6.22452317615745       -0.34104835096452        9.10400802787099
H            6.03465802558062       -1.99183984555074        8.36723203606982
H            5.28518519345286       -1.77433803876307        9.87568777805546
H           -4.03350280529170        3.41032771283549        2.93564300459476
H           -4.63011097762238        1.89676860835520        2.53986900458191
H           -3.03366000014757        2.53928791435580        1.77268688601503
H           -4.30446612488970        4.14608102839911        6.75373805208254
H           -4.20470215863071        2.95654450279564        7.95645903633753
H           -5.33285213470017        2.65267264833225        6.59732418274768
H           -0.04337803871521        7.78335716815719        2.10700831257899
H           -1.39008863489590        7.62859293766465        0.83577865516182
H            0.15550721678921        6.93053649176015        0.35443673010040
116
 energy: -22.884939131592 gnorm: 0.351481904114 xtb: 6.6.1 (8d0f1dd)
C           -3.76490764092898        0.44804882681043       -1.30977990467880
C           -3.06642988269470       -0.38245653115274       -0.43429338102625
C           -2.07847269512635        0.13797625424641        0.44156352883939
C           -1.47089432043652        1.38119616800404        0.09530260486474
C           -2.04003403828919        2.06766804870184       -0.94209956378485
C           -3.13589268829655        1.60109712769469       -1.68257315212192
C           -1.33725297346408       -0.54290769468299        1.50508167714233
C           -0.03487908447193       -0.13747779170825        1.75746350564759
C            0.39296523874491        1.20563059306654        1.40719356272198
N           -0.38946689631582        1.97188964136985        0.69070874130252
C           -1.78249859424145       -1.73926121698819        2.14600064966661
C           -0.81203964904830       -2.63071090348342        2.67713996777860
N            0.47110236444079       -2.25107620901844        2.91768170059469
C            0.78457410221460       -0.99885563557526        2.55749306138083
C            2.03136442437216       -0.51037480992976        3.05964465230304
C            2.39396433127178        0.76593886728964        2.67033752588583
C            1.67605536720132        1.61494697037605        1.82599856847420
C           -3.16949819983044       -1.91673834563150        2.36261945057474
C           -3.63708382828738       -3.22369442890127        2.75511610565801
C           -2.68770752979929       -4.18434972747403        2.98238178866279
C           -1.35484414355334       -3.86526233308205        3.04950283078439
O           -4.00636376056103       -0.85002339465347        2.08356026121601
O           -3.24361058762824       -1.76243477683977       -0.39371590300783
C           -3.91155178423269        2.54640201714721       -2.54980774887824
C           -3.07347768817911       -5.50319382040181        3.47055201870548
H           -1.62853467180850        3.01230778005181       -1.22090865456902
H           -4.61061604075940        0.11140838318931       -1.85988829380654
H            1.89234271865329        2.60299774884335        1.79852362146880
H            2.84190227922137       -1.01647198956938        3.60767760666346
H           -0.74545825546617       -4.60673163603721        3.44185814624438
H           -4.69819133469360       -3.63555967769399        2.74776502932453
O           -4.04612887934943        3.64276746501724       -2.00143645173928
O           -4.39125196026031        2.13863290265692       -3.78096151043679
C           -5.26040492739243        3.19398922808739       -4.29962534003104
C            3.79627063175607        1.05218926503662        3.14510009667401
O            4.43585512507424        0.37793707625970        3.92107685953661
O            4.38021062163611        2.08312522629259        2.55004770484823
C            5.57882759682185        2.65907607835925        3.02846812187794
O           -4.28218642537437       -5.82145956510573        3.64818903284026
O           -1.94632803994590       -6.24550705824093        3.86018214243573
C           -2.20896859541006       -7.10222343201252        4.97850180316062
C           -5.35712288091960       -1.13245626783557        2.23115381312518
C           -2.35205368100987       -2.62831916623854       -1.04495827447951
H           -2.63255504352990       -8.05617956033317        4.59788595164309
H           -2.90316021946864       -6.53916986129516        5.57733043712593
H           -1.31326725180696       -7.29917983572043        5.44900254528317
H            6.15987500109885        1.90651868933276        3.43144207127230
H            5.19080882627010        3.39015625151117        3.70045190430114
H            6.07543681283554        3.15546270091036        2.22814759191421
H           -2.31769190223468       -3.47776339610040       -0.39198202005611
H           -1.48296117180483       -2.06310944398717       -1.23511001588499
H           -2.90543086058439       -2.89992298708538       -2.06556797554620
H           -5.47063314273462       -2.15880914351368        1.81765253562772
H           -5.96772743309849       -0.58989765678557        1.54511766994394
H           -5.72517908541534       -0.90049645555174        3.28486804750447
H           -5.87274743434777        3.56354087210168       -3.58201313726750
H           -5.77699495664864        2.68238836179960       -5.04069586208249
H           -4.69454373323719        3.98054287094368       -4.78901234788636
C           -1.21739495107130        4.33524320425853        3.41077087397131
C           -1.42010729774531        3.05495480633491        3.85316247144520
C           -0.57281244519812        2.42337233426580        4.83722110455100
C            0.66936466230099        3.03520504910229        5.20882412765363
C            0.85496519678181        4.34064099297412        4.63284473394454
C           -0.03709853935880        4.96941220195706        3.72900154743071
C           -0.75405092049828        1.01467856106671        5.22437030633002
C            0.39978728790136        0.34818800581181        5.61497109204881
C            1.59632291880655        1.13463164547406        6.01573183306133
N            1.67809888150699        2.43155790019758        5.80075039038249
C           -1.99937141548274        0.36761695668733        5.40525163759020
C           -1.88310457814722       -1.05451030329498        5.63065048543601
N           -0.79442470084405       -1.77283864860311        5.72361348109433
C            0.29474315679724       -1.02539395224749        5.95695989474504
C            1.27876832555999       -1.53283434616356        6.84810467831625
C            2.45360096874949       -0.81394114318465        7.23996345737957
C            2.57203703736061        0.52557455026426        6.85936884780096
C           -3.25527712840813        1.00822805007569        5.64385845981688
C           -4.35948623601367        0.12844369146524        5.76151930760516
C           -4.29078961696899       -1.25956589555421        5.71996788404112
C           -3.03455941956744       -1.86881164959351        5.76341551277521
O           -3.33572196541218        2.42689440638939        5.76790206914991
O           -2.28360747042676        2.19789030649934        3.25214566831954
C            0.45123984843056        6.30288529501936        3.21214242167566
C           -5.50701744576103       -2.14379650877735        5.68805168569345
H            1.81707689179842        4.81772688383233        4.70515191262860
H           -1.81318463960547        4.74846633336282        2.70786852446917
H            3.45232008280054        1.04339677995301        7.18600843206650
H            1.20114257581355       -2.56817147761583        7.19443420972342
H           -2.84310508810304       -2.92814886530297        5.61000231291210
H           -5.26032685071983        0.63127617611395        5.62841251941324
O            1.61046846188616        6.60915392951010        3.48417433287477
O           -0.36255449477186        7.04766669265251        2.43221762227586
C            0.29003106964263        8.08822724944938        1.91442811482827
C            3.48028407287852       -1.57719142990860        8.16061901626660
O            3.17984692795282       -2.68453529087379        8.57318960410958
O            4.65757822246328       -0.88312300038536        8.36728191380633
C            5.52820067604890       -1.79279002246456        8.98061314377143
O           -6.51037784234815       -1.79452146222418        5.06197023644556
O           -5.39415918966271       -3.29275148377493        6.42088753267905
C           -6.45745312512819       -4.18652541381178        6.15052916605698
C           -4.47471100083811        3.02317796146522        6.42728253063099
C           -3.39957266576721        2.84812282823804        2.70727784120676
H           -6.72558186358144       -4.19666976071032        5.03665952275611
H           -7.28036334731655       -4.07092688407509        6.89160809510343
H           -6.05245795976541       -5.12714058640016        6.21654057443722
H            6.19331845683727       -1.17923255957593        9.55613889013907
H            6.12424548558310       -2.39976281979103        8.25346987295764
H            4.99738389294851       -2.44591210407381        9.64458619703033
H           -3.84823183231004        3.47212756625806        3.55499671858448
H           -4.11945248937704        2.16403425832134        2.13049701785171
H           -3.05808196365764        3.50151650056556        1.93229689400314
H           -4.22422812102343        2.99881773880704        7.52428662985259
H           -5.46802947752502        2.61902123869594        6.07722234166571
H           -4.35131265227183        4.00925744419512        6.04171776506132
H            1.05510304035891        8.52630155070983        2.56865693974802
H           -0.43559493205418        8.88425379816166        1.78125144226047
H            0.80654067195954        7.77797737832394        1.05497021779729
116
 energy: -22.900498761532 gnorm: 0.341324739750 xtb: 6.6.1 (8d0f1dd)
C           -3.42452370818486        0.29983792442804       -1.65160058303009
C           -2.72690104681605       -0.41121389161955       -0.69019358055806
C           -1.66519429646314        0.15951643750889        0.19005993783326
C           -1.22294337595087        1.49356725876948       -0.08742656003605
C           -1.98199574669210        2.15711755152503       -1.06753772504532
C           -3.12912253755336        1.64579668855069       -1.79629920525719
C           -1.18799075812608       -0.52221320114466        1.34422083701074
C            0.09291471503752       -0.11591841950421        1.78751069124876
C            0.60011496154384        1.14438525811917        1.32836104524441
N           -0.06603776817499        1.97876794694171        0.49889296631124
C           -1.85182290966796       -1.57414945247069        2.11475689407936
C           -0.92633244295423       -2.35497934731830        2.79622422245346
N            0.35541762061140       -2.12707811784434        3.15644167916023
C            0.82332497786167       -0.86338841648168        2.82317099824466
C            1.97306179029261       -0.25660108293173        3.36698567139742
C            2.43529165685385        0.95889614822597        2.89769452825794
C            1.79760872795922        1.71074476064019        1.93686571582505
C           -3.30202448767064       -1.85145255640748        2.16542589911008
C           -3.69904601782150       -3.03327871147553        2.68238975861714
C           -2.81618629567730       -3.83779168990925        3.36140765390724
C           -1.47524286818510       -3.48551576315901        3.51324601970878
O           -4.07471549289194       -0.78381661588288        1.69813626646252
O           -2.88728044073978       -1.78228756483759       -0.67055429932717
C           -4.02482758302748        2.44703985981873       -2.72433198330451
C           -3.24733174644758       -5.11767501132937        4.00768608205443
H           -1.60156607778525        3.14508541953977       -1.31844358308205
H           -4.16168910681201       -0.11640711090042       -2.29663008150942
H            2.29761036186072        2.54701451793320        1.51005172259773
H            2.50508511638776       -0.72499118910297        4.18999820867867
H           -0.96372284522388       -4.18836616865314        4.14857576932433
H           -4.74484395035157       -3.33103562295962        2.55455740960546
O           -3.63305828064776        3.58742935667414       -2.75374617405136