      -----------------------------------------------------------      
     |                   =====================                   |     
     |                           x T B                           |     
     |                   =====================                   |     
     |                         S. Grimme                         |     
     |          Mulliken Center for Theoretical Chemistry        |     
     |                    University of Bonn                     |     
      -----------------------------------------------------------      

   * xtb version 6.6.1 (8d0f1dd) compiled by 'runner@Mac-1690902418499.local' on 2023-08-01

   xtb is free software: you can redistribute it and/or modify it under
   the terms of the GNU Lesser General Public License as published by
   the Free Software Foundation, either version 3 of the License, or
   (at your option) any later version.
   
   xtb is distributed in the hope that it will be useful,
   but WITHOUT ANY WARRANTY; without even the implied warranty of
   MERCHANTABILITY or FITNESS FOR A PARTICULAR PURPOSE.  See the
   GNU Lesser General Public License for more details.
   
   Cite this work as:
   * C. Bannwarth, E. Caldeweyher, S. Ehlert, A. Hansen, P. Pracht,
     J. Seibert, S. Spicher, S. Grimme, WIREs Comput. Mol. Sci., 2020, 11,
     e01493. DOI: 10.1002/wcms.1493
   
   for GFN2-xTB:
   * C. Bannwarth, S. Ehlert and S. Grimme., J. Chem. Theory Comput., 2019,
     15, 1652-1671. DOI: 10.1021/acs.jctc.8b01176
   for GFN1-xTB:
   * S. Grimme, C. Bannwarth, P. Shushkov, J. Chem. Theory Comput., 2017,
     13, 1989-2009. DOI: 10.1021/acs.jctc.7b00118
   for GFN0-xTB:
   * P. Pracht, E. Caldeweyher, S. Ehlert, S. Grimme, ChemRxiv, 2019, preprint.
     DOI: 10.26434/chemrxiv.8326202.v1
   for GFN-FF:
   * S. Spicher and S. Grimme, Angew. Chem. Int. Ed., 2020, 59, 15665-15673.
     DOI: 10.1002/anie.202004239
   
   for ALPB and GBSA implicit solvation:
   * S. Ehlert, M. Stahn, S. Spicher, S. Grimme, J. Chem. Theory Comput.,
     2021, 17, 4250-4261. DOI: 10.1021/acs.jctc.1c00471
   
   for DFT-D4:
   * E. Caldeweyher, C. Bannwarth and S. Grimme, J. Chem. Phys., 2017,
     147, 034112. DOI: 10.1063/1.4993215
   * E. Caldeweyher, S. Ehlert, A. Hansen, H. Neugebauer, S. Spicher,
     C. Bannwarth and S. Grimme, J. Chem. Phys., 2019, 150, 154122.
     DOI: 10.1063/1.5090222
   * E. Caldeweyher, J.-M. Mewes, S. Ehlert and S. Grimme, Phys. Chem. Chem. Phys.
     2020, 22, 8499-8512. DOI: 10.1039/D0CP00502A
   
   for sTDA-xTB:
   * S. Grimme and C. Bannwarth, J. Chem. Phys., 2016, 145, 054103.
     DOI: 10.1063/1.4959605
   
   in the mass-spec context:
   * V. Asgeirsson, C. Bauer and S. Grimme, Chem. Sci., 2017, 8, 4879.
     DOI: 10.1039/c7sc00601b
   * J. Koopman and S. Grimme, ACS Omega 2019, 4, 12, 15120-15133.
     DOI: 10.1021/acsomega.9b02011
   
   for metadynamics refer to:
   * S. Grimme, J. Chem. Theory Comput., 2019, 155, 2847-2862
     DOI: 10.1021/acs.jctc.9b00143
   
   for SPH calculations refer to:
   * S. Spicher and S. Grimme, J. Chem. Theory Comput., 2021, 17, 1701-1714
     DOI: 10.1021/acs.jctc.0c01306
   
   with help from (in alphabetical order)
   P. Atkinson, C. Bannwarth, F. Bohle, G. Brandenburg, E. Caldeweyher
   M. Checinski, S. Dohm, S. Ehlert, S. Ehrlich, I. Gerasimov, C. Hölzer
   A. Katbashev, J. Koopman, C. Lavigne, S. Lehtola, F. März, M. Müller,
   F. Musil, H. Neugebauer, J. Pisarek, C. Plett, P. Pracht, F. Pultar,
   J. Seibert, P. Shushkov, S. Spicher, M. Stahn, M. Steiner, T. Strunk,
   J. Stückrath, T. Rose, and J. Unsleber
   
 * started run on 2025/03/14 at 13:06:11.401     

           -------------------------------------------------
          |                Calculation Setup                |
           -------------------------------------------------

          program call               : xtb scoord.19 --md --gfnff --input md_settings.inp
          coordinate file            : scoord.19
          omp threads                :                     8

   ID    Z sym.   atoms
    1    6 C      1-9, 11, 12, 14-21, 24, 25, 34, 35, 38, 41-43, 59-67, 69,
                  70, 72-79, 82, 83, 92, 93, 96, 99-101
    2    7 N      10, 13, 68, 71
    3    8 O      22, 23, 32, 33, 36, 37, 39, 40, 80, 81, 90, 91, 94, 95, 97,
                  98
    4    1 H      26-31, 44-58, 84-89, 102-116

molecular fragmentation (1/2 indicates fragments):
111111111111111111111111111111111111111111111111111111111122222222222222
22222222222222222222222222222222222222222222
# atoms in fragment 1/2:    58    58
 fragment masses (1/2) :      501.47      501.47
CMA distance (Bohr)    :   9.012
constraining FC (au)   :  0.0500

          ==================== Thresholds ====================
          CN  :   150.00000
          rep :   500.00000
          disp:  2500.00000
          HB1 :   250.00000
          HB2 :   450.00000

          Pauling EN used:
          Z : 1  EN :  2.20
          Z : 6  EN :  2.55
          Z : 7  EN :  3.04
          Z : 8  EN :  3.44
          electric field strengths (au): 0.000

           ------------------------------------------------- 
          |           Force Field Initialization            |
           ------------------------------------------------- 

          distances ...
          ----------------------------------------
          generating topology and atomic info file ...
          pair mat ...
          computing topology distances matrix with Floyd-Warshall algo ...
          making topology EEQ charges ...
          #fragments for EEQ constrain: 2
          ----------------------------------------
          generating topology and atomic info file ...
          pair mat ...
          computing topology distances matrix with Floyd-Warshall algo ...
          making topology EEQ charges ...
          rings ...
          # BATM   1140
          # H in HB   42
          doing iterative Hueckel for 2 subsystem(s) ...

  atom   neighbors  erfCN metchar sp-hybrid imet pi  qest     coordinates
    1  C       3    2.82   0.00         2    0    1  -0.013   -3.465679    0.070115   -0.318581
    2  C       3    2.81   0.00         2    0    1   0.104   -3.320905    2.195924    1.261203
    3  C       3    2.83   0.00         2    0    1   0.014   -1.231423    2.480376    2.980367
    4  C       3    2.87   0.00         2    0    1   0.068    0.508274    0.574596    3.287695
    5  C       3    2.83   0.00         2    0    1  -0.010    0.344849   -1.430987    1.429603
    6  C       3    2.80   0.00         2    0    1   0.024   -1.522120   -1.807086   -0.314434
    7  C       3    2.83   0.00         2    0    1   0.003   -1.006100    4.611983    4.707810
    8  C       3    2.85   0.00         2    0    1   0.018    0.111229    4.110663    6.984264
    9  C       3    2.87   0.00         2    0    1   0.069    1.732455    1.928568    7.162253
   10  N       2    1.95   0.00         2    0    1  -0.182    2.185323    0.463017    5.161298
   11  C       3    2.83   0.00         2    0    1   0.014   -2.210976    6.990048    4.442505
   12  C       3    2.83   0.00         2    0    1   0.068   -2.994713    8.207160    6.733629
   13  N       2    1.93   0.00         2    0    1  -0.182   -2.374417    7.389901    9.110747
   14  C       3    2.82   0.00         2    0    1   0.069   -0.357249    5.584810    9.227688
   15  C       3    2.81   0.00         2    0    1  -0.009    1.253416    5.294929   11.336231
   16  C       3    2.80   0.00         2    0    1   0.024    3.056933    3.380647   11.434280
   17  C       3    2.84   0.00         2    0    1  -0.009    3.154279    1.785894    9.333559
   18  C       3    2.80   0.00         2    0    1   0.104   -2.202910    8.458490    2.164386
   19  C       3    2.81   0.00         2    0    1  -0.013   -3.707563   10.498989    1.898144
   20  C       3    2.81   0.00         2    0    1   0.024   -4.893790   11.595806    4.083268
   21  C       3    2.82   0.00         2    0    1  -0.010   -4.375331   10.447048    6.414905
   22  O       2    1.90   0.00         3    0    1  -0.326   -0.570911    7.893128    0.044330
   23  O       2    1.91   0.00         3    0    1  -0.326   -5.262434    4.050171    1.458935
   24  C       3    2.89   0.00         2    0    1   0.224   -1.425611   -3.856436   -2.208820
   25  C       3    2.84   0.00         2    0    1   0.224   -6.910323   13.418085    3.784964
   26  H       1    0.96   0.01         0    0    0   0.083    2.092569   -2.629663    1.086252
   27  H       1    0.98   0.00         0    0    0   0.084   -4.738130   -0.078115   -1.895059
   28  H       1    0.97   0.00         0    0    0   0.084    4.486196    0.248051    9.517560
   29  H       1    0.97   0.01         0    0    0   0.084    0.520857    6.352270   12.970559
   30  H       1    0.97   0.01         0    0    0   0.083   -5.114681   11.399594    8.135094
   31  H       1    0.98   0.00         0    0    0   0.084   -3.968825   11.614886    0.302346
   32  O       1    0.98   0.00         2    0    1  -0.364   -3.334202   -4.165255   -3.488074
   33  O       2    1.92   0.00         3    0    1  -0.315    0.714218   -5.200174   -2.190157
   34  C       4    3.55   0.00         3    0    0   0.037    0.348078   -7.330514   -3.767793
   35  C       3    2.86   0.00         2    0    1   0.223    4.571313    2.645261   13.666378
   36  O       1    0.98   0.00         2    0    1  -0.365    6.140632    1.048649   13.486210
   37  O       2    1.92   0.00         3    0    1  -0.315    4.028945    3.720326   15.886158
   38  C       4    3.53   0.00         3    0    0   0.039    5.169269    2.420019   17.904790
   39  O       1    0.98   0.00         2    0    1  -0.364   -8.424275   13.826271    5.405012
   40  O       2    1.92   0.00         3    0    1  -0.315   -6.753364   14.466149    1.345374
   41  C       4    3.51   0.00         3    0    0   0.037   -8.117066   16.658684    1.145384
   42  C       4    3.48   0.00         3    0    0   0.033   -0.527998    9.670999   -2.067785
   43  C       4    3.50   0.00         3    0    0   0.033   -6.969963    4.187135   -0.558919
   44  H       1    0.97   0.01         0    0    0   0.079   -8.819465   17.086223   -0.759977
   45  H       1    0.96   0.01         0    0    0   0.079   -7.067136   18.431518    1.767430
   46  H       1    0.97   0.00         0    0    0   0.079   -9.736902   16.288911    2.379900
   47  H       1    0.97   0.00         0    0    0   0.078    4.933860    2.964608   19.892715
   48  H       1    0.97   0.01         0    0    0   0.078    7.259823    2.557555   17.564453
   49  H       1    0.98   0.00         0    0    0   0.078    4.806320    0.466906   17.741748
   50  H       1    0.97   0.00         0    0    0   0.076   -5.921127    5.271416   -1.922026
   51  H       1    0.97   0.00         0    0    0   0.076   -8.668592    5.080451    0.170550
   52  H       1    0.98   0.00         0    0    0   0.076   -7.413935    2.398754   -1.214695
   53  H       1    0.98   0.00         0    0    0   0.076    1.212573    9.742784   -3.108379
   54  H       1    0.97   0.00         0    0    0   0.076   -0.684511   11.566090   -1.293204
   55  H       1    0.97   0.00         0    0    0   0.076   -2.228720    9.040075   -3.050920
   56  H       1    0.97   0.00         0    0    0   0.079    0.826872   -6.762309   -5.699518
   57  H       1    0.97   0.00         0    0    0   0.079   -1.560997   -8.114950   -3.611881
   58  H       1    0.97   0.00         0    0    0   0.079    1.690839   -8.859677   -3.473179
   59  C       3    2.82   0.00         2    0    1  -0.013   -0.489598   -8.446160    4.144402
   60  C       3    2.80   0.00         2    0    1   0.104   -0.612482   -6.461488    6.064673
   61  C       3    2.83   0.00         2    0    1   0.014   -2.900385   -5.116293    6.156952
   62  C       3    2.82   0.00         2    0    1   0.068   -4.609040   -5.209693    4.096854
   63  C       3    2.84   0.00         2    0    1  -0.010   -4.296695   -7.116452    2.261326
   64  C       3    2.81   0.00         2    0    1   0.024   -2.401484   -8.858464    2.395873
   65  C       3    2.82   0.00         2    0    1   0.003   -3.292231   -3.397469    8.230018
   66  C       3    2.84   0.00         2    0    1   0.018   -5.169030   -1.493116    7.665898
   67  C       3    2.82   0.00         2    0    1   0.069   -6.565071   -1.312992    5.415093
   68  N       2    1.96   0.00         2    0    1  -0.182   -6.375065   -3.344857    3.896696
   69  C       3    2.82   0.00         2    0    1   0.014   -2.037201   -3.336515   10.551783
   70  C       3    2.83   0.00         2    0    1   0.068   -2.222503   -1.096820   12.085860
   71  N       2    1.95   0.00         2    0    1  -0.182   -3.648489    0.945913   11.385475
   72  C       3    2.83   0.00         2    0    1   0.069   -5.236309    0.684703    9.339671
   73  C       3    2.82   0.00         2    0    1  -0.009   -6.704896    2.785079    8.793105
   74  C       3    2.81   0.00         2    0    1   0.024   -8.161464    2.850875    6.489963
   75  C       3    2.82   0.00         2    0    1  -0.009   -8.125865    0.780855    4.991294
   76  C       3    2.82   0.00         2    0    1   0.104   -1.129787   -5.653749   11.727031
   77  C       3    2.81   0.00         2    0    1  -0.013    0.296781   -5.582436   13.898410
   78  C       3    2.83   0.00         2    0    1   0.024    0.490513   -3.262978   15.094167
   79  C       3    2.83   0.00         2    0    1  -0.010   -0.819680   -1.150150   14.296524
   80  O       2    1.91   0.00         3    0    1  -0.326   -1.769143   -8.179275   10.812970
   81  O       2    1.91   0.00         3    0    1  -0.326    1.493105   -5.551434    7.570859
   82  C       3    2.86   0.00         2    0    1   0.224   -2.346737  -10.772770    0.475191
   83  C       3    2.88   0.00         2    0    1   0.224    1.903163   -3.123618   17.431729
   84  H       1    0.97   0.00         0    0    0   0.083   -5.648554   -7.133291    0.711378
   85  H       1    0.98   0.00         0    0    0   0.084    1.075480   -9.660004    4.353317
   86  H       1    0.98   0.00         0    0    0   0.084   -9.049558    0.508207    3.285031
   87  H       1    0.98   0.00         0    0    0   0.084   -6.616883    4.279437   10.134560
   88  H       1    0.97   0.00         0    0    0   0.083   -0.925140    0.494674   15.509696
   89  H       1    0.97   0.01         0    0    0   0.084    1.600824   -7.010644   14.720272
   90  O       1    0.98   0.00         2    0    1  -0.364   -0.479760  -12.165454    0.263181
   91  O       2    1.92   0.00         3    0    1  -0.315   -4.365276  -10.861255   -1.033208
   92  C       4    3.53   0.00         3    0    0   0.037   -4.247567  -12.900724   -2.749119
   93  C       3    2.90   0.00         2    0    1   0.223   -9.625041    5.178200    5.851441
   94  O       1    0.98   0.00         2    0    1  -0.365  -10.856442    5.280888    3.894804
   95  O       2    1.92   0.00         3    0    1  -0.315   -9.648943    7.097718    7.564428
   96  C       4    3.56   0.00         3    0    0   0.039  -11.213410    8.926563    6.778976
   97  O       1    0.98   0.00         2    0    1  -0.364    1.594139   -1.160953   18.706723
   98  O       2    1.92   0.00         3    0    1  -0.315    3.589932   -4.953515   18.049715
   99  C       4    3.53   0.00         3    0    0   0.037    4.546520   -4.677638   20.379904
  100  C       4    3.49   0.00         3    0    0   0.033   -2.355734  -10.079351   12.624903
  101  C       4    3.49   0.00         3    0    0   0.033    3.600188   -7.081417    7.949539
  102  H       1    0.96   0.01         0    0    0   0.079    4.574408   -6.650076   21.253130
  103  H       1    0.97   0.00         0    0    0   0.079    3.431995   -3.401915   21.523849
  104  H       1    0.96   0.01         0    0    0   0.079    6.575316   -4.103418   19.925235
  105  H       1    0.97   0.00         0    0    0   0.078  -10.497815    9.598161    4.992970
  106  H       1    0.96   0.01         0    0    0   0.078  -11.186944   10.477828    8.278939
  107  H       1    0.97   0.01         0    0    0   0.078  -13.142467    8.093172    6.658786
  108  H       1    0.97   0.00         0    0    0   0.076    5.283336   -5.973713    8.251716
  109  H       1    0.97   0.00         0    0    0   0.076    4.195758   -8.307875    6.427220
  110  H       1    0.97   0.01         0    0    0   0.076    3.239579   -8.144945    9.735327
  111  H       1    0.97   0.00         0    0    0   0.076   -3.948438   -9.508499   13.764522
  112  H       1    0.98   0.00         0    0    0   0.076   -0.940795  -10.569151   13.959072
  113  H       1    0.97   0.01         0    0    0   0.076   -2.749323  -11.848715   11.560619
  114  H       1    0.97   0.00         0    0    0   0.079   -2.656719  -12.411142   -3.937157
  115  H       1    0.98   0.00         0    0    0   0.079   -6.038333  -12.725614   -3.664951
  116  H       1    0.97   0.01         0    0    0   0.079   -4.126497  -14.723784   -1.735261

          #atoms :   116
          #bonds :   124
          #angl  :   206
          #tors  :   302
          #nmol  :   2
          #optfrag :   2
           ------------------------------------------------- 
          |                   G F N - F F                   |
          |          A general generic force-field          |
          |                  Version 1.0.3                  | 
           ------------------------------------------------- 
          Number of HB bonds (bound hydrogen)     17975
          Number of HB bonds (unbound hydrogen)   509
          Number of XB bonds                      0

 E+G (total)                   0 d,  0 h,  0 min,  0.002 sec
 distance/D3 list               ...        0 min,  0.000 sec (  0.458%)
 non bonded repulsion           ...        0 min,  0.000 sec (  4.493%)
 dCN                            ...        0 min,  0.000 sec (  5.584%)
 EEQ energy and q               ...        0 min,  0.000 sec ( 11.812%)
 D3                             ...        0 min,  0.000 sec ( 15.596%)
 EEQ gradient                   ...        0 min,  0.000 sec (  2.378%)
 bonds                          ...        0 min,  0.000 sec (  4.897%)
 bend and torsion               ...        0 min,  0.000 sec (  3.468%)
 bonded ATM                     ...        0 min,  0.000 sec (  1.832%)
 HB/XB (incl list setup)        ...        0 min,  0.001 sec ( 48.991%)

         :::::::::::::::::::::::::::::::::::::::::::::::::::::
         ::                     SUMMARY                     ::
         :::::::::::::::::::::::::::::::::::::::::::::::::::::
         :: total energy             -22.934392681633 Eh    ::
         :: gradient norm              0.351333096736 Eh/a0 ::
         ::.................................................::
         :: bond energy              -23.576936426611 Eh    ::
         :: angle energy               0.117102621980 Eh    ::
         :: torsion energy             0.068394989204 Eh    ::
         :: repulsion energy           1.602136863451 Eh    ::
         :: electrostat energy        -0.953614026080 Eh    ::
         :: dispersion energy         -0.155865562286 Eh    ::
         :: HB energy                 -0.006680673382 Eh    ::
         :: XB energy                  0.000000000000 Eh    ::
         :: bonded atm energy         -0.028930467907 Eh    ::
         :: external energy            0.000000000000 Eh    ::
         :: add. restraining           0.000000000000 Eh    ::
         :: total charge              -0.000000000000 e     ::
         :::::::::::::::::::::::::::::::::::::::::::::::::::::

           -------------------------------------------------
          |                Property Printout                |
           -------------------------------------------------

           -------------------------------------------------
          | TOTAL ENERGY              -22.934392681633 Eh   |
          | GRADIENT NORM               0.351333096736 Eh/α |
           -------------------------------------------------
           ------------------------------------------------- 
          |               Molecular Dynamics                |
           ------------------------------------------------- 
 trajectories on xtb.trj or xtb.trj.<n>

 MD time /ps        :   20.00
 dt /fs             :    2.00
 SCC accuracy       :    2.00
 temperature /K     :  337.00
 max steps          : 10000
 block length (av.) :  2500
 dumpstep(trj) /fs  :  500.00   250
 dumpstep(coords)/fs: 1000.00   500
 H atoms mass (amu) :     4
 # deg. of freedom  :   348
 SHAKE off
 Berendsen THERMOSTAT on
         time (ps)    <Epot>      Ekin   <T>   T     Etot
      0    0.00      0.00000   0.3874    0.    0.   -22.54699
est. speed in wall clock h for 100 ps :  0.02
    200    0.40    -22.72735   0.2533  467.  460.   -22.60962
    400    0.80    -22.79493   0.2110  445.  383.   -22.66164
    600    1.20    -22.82543   0.2210  431.  401.   -22.68364
    800    1.60    -22.84371   0.2248  419.  408.   -22.68907
   1000    2.00    -22.85558   0.1989  407.  361.   -22.70545
   1200    2.40    -22.86457   0.2034  399.  369.   -22.72396
   1400    2.80    -22.87120   0.1874  391.  340.   -22.73601
   1600    3.20    -22.87623   0.1953  385.  354.   -22.71124
   1800    3.60    -22.88065   0.1828  381.  332.   -22.73145
   2000    4.00    -22.88412   0.1878  377.  341.   -22.71963
   2200    4.40    -22.88716   0.1822  373.  331.   -22.73814
   2400    4.80    -22.88966   0.2043  370.  371.   -22.74320
block <Epot> / <T> :     -22.89999  369.     drift:  0.99D+02   Tbath : 337.
   2600    5.20    -22.89177   0.2010  368.  365.   -22.72935
   2800    5.60    -22.89368   0.1876  366.  340.   -22.73619
   3000    6.00    -22.89515   0.1942  364.  352.   -22.72676
   3200    6.40    -22.89655   0.1960  362.  356.   -22.72077
   3400    6.80    -22.89764   0.1763  360.  320.   -22.74320
   3600    7.20    -22.89864   0.1879  359.  341.   -22.72526
   3800    7.60    -22.89973   0.1945  358.  353.   -22.72626
   4000    8.00    -22.90073   0.1918  357.  348.   -22.73799
   4200    8.40    -22.90169   0.1697  356.  308.   -22.73434
   4400    8.80    -22.90260   0.2004  356.  364.   -22.72565
   4600    9.20    -22.90346   0.1938  355.  352.   -22.74114
   4800    9.60    -22.90416   0.1972  354.  358.   -22.74029
   5000   10.00    -22.90485   0.1801  353.  327.   -22.74077
block <Epot> / <T> :     -22.91887  338.     drift:  0.99D+02   Tbath : 337.
   5200   10.40    -22.90541   0.1915  353.  347.   -22.73938
   5400   10.80    -22.90596   0.1698  352.  308.   -22.73568
   5600   11.20    -22.90641   0.1912  352.  347.   -22.73238
   5800   11.60    -22.90680   0.1665  351.  302.   -22.73917
   6000   12.00    -22.90717   0.1743  350.  316.   -22.73690
   6200   12.40    -22.90749   0.1757  350.  319.   -22.73839
   6400   12.80    -22.90782   0.1667  350.  303.   -22.74264
   6600   13.20    -22.90813   0.1734  349.  315.   -22.73803
   6800   13.60    -22.90836   0.1781  349.  323.   -22.72898
   7000   14.00    -22.90857   0.2047  348.  371.   -22.72739
   7200   14.40    -22.90878   0.1830  348.  332.   -22.72933
   7400   14.80    -22.90900   0.1836  348.  333.   -22.74937
block <Epot> / <T> :     -22.91756  336.     drift:  0.99D+02   Tbath : 337.
   7600   15.20    -22.90917   0.1913  348.  347.   -22.73704
   7800   15.60    -22.90942   0.1921  347.  349.   -22.72064
   8000   16.00    -22.90963   0.1731  347.  314.   -22.74034
   8200   16.40    -22.90985   0.1693  347.  307.   -22.72864
   8400   16.80    -22.91004   0.1912  347.  347.   -22.73293
   8600   17.20    -22.91021   0.1839  346.  334.   -22.72886
   8800   17.60    -22.91046   0.1749  346.  317.   -22.72951
   9000   18.00    -22.91071   0.1875  346.  340.   -22.74603
   9200   18.40    -22.91092   0.1661  346.  302.   -22.73345
   9400   18.80    -22.91103   0.1931  346.  350.   -22.73291
   9600   19.20    -22.91108   0.1723  345.  313.   -22.73600
   9800   19.60    -22.91119   0.1735  345.  315.   -22.73305
 average properties 
 Epot               :  -22.911270437836578     
 Epot (accurate SCC):  -22.913598078312010     
 Ekin               :  0.19008932140196644     
 Etot               :  -22.721181116434611     
 T                  :   344.97423424342867     
 thermostating problem
 normal exit of md()
########################################################################
[WARNING] Runtime exception occurred
-1- gfnff_setup: Could not read topology file.
########################################################################
Note: The following floating-point exceptions are signalling: IEEE_UNDERFLOW_FLAG
normal termination of xtb

------------------------------------------------------------------------
 * finished run on 2025/03/14 at 13:06:27.368     
------------------------------------------------------------------------
 total:
 * wall-time:     0 d,  0 h,  0 min, 15.966 sec
 *  cpu-time:     0 d,  0 h,  0 min, 31.528 sec
 * ratio c/w:     1.975 speedup
 SCF:
 * wall-time:     0 d,  0 h,  0 min,  0.003 sec
 *  cpu-time:     0 d,  0 h,  0 min,  0.005 sec
 * ratio c/w:     1.859 speedup
 MD:
 * wall-time:     0 d,  0 h,  0 min, 15.948 sec
 *  cpu-time:     0 d,  0 h,  0 min, 31.512 sec
 * ratio c/w:     1.976 speedup

