      -----------------------------------------------------------      
     |                   =====================                   |     
     |                           x T B                           |     
     |                   =====================                   |     
     |                         S. Grimme                         |     
     |          Mulliken Center for Theoretical Chemistry        |     
     |                    University of Bonn                     |     
      -----------------------------------------------------------      

   * xtb version 6.6.1 (8d0f1dd) compiled by 'runner@Mac-1690902418499.local' on 2023-08-01

   xtb is free software: you can redistribute it and/or modify it under
   the terms of the GNU Lesser General Public License as published by
   the Free Software Foundation, either version 3 of the License, or
   (at your option) any later version.
   
   xtb is distributed in the hope that it will be useful,
   but WITHOUT ANY WARRANTY; without even the implied warranty of
   MERCHANTABILITY or FITNESS FOR A PARTICULAR PURPOSE.  See the
   GNU Lesser General Public License for more details.
   
   Cite this work as:
   * C. Bannwarth, E. Caldeweyher, S. Ehlert, A. Hansen, P. Pracht,
     J. Seibert, S. Spicher, S. Grimme, WIREs Comput. Mol. Sci., 2020, 11,
     e01493. DOI: 10.1002/wcms.1493
   
   for GFN2-xTB:
   * C. Bannwarth, S. Ehlert and S. Grimme., J. Chem. Theory Comput., 2019,
     15, 1652-1671. DOI: 10.1021/acs.jctc.8b01176
   for GFN1-xTB:
   * S. Grimme, C. Bannwarth, P. Shushkov, J. Chem. Theory Comput., 2017,
     13, 1989-2009. DOI: 10.1021/acs.jctc.7b00118
   for GFN0-xTB:
   * P. Pracht, E. Caldeweyher, S. Ehlert, S. Grimme, ChemRxiv, 2019, preprint.
     DOI: 10.26434/chemrxiv.8326202.v1
   for GFN-FF:
   * S. Spicher and S. Grimme, Angew. Chem. Int. Ed., 2020, 59, 15665-15673.
     DOI: 10.1002/anie.202004239
   
   for ALPB and GBSA implicit solvation:
   * S. Ehlert, M. Stahn, S. Spicher, S. Grimme, J. Chem. Theory Comput.,
     2021, 17, 4250-4261. DOI: 10.1021/acs.jctc.1c00471
   
   for DFT-D4:
   * E. Caldeweyher, C. Bannwarth and S. Grimme, J. Chem. Phys., 2017,
     147, 034112. DOI: 10.1063/1.4993215
   * E. Caldeweyher, S. Ehlert, A. Hansen, H. Neugebauer, S. Spicher,
     C. Bannwarth and S. Grimme, J. Chem. Phys., 2019, 150, 154122.
     DOI: 10.1063/1.5090222
   * E. Caldeweyher, J.-M. Mewes, S. Ehlert and S. Grimme, Phys. Chem. Chem. Phys.
     2020, 22, 8499-8512. DOI: 10.1039/D0CP00502A
   
   for sTDA-xTB:
   * S. Grimme and C. Bannwarth, J. Chem. Phys., 2016, 145, 054103.
     DOI: 10.1063/1.4959605
   
   in the mass-spec context:
   * V. Asgeirsson, C. Bauer and S. Grimme, Chem. Sci., 2017, 8, 4879.
     DOI: 10.1039/c7sc00601b
   * J. Koopman and S. Grimme, ACS Omega 2019, 4, 12, 15120-15133.
     DOI: 10.1021/acsomega.9b02011
   
   for metadynamics refer to:
   * S. Grimme, J. Chem. Theory Comput., 2019, 155, 2847-2862
     DOI: 10.1021/acs.jctc.9b00143
   
   for SPH calculations refer to:
   * S. Spicher and S. Grimme, J. Chem. Theory Comput., 2021, 17, 1701-1714
     DOI: 10.1021/acs.jctc.0c01306
   
   with help from (in alphabetical order)
   P. Atkinson, C. Bannwarth, F. Bohle, G. Brandenburg, E. Caldeweyher
   M. Checinski, S. Dohm, S. Ehlert, S. Ehrlich, I. Gerasimov, C. Hölzer
   A. Katbashev, J. Koopman, C. Lavigne, S. Lehtola, F. März, M. Müller,
   F. Musil, H. Neugebauer, J. Pisarek, C. Plett, P. Pracht, F. Pultar,
   J. Seibert, P. Shushkov, S. Spicher, M. Stahn, M. Steiner, T. Strunk,
   J. Stückrath, T. Rose, and J. Unsleber
   
 * started run on 2024/11/14 at 14:02:20.558     

           -------------------------------------------------
          |                Calculation Setup                |
           -------------------------------------------------

          program call               : xtb stacked_dimer_Verdazyl1.mol --opt --gfn2 --chrg -1 --uhf 1 --tight
          coordinate file            : stacked_dimer_Verdazyl1.mol
          omp threads                :                     8

   ID    Z sym.   atoms
    1    6 C      1-18, 27, 33, 37-48, 59-76, 85, 91, 95-106
    2    1 H      19-26, 28-30, 49-58, 77-84, 86-88, 107-116
    3    7 N      31, 32, 34, 35, 89, 90, 92, 93
    4    8 O      36, 94

molecular fragmentation (1/2 indicates fragments):
111111111111111111111111111111111111111111111111111111111122222222222222
22222222222222222222222222222222222222222222
# atoms in fragment 1/2:    58    58
 fragment masses (1/2) :      477.54      477.54
CMA distance (Bohr)    :   7.559
constraining FC (au)   :  0.0500
########################################################################
[WARNING] Please study the warnings concerning your input carefully
-1- prog_main_parseArguments: Unknown option '--tight' provided
########################################################################

           -------------------------------------------------
          |                 G F N 2 - x T B                 |
           -------------------------------------------------

        Reference                      10.1021/acs.jctc.8b01176
      * Hamiltonian:
        H0-scaling (s, p, d)           1.850000    2.230000    2.230000
        zeta-weighting                 0.500000
      * Dispersion:
        s8                             2.700000
        a1                             0.520000
        a2                             5.000000
        s9                             5.000000
      * Repulsion:
        kExp                           1.500000    1.000000
        rExp                           1.000000
      * Coulomb:
        alpha                          2.000000
        third order                    shell-resolved
        anisotropic                    true
        a3                             3.000000
        a5                             4.000000
        cn-shift                       1.200000
        cn-exp                         4.000000
        max-rad                        5.000000

q/qsh data taken from xtbrestart
CAMM data taken from xtbrestart

          ...................................................
          :                      SETUP                      :
          :.................................................:
          :  # basis functions                 338          :
          :  # atomic orbitals                 338          :
          :  # shells                          190          :
          :  # electrons                       351          :
          :  max. iterations                   250          :
          :  Hamiltonian                  GFN2-xTB          :
          :  restarted?                       true          :
          :  GBSA solvation                  false          :
          :  PC potential                    false          :
          :  electronic temp.          300.0000000     K    :
          :  accuracy                    1.0000000          :
          :  -> integral cutoff          0.2500000E+02      :
          :  -> integral neglect         0.1000000E-07      :
          :  -> SCF convergence          0.1000000E-05 Eh   :
          :  -> wf. convergence          0.1000000E-03 e    :
          :  Broyden damping             0.4000000          :
          ...................................................

 iter      E             dE          RMSdq      gap      omega  full diag
   1   -193.5660976 -0.193566E+03  0.986E-01    1.61       0.0  T
   2   -193.5389540  0.271436E-01  0.856E-01    0.21       1.0  T
   3   -193.5502978 -0.113438E-01  0.720E-01    0.35       1.0  T
   4   -193.5683911 -0.180934E-01  0.478E-01    0.57       1.0  T
   5   -193.5640313  0.435984E-02  0.499E-01    0.30       1.0  T
   6   -193.6080391 -0.440078E-01  0.784E-02    0.48       1.0  T
   7   -193.6082912 -0.252072E-03  0.579E-02    0.49       1.0  T
   8   -193.6054977  0.279349E-02  0.132E-01    0.49       1.0  T
   9   -193.6089108 -0.341315E-02  0.184E-02    0.49       1.0  T
  10   -193.6089605 -0.497090E-04  0.832E-03    0.49       1.1  T
  11   -193.6089725 -0.119300E-04  0.230E-03    0.49       4.0  T
  12   -193.6089724  0.104749E-06  0.232E-03    0.49       4.0  T
  13   -193.6089733 -0.907108E-06  0.849E-04    0.49      10.9  T
  14   -193.6089734 -0.136062E-06  0.112E-04    0.49      82.5  T

   *** convergence criteria satisfied after 14 iterations ***

         #    Occupation            Energy/Eh            Energy/eV
      -------------------------------------------------------------
         1        2.0000           -0.6145120             -16.7217
       ...           ...                  ...                  ...
       170        2.0000           -0.2938426              -7.9959
       171        2.0000           -0.2812670              -7.6537
       172        2.0000           -0.2796748              -7.6103
       173        2.0000           -0.2542332              -6.9180
       174        2.0000           -0.2537993              -6.9062
       175        1.5827           -0.2111399              -5.7454
       176        1.4172           -0.2105051              -5.7281 (HOMO)
       177        0.0001           -0.1923591              -5.2344 (LUMO)
       178        0.0000           -0.1902598              -5.1772
       179                         -0.1856886              -5.0528
       180                         -0.1838977              -5.0041
       181                         -0.1511764              -4.1137
       ...                                ...                  ...
       338                          0.7932106              21.5844
      -------------------------------------------------------------
                  HL-Gap            0.0181460 Eh            0.4938 eV
             Fermi-level           -0.2060539 Eh           -5.6070 eV

 SCC (total)                   0 d,  0 h,  0 min,  1.328 sec
 SCC setup                      ...        0 min,  0.000 sec (  0.031%)
 Dispersion                     ...        0 min,  0.001 sec (  0.112%)
 classical contributions        ...        0 min,  0.000 sec (  0.024%)
 integral evaluation            ...        0 min,  0.007 sec (  0.516%)
 iterations                     ...        0 min,  1.261 sec ( 94.891%)
 molecular gradient             ...        0 min,  0.044 sec (  3.334%)
 printout                       ...        0 min,  0.014 sec (  1.091%)

         :::::::::::::::::::::::::::::::::::::::::::::::::::::
         ::                     SUMMARY                     ::
         :::::::::::::::::::::::::::::::::::::::::::::::::::::
         :: total energy            -190.264870809392 Eh    ::
         :: gradient norm              0.071622833414 Eh/a0 ::
         :: HOMO-LUMO gap              0.493777781853 eV    ::
         ::.................................................::
         :: SCC energy              -193.608973400463 Eh    ::
         :: -> isotropic ES            0.177826118035 Eh    ::
         :: -> anisotropic ES          0.017207901855 Eh    ::
         :: -> anisotropic XC          0.115084794812 Eh    ::
         :: -> dispersion             -0.200333900290 Eh    ::
         :: repulsion energy           3.331070674161 Eh    ::
         :: add. restraining           0.000000000000 Eh    ::
         :: total charge              -1.000013896320 e     ::
         :::::::::::::::::::::::::::::::::::::::::::::::::::::

      ----------------------------------------------------------- 
     |                   =====================                   |
     |                        A N C O P T                        |
     |                   =====================                   |
     |               Approximate Normal Coordinate               |
     |                Rational Function Optimizer                |
      ----------------------------------------------------------- 

          ...................................................
          :                      SETUP                      :
          :.................................................:
          :   optimization level            normal          :
          :   max. optcycles                   348          :
          :   ANC micro-cycles                  20          :
          :   degrees of freedom               342          :
          :.................................................:
          :   RF solver                   davidson          :
          :   write xtbopt.log                true          :
          :   linear?                        false          :
          :   energy convergence         0.5000000E-05 Eh   :
          :   grad. convergence          0.1000000E-02 Eh/α :
          :   maxmium RF displ.          1.0000000          :
          :   Hlow (freq-cutoff)         0.1000000E-01      :
          :   Hmax (freq-cutoff)         5.0000000          :
          :   S6 in model hess.         20.0000000          :
          ...................................................

generating ANC from model Hessian ...
Using Lindh-Hessian (1995)
 Shifting diagonal of input Hessian by    1.0006933023975413E-002
 Lowest  eigenvalues of input Hessian
    0.010000    0.000000    0.000000    0.000000    0.000000    0.000000
    0.000000    0.010031    0.010075    0.010206    0.010399    0.010468
    0.010491    0.010631    0.010683    0.010692    0.010871    0.010972
 Highest eigenvalues
    2.157223    2.157241    2.293142    2.293156    2.530889    2.530908


........................................................................
.............................. CYCLE    1 ..............................
........................................................................

 iter      E             dE          RMSdq      gap      omega  full diag
   1   -193.6089734 -0.193609E+03  0.861E-05    0.49       0.0  T
   2   -193.6089731  0.281634E-06  0.119E-03    0.49       7.8  T
   3   -193.6089734 -0.282768E-06  0.342E-05    0.49     271.4  T
   4   -193.6089734 -0.130370E-09  0.169E-05    0.49     549.8  T
     SCC iter.                  ...        0 min,  0.194 sec
     gradient                   ...        0 min,  0.041 sec
 * total energy  :  -190.2648708 Eh     change       -0.1123169E-08 Eh
   gradient norm :     0.0716216 Eh/α   predicted     0.0000000E+00 (-100.00%)
   displ. norm   :     0.2361034 α      lambda       -0.3990179E-02
   maximum displ.:     0.1293314 α      in ANC's #10, #14, #12, ...

........................................................................
.............................. CYCLE    2 ..............................
........................................................................

 iter      E             dE          RMSdq      gap      omega  full diag
   1   -193.6085801 -0.193609E+03  0.582E-02    0.59       0.0  T
   2   -193.5898706  0.187095E-01  0.311E-01    0.53       1.0  T
   3   -193.6079860 -0.181154E-01  0.692E-02    0.57       1.0  T
   4   -193.6087280 -0.741946E-03  0.201E-02    0.57       1.0  T
   5   -193.6087684 -0.404133E-04  0.519E-03    0.57       1.8  T
   6   -193.6087704 -0.203521E-05  0.278E-03    0.57       3.3  T
   7   -193.6087716 -0.116208E-05  0.802E-04    0.57      11.6  T
   8   -193.6087716  0.676346E-08  0.604E-04    0.57      15.4  T
   9   -193.6087716 -0.510566E-07  0.123E-04    0.57      75.6  T
     SCC iter.                  ...        0 min,  0.907 sec
     gradient                   ...        0 min,  0.044 sec
 * total energy  :  -190.2679678 Eh     change       -0.3097003E-02 Eh
   gradient norm :     0.0375271 Eh/α   predicted    -0.2108129E-02 ( -31.93%)
   displ. norm   :     0.4470693 α      lambda       -0.3354931E-02
   maximum displ.:     0.2714083 α      in ANC's #10, #14, #12, ...

........................................................................
.............................. CYCLE    3 ..............................
........................................................................

 iter      E             dE          RMSdq      gap      omega  full diag
   1   -193.6096324 -0.193610E+03  0.712E-02    0.68       0.0  T
   2   -193.5824916  0.271408E-01  0.378E-01    0.61       1.0  T
   3   -193.6093516 -0.268601E-01  0.633E-02    0.66       1.0  T
   4   -193.6097946 -0.442976E-03  0.312E-02    0.66       1.0  T
   5   -193.6099352 -0.140607E-03  0.694E-03    0.66       1.3  T
   6   -193.6099387 -0.345759E-05  0.440E-03    0.66       2.1  T
   7   -193.6099421 -0.341489E-05  0.912E-04    0.66      10.2  T
   8   -193.6099420  0.982853E-07  0.917E-04    0.66      10.1  T
   9   -193.6099421 -0.131918E-06  0.271E-04    0.66      34.3  T
     SCC iter.                  ...        0 min,  0.688 sec
     gradient                   ...        0 min,  0.053 sec
 * total energy  :  -190.2702355 Eh     change       -0.2267647E-02 Eh
   gradient norm :     0.0073601 Eh/α   predicted    -0.2012962E-02 ( -11.23%)
   displ. norm   :     0.4716084 α      lambda       -0.1478665E-02
   maximum displ.:     0.2993563 α      in ANC's #10, #14, #12, ...

........................................................................
.............................. CYCLE    4 ..............................
........................................................................

 iter      E             dE          RMSdq      gap      omega  full diag
   1   -193.6113579 -0.193611E+03  0.383E-02    0.70       0.0  T
   2   -193.6018167  0.954121E-02  0.223E-01    0.67       1.0  T
   3   -193.6112593 -0.944260E-02  0.342E-02    0.69       1.0  T
   4   -193.6114065 -0.147212E-03  0.122E-02    0.69       1.0  T
   5   -193.6114242 -0.176024E-04  0.308E-03    0.69       3.0  T
   6   -193.6114253 -0.118705E-05  0.131E-03    0.69       7.1  T
   7   -193.6114256 -0.241151E-06  0.432E-04    0.69      21.5  T
   8   -193.6114256  0.779636E-08  0.343E-04    0.69      27.1  T
     SCC iter.                  ...        0 min,  0.506 sec
     gradient                   ...        0 min,  0.044 sec
 * total energy  :  -190.2715177 Eh     change       -0.1282228E-02 Eh
   gradient norm :     0.0197297 Eh/α   predicted    -0.9037708E-03 ( -29.52%)
   displ. norm   :     0.6610671 α      lambda       -0.1941205E-02
   maximum displ.:     0.3906151 α      in ANC's #10, #14, #12, ...

........................................................................
.............................. CYCLE    5 ..............................
........................................................................

 iter      E             dE          RMSdq      gap      omega  full diag
   1   -193.6138146 -0.193614E+03  0.384E-02    0.70       0.0  T
   2   -193.6121114  0.170319E-02  0.973E-02    0.70       1.0  T
   3   -193.6125564 -0.445069E-03  0.836E-02    0.70       1.0  T
   4   -193.6138120 -0.125559E-02  0.107E-02    0.70       1.0  T
   5   -193.6138291 -0.171029E-04  0.223E-03    0.70       4.2  T
   6   -193.6138298 -0.674189E-06  0.103E-03    0.70       9.0  T
   7   -193.6138300 -0.157616E-06  0.369E-04    0.70      25.2  T
   8   -193.6138300  0.568281E-08  0.309E-04    0.70      30.1  T
     SCC iter.                  ...        0 min,  0.643 sec
     gradient                   ...        0 min,  0.043 sec
 * total energy  :  -190.2733542 Eh     change       -0.1836504E-02 Eh
   gradient norm :     0.0264913 Eh/α   predicted    -0.1394811E-02 ( -24.05%)
   displ. norm   :     0.7853145 α      lambda       -0.2515247E-02
   maximum displ.:     0.4569049 α      in ANC's #10, #14, #12, ...

........................................................................
.............................. CYCLE    6 ..............................
........................................................................

 iter      E             dE          RMSdq      gap      omega  full diag
   1   -193.6168752 -0.193617E+03  0.423E-02    0.67       0.0  T
   2   -193.6153729  0.150237E-02  0.926E-02    0.68       1.0  T
   3   -193.6151031  0.269718E-03  0.100E-01    0.67       1.0  T
   4   -193.6168651 -0.176198E-02  0.112E-02    0.67       1.0  T
   5   -193.6168873 -0.222191E-04  0.125E-03    0.68       7.5  T
   6   -193.6168874 -0.662480E-07  0.101E-03    0.68       9.2  T
   7   -193.6168876 -0.160773E-06  0.327E-04    0.68      28.4  T
   8   -193.6168875  0.238076E-07  0.410E-04    0.68      22.6  T
     SCC iter.                  ...        0 min,  0.402 sec
     gradient                   ...        0 min,  0.044 sec
 * total energy  :  -190.2757295 Eh     change       -0.2375294E-02 Eh
   gradient norm :     0.0227189 Eh/α   predicted    -0.2033227E-02 ( -14.40%)
   displ. norm   :     0.8237625 α      lambda       -0.2652327E-02
   maximum displ.:     0.4960661 α      in ANC's #10, #14, #12, ...

........................................................................
.............................. CYCLE    7 ..............................
........................................................................

 iter      E             dE          RMSdq      gap      omega  full diag
   1   -193.6198884 -0.193620E+03  0.489E-02    0.62       0.0  T
   2   -193.6089368  0.109516E-01  0.246E-01    0.62       1.0  T
   3   -193.6198700 -0.109332E-01  0.350E-02    0.63       1.0  T
   4   -193.6199722 -0.102164E-03  0.102E-02    0.63       1.0  T
   5   -193.6199859 -0.137011E-04  0.221E-03    0.63       4.2  T
   6   -193.6199865 -0.640392E-06  0.997E-04    0.63       9.3  T
   7   -193.6199866 -0.104861E-06  0.522E-04    0.63      17.8  T
     SCC iter.                  ...        0 min,  0.445 sec
     gradient                   ...        0 min,  0.041 sec
 * total energy  :  -190.2781289 Eh     change       -0.2399434E-02 Eh
   gradient norm :     0.0117358 Eh/α   predicted    -0.2226082E-02 (  -7.22%)
   displ. norm   :     0.8293909 α      lambda       -0.2239172E-02
   maximum displ.:     0.5146896 α      in ANC's #10, #14, #12, ...

........................................................................
.............................. CYCLE    8 ..............................
........................................................................

 iter      E             dE          RMSdq      gap      omega  full diag
   1   -193.6221535 -0.193622E+03  0.515E-02    0.58       0.0  T
   2   -193.6108797  0.112738E-01  0.254E-01    0.57       1.0  T
   3   -193.6222341 -0.113544E-01  0.299E-02    0.59       1.0  T
   4   -193.6222675 -0.334547E-04  0.104E-02    0.58       1.0  T
   5   -193.6222835 -0.160248E-04  0.193E-03    0.59       4.8  T
   6   -193.6222840 -0.421572E-06  0.103E-03    0.59       9.0  T
   7   -193.6222841 -0.133116E-06  0.449E-04    0.59      20.7  T
   8   -193.6222841 -0.168754E-07  0.197E-04    0.59      47.1  T
     SCC iter.                  ...        0 min,  0.563 sec
     gradient                   ...        0 min,  0.043 sec
 * total energy  :  -190.2801183 Eh     change       -0.1989380E-02 Eh
   gradient norm :     0.0072018 Eh/α   predicted    -0.1889741E-02 (  -5.01%)
   displ. norm   :     0.7764258 α      lambda       -0.1718972E-02
   maximum displ.:     0.4886489 α      in ANC's #10, #14, #12, ...

........................................................................
.............................. CYCLE    9 ..............................
........................................................................

 iter      E             dE          RMSdq      gap      omega  full diag
   1   -193.6239181 -0.193624E+03  0.502E-02    0.54       0.0  T
   2   -193.6184373  0.548080E-02  0.181E-01    0.54       1.0  T
   3   -193.6238713 -0.543398E-02  0.369E-02    0.55       1.0  T
   4   -193.6239837 -0.112377E-03  0.100E-02    0.54       1.0  T
   5   -193.6240005 -0.168005E-04  0.145E-03    0.55       6.4  T
   6   -193.6240007 -0.196560E-06  0.860E-04    0.55      10.8  T
   7   -193.6240008 -0.946380E-07  0.342E-04    0.55      27.1  T
     SCC iter.                  ...        0 min,  0.563 sec
     gradient                   ...        0 min,  0.042 sec
 * total energy  :  -190.2816159 Eh     change       -0.1497627E-02 Eh
   gradient norm :     0.0080494 Eh/α   predicted    -0.1377632E-02 (  -8.01%)
   displ. norm   :     0.6795978 α      lambda       -0.1228076E-02
   maximum displ.:     0.4357582 α      in ANC's #10, #14, #12, ...

........................................................................
.............................. CYCLE   10 ..............................
........................................................................

 iter      E             dE          RMSdq      gap      omega  full diag
   1   -193.6255304 -0.193626E+03  0.507E-02    0.51       0.0  T
   2   -193.6234660  0.206439E-02  0.116E-01    0.51       1.0  T
   3   -193.6252444 -0.177845E-02  0.510E-02    0.51       1.0  T
   4   -193.6255621 -0.317623E-03  0.103E-02    0.51       1.0  T
   5   -193.6255800 -0.179308E-04  0.145E-03    0.52       6.4  T
   6   -193.6255803 -0.249066E-06  0.716E-04    0.51      13.0  T
   7   -193.6255803 -0.559804E-07  0.296E-04    0.51      31.3  T
     SCC iter.                  ...        0 min,  0.364 sec
     gradient                   ...        0 min,  0.041 sec
 * total energy  :  -190.2826246 Eh     change       -0.1008691E-02 Eh
   gradient norm :     0.0071865 Eh/α   predicted    -0.8976342E-03 ( -11.01%)
   displ. norm   :     0.5345687 α      lambda       -0.7256269E-03
   maximum displ.:     0.3514878 α      in ANC's #10, #14, #6, ...

........................................................................
.............................. CYCLE   11 ..............................
........................................................................

 iter      E             dE          RMSdq      gap      omega  full diag
   1   -193.6268840 -0.193627E+03  0.494E-02    0.48       0.0  T
   2   -193.6263264  0.557596E-03  0.660E-02    0.49       1.0  T
   3   -193.6261599  0.166447E-03  0.710E-02    0.48       1.0  T
   4   -193.6268918 -0.731922E-03  0.932E-03    0.48       1.0  T
   5   -193.6269073 -0.154285E-04  0.131E-03    0.48       7.1  T
   6   -193.6269075 -0.210241E-06  0.572E-04    0.48      16.2  T
   7   -193.6269075 -0.283515E-07  0.250E-04    0.48      37.1  T
     SCC iter.                  ...        0 min,  0.415 sec
     gradient                   ...        0 min,  0.042 sec
 * total energy  :  -190.2831651 Eh     change       -0.5405055E-03 Eh
   gradient norm :     0.0055137 Eh/α   predicted    -0.4664952E-03 ( -13.69%)
   displ. norm   :     0.3361249 α      lambda       -0.3283808E-03
   maximum displ.:     0.2196822 α      in ANC's #10, #6, #1, ...

........................................................................
.............................. CYCLE   12 ..............................
........................................................................

 iter      E             dE          RMSdq      gap      omega  full diag
   1   -193.6280046 -0.193628E+03  0.415E-02    0.46       0.0  T
   2   -193.6279507  0.538638E-04  0.309E-02    0.47       1.0  T
   3   -193.6266163  0.133438E-02  0.933E-02    0.46       1.0  T
   4   -193.6280017 -0.138539E-02  0.642E-03    0.46       1.4  T
   5   -193.6280093 -0.757481E-05  0.857E-04    0.47      10.8  T
   6   -193.6280093 -0.764347E-07  0.384E-04    0.47      24.2  T
   7   -193.6280093 -0.797357E-08  0.178E-04    0.47      52.1  T
     SCC iter.                  ...        0 min,  0.505 sec
     gradient                   ...        0 min,  0.055 sec
 * total energy  :  -190.2834089 Eh     change       -0.2437673E-03 Eh
   gradient norm :     0.0038434 Eh/α   predicted    -0.1827653E-03 ( -25.02%)
   displ. norm   :     0.2862949 α      lambda       -0.2455576E-03
   maximum displ.:     0.1553079 α      in ANC's #10, #1, #6, ...

........................................................................
.............................. CYCLE   13 ..............................
........................................................................

 iter      E             dE          RMSdq      gap      omega  full diag
   1   -193.6288279 -0.193629E+03  0.448E-02    0.46       0.0  T
   2   -193.6288122  0.156804E-04  0.282E-02    0.46       1.0  T
   3   -193.6274871  0.132513E-02  0.911E-02    0.46       1.0  T
   4   -193.6288268 -0.133970E-02  0.437E-03    0.46       2.1  T
   5   -193.6288301 -0.329920E-05  0.712E-04    0.46      13.0  T
   6   -193.6288301 -0.428086E-07  0.349E-04    0.46      26.6  T
   7   -193.6288301 -0.270563E-08  0.166E-04    0.46      55.8  T
     SCC iter.                  ...        0 min,  0.379 sec
     gradient                   ...        0 min,  0.044 sec
 * total energy  :  -190.2836021 Eh     change       -0.1931930E-03 Eh
   gradient norm :     0.0025046 Eh/α   predicted    -0.1328593E-03 ( -31.23%)
   displ. norm   :     0.3636959 α      lambda       -0.2707733E-03
   maximum displ.:     0.1491014 α      in ANC's #10, #1, #13, ...

........................................................................
.............................. CYCLE   14 ..............................
........................................................................

 iter      E             dE          RMSdq      gap      omega  full diag
   1   -193.6287891 -0.193629E+03  0.610E-02    0.46       0.0  T
   2   -193.6285167  0.272451E-03  0.551E-02    0.46       1.0  T
   3   -193.6270207  0.149592E-02  0.108E-01    0.46       1.0  T
   4   -193.6287994 -0.177867E-02  0.491E-03    0.46       1.9  T
   5   -193.6288031 -0.372184E-05  0.123E-03    0.46       7.5  T
   6   -193.6288033 -0.166697E-06  0.501E-04    0.46      18.5  T
   7   -193.6288033 -0.497789E-08  0.287E-04    0.46      32.4  T
     SCC iter.                  ...        0 min,  0.467 sec
     gradient                   ...        0 min,  0.043 sec
 * total energy  :  -190.2838109 Eh     change       -0.2088436E-03 Eh
   gradient norm :     0.0034862 Eh/α   predicted    -0.1533048E-03 ( -26.59%)
   displ. norm   :     0.3788299 α      lambda       -0.2340555E-03
   maximum displ.:     0.1487020 α      in ANC's #13, #1, #10, ...

........................................................................
.............................. CYCLE   15 ..............................
........................................................................

 iter      E             dE          RMSdq      gap      omega  full diag
   1   -193.6280660 -0.193628E+03  0.651E-02    0.47       0.0  T
   2   -193.6274719  0.594082E-03  0.726E-02    0.46       1.0  T
   3   -193.6268084  0.663551E-03  0.938E-02    0.46       1.0  T
   4   -193.6280903 -0.128193E-02  0.465E-03    0.46       2.0  T
   5   -193.6280935 -0.320433E-05  0.123E-03    0.47       7.6  T
   6   -193.6280936 -0.140489E-06  0.561E-04    0.47      16.6  T
   7   -193.6280936 -0.983715E-08  0.298E-04    0.47      31.2  T
     SCC iter.                  ...        0 min,  0.619 sec
     gradient                   ...        0 min,  0.060 sec
 * total energy  :  -190.2839961 Eh     change       -0.1851233E-03 Eh
   gradient norm :     0.0047852 Eh/α   predicted    -0.1338278E-03 ( -27.71%)
   displ. norm   :     0.4029169 α      lambda       -0.2270654E-03
   maximum displ.:     0.1623766 α      in ANC's #13, #1, #6, ...

........................................................................
.............................. CYCLE   16 ..............................
........................................................................

 iter      E             dE          RMSdq      gap      omega  full diag
   1   -193.6272401 -0.193627E+03  0.703E-02    0.47       0.0  T
   2   -193.6264523  0.787781E-03  0.820E-02    0.47       1.0  T
   3   -193.6258373  0.615017E-03  0.994E-02    0.47       1.0  T
   4   -193.6272706 -0.143330E-02  0.507E-03    0.47       1.8  T
   5   -193.6272745 -0.392025E-05  0.127E-03    0.47       7.3  T
   6   -193.6272746 -0.134396E-06  0.570E-04    0.47      16.3  T
   7   -193.6272747 -0.100175E-07  0.250E-04    0.47      37.2  T
     SCC iter.                  ...        0 min,  1.216 sec
     gradient                   ...        0 min,  0.064 sec
 * total energy  :  -190.2841774 Eh     change       -0.1813984E-03 Eh
   gradient norm :     0.0046974 Eh/α   predicted    -0.1319692E-03 ( -27.25%)
   displ. norm   :     0.4294209 α      lambda       -0.2258138E-03
   maximum displ.:     0.1732197 α      in ANC's #1, #13, #6, ...

........................................................................
.............................. CYCLE   17 ..............................
........................................................................

 iter      E             dE          RMSdq      gap      omega  full diag
   1   -193.6266624 -0.193627E+03  0.749E-02    0.47       0.0  T
   2   -193.6259982  0.664219E-03  0.784E-02    0.47       1.0  T
   3   -193.6244720  0.152619E-02  0.121E-01    0.47       1.0  T
   4   -193.6266836 -0.221160E-02  0.699E-03    0.47       1.3  T
   5   -193.6266910 -0.743893E-05  0.195E-03    0.47       4.8  T
   6   -193.6266915 -0.424456E-06  0.827E-04    0.47      11.2  T
   7   -193.6266915 -0.470247E-07  0.356E-04    0.47      26.1  T
     SCC iter.                  ...        0 min,  1.508 sec
     gradient                   ...        0 min,  0.060 sec
 * total energy  :  -190.2843549 Eh     change       -0.1774762E-03 Eh
   gradient norm :     0.0034495 Eh/α   predicted    -0.1337286E-03 ( -24.65%)
   displ. norm   :     0.4190890 α      lambda       -0.1968085E-03
   maximum displ.:     0.1777260 α      in ANC's #1, #6, #13, ...

........................................................................
.............................. CYCLE   18 ..............................
........................................................................

 iter      E             dE          RMSdq      gap      omega  full diag
   1   -193.6268663 -0.193627E+03  0.708E-02    0.46       0.0  T
   2   -193.6265739  0.292418E-03  0.599E-02    0.47       1.0  T
   3   -193.6236898  0.288415E-02  0.142E-01    0.46       1.0  T
   4   -193.6268696 -0.317979E-02  0.848E-03    0.46       1.1  T
   5   -193.6268803 -0.107907E-04  0.264E-03    0.47       3.5  T
   6   -193.6268813 -0.972000E-06  0.838E-04    0.46      11.1  T
   7   -193.6268814 -0.528247E-07  0.348E-04    0.46      26.7  T
     SCC iter.                  ...        0 min,  1.146 sec
     gradient                   ...        0 min,  0.051 sec
 * total energy  :  -190.2845052 Eh     change       -0.1502762E-03 Eh
   gradient norm :     0.0023345 Eh/α   predicted    -0.1156910E-03 ( -23.01%)
   displ. norm   :     0.3691646 α      lambda       -0.1407493E-03
   maximum displ.:     0.1644377 α      in ANC's #1, #6, #10, ...

........................................................................
.............................. CYCLE   19 ..............................
........................................................................

 iter      E             dE          RMSdq      gap      omega  full diag
   1   -193.6278286 -0.193628E+03  0.585E-02    0.46       0.0  T
   2   -193.6277499  0.787227E-04  0.412E-02    0.46       1.0  T
   3   -193.6249682  0.278169E-02  0.133E-01    0.45       1.0  T
   4   -193.6278260 -0.285775E-02  0.747E-03    0.46       1.2  T
   5   -193.6278345 -0.848263E-05  0.222E-03    0.46       4.2  T
   6   -193.6278352 -0.707402E-06  0.670E-04    0.46      13.9  T
   7   -193.6278352 -0.325473E-07  0.303E-04    0.46      30.6  T
     SCC iter.                  ...        0 min,  0.755 sec
     gradient                   ...        0 min,  0.042 sec
 * total energy  :  -190.2846086 Eh     change       -0.1033923E-03 Eh
   gradient norm :     0.0023055 Eh/α   predicted    -0.7996971E-04 ( -22.65%)
   displ. norm   :     0.2832801 α      lambda       -0.8075093E-04
   maximum displ.:     0.1350820 α      in ANC's #1, #6, #2, ...

........................................................................
.............................. CYCLE   20 ..............................
........................................................................

 iter      E             dE          RMSdq      gap      omega  full diag
   1   -193.6288856 -0.193629E+03  0.425E-02    0.46       0.0  T
   2   -193.6288464  0.391653E-04  0.297E-02    0.46       1.0  T
   3   -193.6274107  0.143571E-02  0.958E-02    0.45       1.0  T
   4   -193.6288835 -0.147281E-02  0.593E-03    0.46       1.6  T
   5   -193.6288891 -0.559971E-05  0.150E-03    0.46       6.2  T
   6   -193.6288894 -0.316215E-06  0.488E-04    0.46      19.0  T
   7   -193.6288894 -0.158931E-07  0.238E-04    0.46      39.0  T
     SCC iter.                  ...        0 min,  0.472 sec
     gradient                   ...        0 min,  0.043 sec
 * total energy  :  -190.2846677 Eh     change       -0.5914226E-04 Eh
   gradient norm :     0.0021163 Eh/α   predicted    -0.4361874E-04 ( -26.25%)
   displ. norm   :     0.1955703 α      lambda       -0.4953217E-04
   maximum displ.:     0.1020875 α      in ANC's #1, #2, #13, ...
 * RMSD in coord.:     0.6809028 α      energy gain  -0.1979693E-01 Eh

generating ANC from model Hessian ...
Using Lindh-Hessian (1995)
 Shifting diagonal of input Hessian by    1.0093803352742129E-002
 Lowest  eigenvalues of input Hessian
    0.010000    0.000000    0.000000    0.000000    0.000000    0.000000
    0.000000    0.010109    0.010240    0.010367    0.010431    0.010579
    0.010591    0.010798    0.011155    0.011204    0.011306    0.011394
 Highest eigenvalues
    2.164923    2.174067    2.293196    2.303553    2.501397    2.502763


........................................................................
.............................. CYCLE   21 ..............................
........................................................................

 iter      E             dE          RMSdq      gap      omega  full diag
   1   -193.6300381 -0.193630E+03  0.282E-02    0.46       0.0  T
   2   -193.6300042  0.339279E-04  0.222E-02    0.46       1.0  T
   3   -193.6294905  0.513713E-03  0.590E-02    0.46       1.0  T
   4   -193.6300378 -0.547338E-03  0.412E-03    0.46       2.3  T
   5   -193.6300405 -0.275054E-05  0.931E-04    0.46      10.0  T
   6   -193.6300407 -0.119364E-06  0.322E-04    0.46      28.8  T
   7   -193.6300407 -0.608594E-08  0.170E-04    0.46      54.7  T
     SCC iter.                  ...        0 min,  0.353 sec
     gradient                   ...        0 min,  0.041 sec
 * total energy  :  -190.2847053 Eh     change       -0.3755901E-04 Eh
   gradient norm :     0.0015523 Eh/α   predicted     0.0000000E+00 (-100.00%)
   displ. norm   :     0.0515614 α      lambda       -0.1062779E-04
   maximum displ.:     0.0219695 α      in ANC's #1, #2, #14, ...

........................................................................
.............................. CYCLE   22 ..............................
........................................................................

 iter      E             dE          RMSdq      gap      omega  full diag
   1   -193.6298678 -0.193630E+03  0.701E-03    0.46       0.0  T
   2   -193.6298652  0.259315E-05  0.586E-03    0.46       1.6  T
   3   -193.6298386  0.266009E-04  0.137E-02    0.46       1.0  T
   4   -193.6298678 -0.291628E-04  0.133E-03    0.46       7.0  T
   5   -193.6298681 -0.258856E-06  0.286E-04    0.46      32.5  T
   6   -193.6298681 -0.102605E-07  0.104E-04    0.46      89.7  T
     SCC iter.                  ...        0 min,  0.527 sec
     gradient                   ...        0 min,  0.040 sec
 * total energy  :  -190.2847269 Eh     change       -0.2160574E-04 Eh
   gradient norm :     0.0006068 Eh/α   predicted    -0.8408060E-05 ( -61.08%)
   displ. norm   :     0.1927341 α      lambda       -0.4562692E-04
   maximum displ.:     0.0854342 α      in ANC's #1, #2, #14, ...

........................................................................
.............................. CYCLE   23 ..............................
........................................................................

 iter      E             dE          RMSdq      gap      omega  full diag
   1   -193.6294277 -0.193629E+03  0.228E-02    0.47       0.0  T
   2   -193.6293953  0.323851E-04  0.198E-02    0.47       1.0  T
   3   -193.6291166  0.278771E-03  0.446E-02    0.46       1.0  T
   4   -193.6294280 -0.311462E-03  0.333E-03    0.47       2.8  T
   5   -193.6294298 -0.177136E-05  0.509E-04    0.47      18.2  T
   6   -193.6294298 -0.161016E-07  0.284E-04    0.47      32.7  T
   7   -193.6294298 -0.428290E-08  0.141E-04    0.47      66.1  T
     SCC iter.                  ...        0 min,  0.446 sec
     gradient                   ...        0 min,  0.041 sec
 * total energy  :  -190.2847716 Eh     change       -0.4471921E-04 Eh
   gradient norm :     0.0014488 Eh/α   predicted    -0.2319114E-04 ( -48.14%)
   displ. norm   :     0.1305322 α      lambda       -0.1677598E-04
   maximum displ.:     0.0698322 α      in ANC's #1, #2, #4, ...

........................................................................
.............................. CYCLE   24 ..............................
........................................................................

 iter      E             dE          RMSdq      gap      omega  full diag
   1   -193.6293994 -0.193629E+03  0.117E-02    0.47       0.0  T
   2   -193.6293980  0.137570E-05  0.757E-03    0.47       1.2  T
   3   -193.6292922  0.105828E-03  0.257E-02    0.47       1.0  T
   4   -193.6293992 -0.107007E-03  0.180E-03    0.47       5.2  T
   5   -193.6293997 -0.500885E-06  0.291E-04    0.47      31.9  T
   6   -193.6293997 -0.650283E-08  0.146E-04    0.47      63.8  T
     SCC iter.                  ...        0 min,  0.324 sec
     gradient                   ...        0 min,  0.042 sec
 * total energy  :  -190.2847919 Eh     change       -0.2024608E-04 Eh
   gradient norm :     0.0014283 Eh/α   predicted    -0.8451609E-05 ( -58.26%)
   displ. norm   :     0.1636268 α      lambda       -0.2176474E-04
   maximum displ.:     0.0902605 α      in ANC's #1, #2, #4, ...

........................................................................
.............................. CYCLE   25 ..............................
........................................................................

 iter      E             dE          RMSdq      gap      omega  full diag
   1   -193.6294792 -0.193629E+03  0.126E-02    0.47       0.0  T
   2   -193.6294782  0.105938E-05  0.787E-03    0.47       1.2  T
   3   -193.6293759  0.102315E-03  0.253E-02    0.47       1.0  T
   4   -193.6294784 -0.102503E-03  0.275E-03    0.47       3.4  T
   5   -193.6294796 -0.124172E-05  0.380E-04    0.47      24.4  T
   6   -193.6294796 -0.130424E-07  0.194E-04    0.47      47.8  T
   7   -193.6294796 -0.276384E-08  0.950E-05    0.47      97.8  T
     SCC iter.                  ...        0 min,  0.376 sec
     gradient                   ...        0 min,  0.040 sec
 * total energy  :  -190.2848190 Eh     change       -0.2717042E-04 Eh
   gradient norm :     0.0007838 Eh/α   predicted    -0.1101258E-04 ( -59.47%)
   displ. norm   :     0.2923650 α      lambda       -0.3924530E-04
   maximum displ.:     0.1737435 α      in ANC's #1, #2, #4, ...

........................................................................
.............................. CYCLE   26 ..............................
........................................................................

 iter      E             dE          RMSdq      gap      omega  full diag
   1   -193.6296102 -0.193630E+03  0.227E-02    0.47       0.0  T
   2   -193.6295857  0.244274E-04  0.182E-02    0.47       1.0  T
   3   -193.6292507  0.335005E-03  0.478E-02    0.47       1.0  T
   4   -193.6296094 -0.358635E-03  0.411E-03    0.47       2.3  T
   5   -193.6296121 -0.274818E-05  0.730E-04    0.47      12.7  T
   6   -193.6296122 -0.538819E-07  0.347E-04    0.47      26.7  T
   7   -193.6296122 -0.791579E-08  0.160E-04    0.47      58.2  T
     SCC iter.                  ...        0 min,  0.429 sec
     gradient                   ...        0 min,  0.041 sec
 * total energy  :  -190.2848604 Eh     change       -0.4138637E-04 Eh
   gradient norm :     0.0012544 Eh/α   predicted    -0.2036885E-04 ( -50.78%)
   displ. norm   :     0.2633683 α      lambda       -0.3292639E-04
   maximum displ.:     0.1573558 α      in ANC's #1, #2, #4, ...

........................................................................
.............................. CYCLE   27 ..............................
........................................................................

 iter      E             dE          RMSdq      gap      omega  full diag
   1   -193.6295019 -0.193630E+03  0.200E-02    0.46       0.0  T
   2   -193.6294907  0.111350E-04  0.145E-02    0.47       1.0  T
   3   -193.6291829  0.307807E-03  0.447E-02    0.46       1.0  T
   4   -193.6295010 -0.318056E-03  0.344E-03    0.46       2.7  T
   5   -193.6295029 -0.190699E-05  0.597E-04    0.47      15.6  T
   6   -193.6295029 -0.357683E-07  0.289E-04    0.47      32.2  T
   7   -193.6295029 -0.415403E-08  0.132E-04    0.47      70.6  T
     SCC iter.                  ...        0 min,  0.377 sec
     gradient                   ...        0 min,  0.043 sec
 * total energy  :  -190.2848984 Eh     change       -0.3794796E-04 Eh
   gradient norm :     0.0016141 Eh/α   predicted    -0.1698228E-04 ( -55.25%)
   displ. norm   :     0.3983778 α      lambda       -0.4220730E-04
   maximum displ.:     0.2551416 α      in ANC's #1, #2, #4, ...

........................................................................
.............................. CYCLE   28 ..............................
........................................................................

 iter      E             dE          RMSdq      gap      omega  full diag
   1   -193.6295183 -0.193630E+03  0.288E-02    0.46       0.0  T
   2   -193.6295077  0.105310E-04  0.189E-02    0.46       1.0  T
   3   -193.6288789  0.628838E-03  0.630E-02    0.46       1.0  T
   4   -193.6295157 -0.636838E-03  0.504E-03    0.46       1.8  T
   5   -193.6295198 -0.406632E-05  0.781E-04    0.46      11.9  T
   6   -193.6295199 -0.605973E-07  0.379E-04    0.46      24.5  T
   7   -193.6295199 -0.586667E-08  0.176E-04    0.46      52.8  T
     SCC iter.                  ...        0 min,  0.341 sec
     gradient                   ...        0 min,  0.042 sec
 * total energy  :  -190.2849501 Eh     change       -0.5174601E-04 Eh
   gradient norm :     0.0016226 Eh/α   predicted    -0.2259275E-04 ( -56.34%)
   displ. norm   :     0.2544205 α      lambda       -0.3778972E-04
   maximum displ.:     0.1698752 α      in ANC's #1, #2, #4, ...

........................................................................
.............................. CYCLE   29 ..............................
........................................................................

 iter      E             dE          RMSdq      gap      omega  full diag
   1   -193.6301256 -0.193630E+03  0.192E-02    0.46       0.0  T
   2   -193.6301219  0.369999E-05  0.124E-02    0.46       1.0  T
   3   -193.6298589  0.262920E-03  0.406E-02    0.46       1.0  T
   4   -193.6301246 -0.265655E-03  0.352E-03    0.46       2.6  T
   5   -193.6301263 -0.171222E-05  0.520E-04    0.46      17.9  T
   6   -193.6301263 -0.272267E-07  0.235E-04    0.46      39.4  T
   7   -193.6301263 -0.261591E-08  0.121E-04    0.46      76.7  T
     SCC iter.                  ...        0 min,  0.489 sec
     gradient                   ...        0 min,  0.047 sec
 * total energy  :  -190.2850022 Eh     change       -0.5204092E-04 Eh
   gradient norm :     0.0010692 Eh/α   predicted    -0.1943931E-04 ( -62.65%)
   displ. norm   :     0.3003848 α      lambda       -0.5804766E-04
   maximum displ.:     0.1944732 α      in ANC's #1, #2, #4, ...

........................................................................
.............................. CYCLE   30 ..............................
........................................................................

 iter      E             dE          RMSdq      gap      omega  full diag
   1   -193.6304229 -0.193630E+03  0.241E-02    0.46       0.0  T
   2   -193.6303904  0.324748E-04  0.202E-02    0.46       1.0  T
   3   -193.6300694  0.321068E-03  0.476E-02    0.46       1.0  T
   4   -193.6304230 -0.353654E-03  0.417E-03    0.46       2.2  T
   5   -193.6304253 -0.230139E-05  0.603E-04    0.46      15.4  T
   6   -193.6304253 -0.319504E-07  0.287E-04    0.46      32.3  T
   7   -193.6304253 -0.446335E-08  0.144E-04    0.46      64.3  T
     SCC iter.                  ...        0 min,  0.579 sec
     gradient                   ...        0 min,  0.043 sec
 * total energy  :  -190.2850775 Eh     change       -0.7536485E-04 Eh
   gradient norm :     0.0008943 Eh/α   predicted    -0.3019476E-04 ( -59.94%)
   displ. norm   :     0.4121291 α      lambda       -0.6811672E-04
   maximum displ.:     0.2657696 α      in ANC's #1, #2, #4, ...

........................................................................
.............................. CYCLE   31 ..............................
........................................................................

 iter      E             dE          RMSdq      gap      omega  full diag
   1   -193.6300821 -0.193630E+03  0.304E-02    0.46       0.0  T
   2   -193.6300189  0.632436E-04  0.269E-02    0.46       1.0  T
   3   -193.6295721  0.446790E-03  0.575E-02    0.46       1.0  T
   4   -193.6300826 -0.510561E-03  0.548E-03    0.46       1.7  T
   5   -193.6300866 -0.392126E-05  0.784E-04    0.46      11.8  T
   6   -193.6300866 -0.553069E-07  0.383E-04    0.46      24.2  T
   7   -193.6300866 -0.819364E-08  0.195E-04    0.46      47.6  T
     SCC iter.                  ...        0 min,  0.410 sec
     gradient                   ...        0 min,  0.044 sec
 * total energy  :  -190.2851610 Eh     change       -0.8346708E-04 Eh
   gradient norm :     0.0013989 Eh/α   predicted    -0.3663114E-04 ( -56.11%)
   displ. norm   :     0.4257538 α      lambda       -0.5503122E-04
   maximum displ.:     0.2767278 α      in ANC's #1, #2, #4, ...

........................................................................
.............................. CYCLE   32 ..............................
........................................................................

 iter      E             dE          RMSdq      gap      omega  full diag
   1   -193.6300554 -0.193630E+03  0.271E-02    0.46       0.0  T
   2   -193.6300311  0.242860E-04  0.202E-02    0.46       1.0  T
   3   -193.6294938  0.537272E-03  0.593E-02    0.46       1.0  T
   4   -193.6300554 -0.561558E-03  0.427E-03    0.46       2.2  T
   5   -193.6300577 -0.232179E-05  0.750E-04    0.46      12.4  T
   6   -193.6300577 -0.513825E-07  0.368E-04    0.46      25.2  T
   7   -193.6300577 -0.794697E-08  0.178E-04    0.46      52.2  T
     SCC iter.                  ...        0 min,  0.407 sec
     gradient                   ...        0 min,  0.043 sec
 * total energy  :  -190.2852315 Eh     change       -0.7054764E-04 Eh
   gradient norm :     0.0015418 Eh/α   predicted    -0.2973252E-04 ( -57.85%)
   displ. norm   :     0.4360718 α      lambda       -0.5315397E-04
   maximum displ.:     0.2845698 α      in ANC's #1, #2, #4, ...

........................................................................
.............................. CYCLE   33 ..............................
........................................................................

 iter      E             dE          RMSdq      gap      omega  full diag
   1   -193.6298618 -0.193630E+03  0.247E-02    0.47       0.0  T
   2   -193.6298591  0.264288E-05  0.152E-02    0.47       1.0  T
   3   -193.6295167  0.342465E-03  0.459E-02    0.47       1.0  T
   4   -193.6298606 -0.343938E-03  0.427E-03    0.47       2.2  T
   5   -193.6298630 -0.239665E-05  0.694E-04    0.47      13.4  T
   6   -193.6298630 -0.429535E-07  0.354E-04    0.47      26.3  T
   7   -193.6298630 -0.793995E-08  0.167E-04    0.47      55.6  T
     SCC iter.                  ...        0 min,  0.450 sec
     gradient                   ...        0 min,  0.041 sec
 * total energy  :  -190.2853037 Eh     change       -0.7217151E-04 Eh
   gradient norm :     0.0012286 Eh/α   predicted    -0.2882435E-04 ( -60.06%)
   displ. norm   :     0.5286716 α      lambda       -0.6668251E-04
   maximum displ.:     0.3433989 α      in ANC's #1, #2, #4, ...

........................................................................
.............................. CYCLE   34 ..............................
........................................................................

 iter      E             dE          RMSdq      gap      omega  full diag
   1   -193.6296085 -0.193630E+03  0.284E-02    0.47       0.0  T
   2   -193.6296065  0.200625E-05  0.172E-02    0.47       1.0  T
   3   -193.6292516  0.354939E-03  0.470E-02    0.47       1.0  T
   4   -193.6296035 -0.351890E-03  0.641E-03    0.47       1.4  T
   5   -193.6296100 -0.653708E-05  0.678E-04    0.47      13.7  T
   6   -193.6296100 -0.252718E-07  0.410E-04    0.47      22.7  T
   7   -193.6296101 -0.115163E-07  0.194E-04    0.47      47.9  T
     SCC iter.                  ...        0 min,  0.361 sec
     gradient                   ...        0 min,  0.052 sec
 * total energy  :  -190.2853942 Eh     change       -0.9046735E-04 Eh
   gradient norm :     0.0007755 Eh/α   predicted    -0.3748379E-04 ( -58.57%)
   displ. norm   :     0.6327264 α      lambda       -0.7732661E-04
   maximum displ.:     0.4116826 α      in ANC's #1, #2, #4, ...

........................................................................
.............................. CYCLE   35 ..............................
........................................................................

 iter      E             dE          RMSdq      gap      omega  full diag
   1   -193.6292512 -0.193629E+03  0.340E-02    0.47       0.0  T
   2   -193.6292195  0.316790E-04  0.245E-02    0.47       1.0  T
   3   -193.6282225  0.996991E-03  0.800E-02    0.47       1.0  T
   4   -193.6292506 -0.102806E-02  0.489E-03    0.47       1.9  T
   5   -193.6292541 -0.356998E-05  0.730E-04    0.47      12.7  T
   6   -193.6292542 -0.186618E-07  0.451E-04    0.47      20.6  T
   7   -193.6292542 -0.108784E-07  0.225E-04    0.47      41.2  T
     SCC iter.                  ...        0 min,  0.385 sec
     gradient                   ...        0 min,  0.042 sec
 * total energy  :  -190.2854955 Eh     change       -0.1013603E-03 Eh
   gradient norm :     0.0008889 Eh/α   predicted    -0.4554376E-04 ( -55.07%)
   displ. norm   :     0.6194204 α      lambda       -0.6761702E-04
   maximum displ.:     0.4072919 α      in ANC's #1, #2, #4, ...

........................................................................
.............................. CYCLE   36 ..............................
........................................................................

 iter      E             dE          RMSdq      gap      omega  full diag
   1   -193.6290918 -0.193629E+03  0.331E-02    0.48       0.0  T
   2   -193.6290280  0.638448E-04  0.278E-02    0.48       1.0  T
   3   -193.6282807  0.747228E-03  0.716E-02    0.48       1.0  T
   4   -193.6290929 -0.812126E-03  0.435E-03    0.48       2.1  T
   5   -193.6290957 -0.281466E-05  0.756E-04    0.48      12.3  T
   6   -193.6290957 -0.274607E-07  0.442E-04    0.48      21.0  T
   7   -193.6290957 -0.104731E-07  0.197E-04    0.48      47.1  T
     SCC iter.                  ...        0 min,  0.391 sec
     gradient                   ...        0 min,  0.042 sec
 * total energy  :  -190.2855823 Eh     change       -0.8678456E-04 Eh
   gradient norm :     0.0011430 Eh/α   predicted    -0.3957746E-04 ( -54.40%)
   displ. norm   :     0.4983172 α      lambda       -0.4930461E-04
   maximum displ.:     0.3343830 α      in ANC's #1, #2, #4, ...

........................................................................
.............................. CYCLE   37 ..............................
........................................................................

 iter      E             dE          RMSdq      gap      omega  full diag
   1   -193.6295943 -0.193630E+03  0.264E-02    0.48       0.0  T
   2   -193.6295353  0.590204E-04  0.247E-02    0.48       1.0  T
   3   -193.6291608  0.374498E-03  0.527E-02    0.48       1.0  T
   4   -193.6295954 -0.434646E-03  0.359E-03    0.48       2.6  T
   5   -193.6295974 -0.194415E-05  0.685E-04    0.48      13.6  T
   6   -193.6295974 -0.336331E-07  0.373E-04    0.48      24.9  T
   7   -193.6295974 -0.695104E-08  0.153E-04    0.48      60.8  T
     SCC iter.                  ...        0 min,  0.479 sec
     gradient                   ...        0 min,  0.043 sec
 * total energy  :  -190.2856466 Eh     change       -0.6428815E-04 Eh
   gradient norm :     0.0010676 Eh/α   predicted    -0.2737551E-04 ( -57.42%)
   displ. norm   :     0.3530449 α      lambda       -0.3609118E-04
   maximum displ.:     0.2436931 α      in ANC's #1, #2, #4, ...

........................................................................
.............................. CYCLE   38 ..............................
........................................................................

 iter      E             dE          RMSdq      gap      omega  full diag
   1   -193.6301402 -0.193630E+03  0.191E-02    0.48       0.0  T
   2   -193.6300966  0.435512E-04  0.199E-02    0.48       1.0  T
   3   -193.6299627  0.133940E-03  0.341E-02    0.48       1.0  T
   4   -193.6301411 -0.178346E-03  0.289E-03    0.48       3.2  T
   5   -193.6301423 -0.125990E-05  0.546E-04    0.48      17.0  T
   6   -193.6301423 -0.262912E-07  0.270E-04    0.48      34.4  T
   7   -193.6301423 -0.261656E-08  0.117E-04    0.48      79.5  T
     SCC iter.                  ...        0 min,  0.601 sec
     gradient                   ...        0 min,  0.043 sec
 * total energy  :  -190.2856952 Eh     change       -0.4862314E-04 Eh
   gradient norm :     0.0007718 Eh/α   predicted    -0.1904595E-04 ( -60.83%)
   displ. norm   :     0.2720287 α      lambda       -0.3223002E-04
   maximum displ.:     0.1927814 α      in ANC's #1, #4, #2, ...

........................................................................
.............................. CYCLE   39 ..............................
........................................................................

 iter      E             dE          RMSdq      gap      omega  full diag
   1   -193.6306631 -0.193631E+03  0.161E-02    0.48       0.0  T
   2   -193.6306373  0.257932E-04  0.158E-02    0.48       1.0  T
   3   -193.6305239  0.113480E-03  0.301E-02    0.48       1.0  T
   4   -193.6306633 -0.139413E-03  0.288E-03    0.48       3.2  T
   5   -193.6306645 -0.124511E-05  0.477E-04    0.48      19.5  T
   6   -193.6306645 -0.225620E-07  0.220E-04    0.48      42.2  T
   7   -193.6306645 -0.140540E-08  0.104E-04    0.48      89.2  T
     SCC iter.                  ...        0 min,  0.648 sec
     gradient                   ...        0 min,  0.042 sec
 * total energy  :  -190.2857391 Eh     change       -0.4385138E-04 Eh
   gradient norm :     0.0005122 Eh/α   predicted    -0.1664573E-04 ( -62.04%)
   displ. norm   :     0.2532155 α      lambda       -0.3364828E-04
   maximum displ.:     0.1793587 α      in ANC's #1, #4, #8, ...

........................................................................
.............................. CYCLE   40 ..............................
........................................................................

 iter      E             dE          RMSdq      gap      omega  full diag
   1   -193.6309311 -0.193631E+03  0.172E-02    0.48       0.0  T
   2   -193.6309075  0.236301E-04  0.159E-02    0.48       1.0  T
   3   -193.6307540  0.153488E-03  0.338E-02    0.48       1.0  T
   4   -193.6309312 -0.177155E-03  0.298E-03    0.48       3.1  T
   5   -193.6309325 -0.130557E-05  0.445E-04    0.48      20.9  T
   6   -193.6309325 -0.187722E-07  0.208E-04    0.48      44.6  T
   7   -193.6309325 -0.145536E-08  0.101E-04    0.48      91.7  T
     SCC iter.                  ...        0 min,  0.371 sec
     gradient                   ...        0 min,  0.043 sec
 * total energy  :  -190.2857845 Eh     change       -0.4541027E-04 Eh
   gradient norm :     0.0005561 Eh/α   predicted    -0.1730424E-04 ( -61.89%)
   displ. norm   :     0.2734031 α      lambda       -0.3678310E-04
   maximum displ.:     0.1883455 α      in ANC's #1, #8, #7, ...

........................................................................
.............................. CYCLE   41 ..............................
........................................................................

 iter      E             dE          RMSdq      gap      omega  full diag
   1   -193.6309942 -0.193631E+03  0.208E-02    0.48       0.0  T
   2   -193.6309746  0.196099E-04  0.165E-02    0.48       1.0  T
   3   -193.6306706  0.304021E-03  0.452E-02    0.48       1.0  T
   4   -193.6309937 -0.323131E-03  0.347E-03    0.48       2.7  T
   5   -193.6309955 -0.179915E-05  0.466E-04    0.48      19.9  T
   6   -193.6309955 -0.203956E-07  0.220E-04    0.48      42.3  T
   7   -193.6309955 -0.169049E-08  0.108E-04    0.48      85.8  T
     SCC iter.                  ...        0 min,  0.328 sec
     gradient                   ...        0 min,  0.046 sec
 * total energy  :  -190.2858337 Eh     change       -0.4916263E-04 Eh
   gradient norm :     0.0007924 Eh/α   predicted    -0.1900350E-04 ( -61.35%)
   displ. norm   :     0.2968369 α      lambda       -0.3832719E-04
   maximum displ.:     0.1978228 α      in ANC's #1, #8, #7, ...

........................................................................
.............................. CYCLE   42 ..............................
........................................................................

 iter      E             dE          RMSdq      gap      omega  full diag
   1   -193.6310181 -0.193631E+03  0.240E-02    0.47       0.0  T
   2   -193.6310032  0.148385E-04  0.171E-02    0.47       1.0  T
   3   -193.6305286  0.474672E-03  0.554E-02    0.47       1.0  T
   4   -193.6310174 -0.488848E-03  0.348E-03    0.47       2.7  T
   5   -193.6310192 -0.179703E-05  0.446E-04    0.47      20.8  T
   6   -193.6310192 -0.162989E-07  0.221E-04    0.47      42.0  T
   7   -193.6310192 -0.165159E-08  0.111E-04    0.47      83.4  T
     SCC iter.                  ...        0 min,  0.383 sec
     gradient                   ...        0 min,  0.042 sec
 * total energy  :  -190.2858849 Eh     change       -0.5123556E-04 Eh
   gradient norm :     0.0009695 Eh/α   predicted    -0.1991539E-04 ( -61.13%)
   displ. norm   :     0.3090105 α      lambda       -0.3852539E-04
   maximum displ.:     0.2012114 α      in ANC's #1, #7, #8, ...
 * RMSD in coord.:     0.6121580 α      energy gain  -0.1217156E-02 Eh

generating ANC from model Hessian ...
Using Lindh-Hessian (1995)
 Shifting diagonal of input Hessian by    1.0060659634300636E-002
 Lowest  eigenvalues of input Hessian
    0.010000    0.000000    0.000000    0.000000    0.000000    0.000000
    0.000000    0.010106    0.010215    0.010351    0.010408    0.010561
    0.010625    0.010841    0.011152    0.011171    0.011280    0.011394
 Highest eigenvalues
    2.165037    2.175861    2.293325    2.305417    2.500355    2.501770


........................................................................
.............................. CYCLE   43 ..............................
........................................................................

 iter      E             dE          RMSdq      gap      omega  full diag
   1   -193.6308325 -0.193631E+03  0.261E-02    0.47       0.0  T
   2   -193.6308243  0.821810E-05  0.170E-02    0.47       1.0  T
   3   -193.6302799  0.544381E-03  0.586E-02    0.47       1.0  T
   4   -193.6308313 -0.551447E-03  0.362E-03    0.47       2.6  T
   5   -193.6308333 -0.201030E-05  0.441E-04    0.47      21.1  T
   6   -193.6308334 -0.164658E-07  0.208E-04    0.47      44.7  T
   7   -193.6308334 -0.107224E-08  0.103E-04    0.47      90.2  T
     SCC iter.                  ...        0 min,  0.334 sec
     gradient                   ...        0 min,  0.042 sec
 * total energy  :  -190.2859365 Eh     change       -0.5164379E-04 Eh
   gradient norm :     0.0009434 Eh/α   predicted     0.0000000E+00 (-100.00%)
   displ. norm   :     0.0462570 α      lambda       -0.1176108E-04
   maximum displ.:     0.0312354 α      in ANC's #1, #2, #25, ...

........................................................................
.............................. CYCLE   44 ..............................
........................................................................

 iter      E             dE          RMSdq      gap      omega  full diag
   1   -193.6308262 -0.193631E+03  0.542E-03    0.47       0.0  T
   2   -193.6308254  0.819373E-06  0.398E-03    0.47       2.3  T
   3   -193.6308028  0.225649E-04  0.121E-02    0.47       1.0  T
   4   -193.6308261 -0.233099E-04  0.112E-03    0.47       8.3  T
   5   -193.6308263 -0.184091E-06  0.193E-04    0.47      48.2  T
   6   -193.6308263 -0.524219E-08  0.661E-05    0.47     140.4  T
     SCC iter.                  ...        0 min,  0.335 sec
     gradient                   ...        0 min,  0.042 sec
 * total energy  :  -190.2859529 Eh     change       -0.1638505E-04 Eh
   gradient norm :     0.0005364 Eh/α   predicted    -0.6022176E-05 ( -63.25%)
   displ. norm   :     0.1594273 α      lambda       -0.3459638E-04
   maximum displ.:     0.0953429 α      in ANC's #1, #2, #25, ...

........................................................................
.............................. CYCLE   45 ..............................
........................................................................

 iter      E             dE          RMSdq      gap      omega  full diag
   1   -193.6305240 -0.193631E+03  0.190E-02    0.48       0.0  T
   2   -193.6305095  0.144414E-04  0.148E-02    0.48       1.0  T
   3   -193.6302327  0.276835E-03  0.427E-02    0.48       1.0  T
   4   -193.6305234 -0.290726E-03  0.340E-03    0.48       2.7  T
   5   -193.6305252 -0.175559E-05  0.590E-04    0.48      15.7  T
   6   -193.6305252 -0.482859E-07  0.207E-04    0.48      44.8  T
   7   -193.6305252 -0.191878E-08  0.105E-04    0.48      88.1  T
     SCC iter.                  ...        0 min,  1.337 sec
     gradient                   ...        0 min,  0.076 sec
 * total energy  :  -190.2859911 Eh     change       -0.3815044E-04 Eh
   gradient norm :     0.0008710 Eh/α   predicted    -0.1749606E-04 ( -54.14%)
   displ. norm   :     0.1763277 α      lambda       -0.2618316E-04
   maximum displ.:     0.1137006 α      in ANC's #1, #2, #25, ...

........................................................................
.............................. CYCLE   46 ..............................
........................................................................

 iter      E             dE          RMSdq      gap      omega  full diag
   1   -193.6303326 -0.193630E+03  0.182E-02    0.48       0.0  T
   2   -193.6303085  0.240599E-04  0.164E-02    0.48       1.0  T
   3   -193.6301159  0.192604E-03  0.371E-02    0.48       1.0  T
   4   -193.6303326 -0.216737E-03  0.293E-03    0.48       3.2  T
   5   -193.6303339 -0.131425E-05  0.523E-04    0.48      17.8  T
   6   -193.6303340 -0.348667E-07  0.212E-04    0.48      43.8  T
   7   -193.6303340 -0.213791E-08  0.104E-04    0.48      89.6  T
     SCC iter.                  ...        0 min,  1.038 sec
     gradient                   ...        0 min,  0.066 sec
 * total energy  :  -190.2860148 Eh     change       -0.2373089E-04 Eh
   gradient norm :     0.0011659 Eh/α   predicted    -0.1327304E-04 ( -44.07%)
   displ. norm   :     0.1199218 α      lambda       -0.1714915E-04
   maximum displ.:     0.0772700 α      in ANC's #1, #2, #7, ...

........................................................................
.............................. CYCLE   47 ..............................
........................................................................

 iter      E             dE          RMSdq      gap      omega  full diag
   1   -193.6303022 -0.193630E+03  0.120E-02    0.48       0.0  T
   2   -193.6302751  0.270623E-04  0.148E-02    0.48       1.0  T
   3   -193.6302551  0.200399E-04  0.180E-02    0.48       1.0  T
   4   -193.6303028 -0.477196E-04  0.167E-03    0.48       5.6  T
   5   -193.6303033 -0.488798E-06  0.238E-04    0.48      38.9  T
   6   -193.6303033 -0.391981E-08  0.127E-04    0.48      73.0  T
     SCC iter.                  ...        0 min,  0.970 sec
     gradient                   ...        0 min,  0.052 sec
 * total energy  :  -190.2860343 Eh     change       -0.1946092E-04 Eh
   gradient norm :     0.0010144 Eh/α   predicted    -0.8633358E-05 ( -55.64%)
   displ. norm   :     0.1632728 α      lambda       -0.2265458E-04
   maximum displ.:     0.1100497 α      in ANC's #1, #2, #7, ...

........................................................................
.............................. CYCLE   48 ..............................
........................................................................

 iter      E             dE          RMSdq      gap      omega  full diag
   1   -193.6305032 -0.193631E+03  0.130E-02    0.48       0.0  T
   2   -193.6304678  0.354411E-04  0.168E-02    0.48       1.0  T
   3   -193.6304532  0.145387E-04  0.187E-02    0.48       1.0  T
   4   -193.6305043 -0.510183E-04  0.138E-03    0.48       6.7  T
   5   -193.6305046 -0.334110E-06  0.240E-04    0.48      38.7  T
   6   -193.6305046 -0.441989E-08  0.135E-04    0.48      69.0  T
     SCC iter.                  ...        0 min,  1.000 sec
     gradient                   ...        0 min,  0.043 sec
 * total energy  :  -190.2860645 Eh     change       -0.3028185E-04 Eh
   gradient norm :     0.0008496 Eh/α   predicted    -0.1146402E-04 ( -62.14%)
   displ. norm   :     0.2312966 α      lambda       -0.3573226E-04
   maximum displ.:     0.1545476 α      in ANC's #1, #2, #7, ...

........................................................................
.............................. CYCLE   49 ..............................
........................................................................

 iter      E             dE          RMSdq      gap      omega  full diag
   1   -193.6307603 -0.193631E+03  0.170E-02    0.48       0.0  T
   2   -193.6307371  0.231923E-04  0.157E-02    0.48       1.0  T
   3   -193.6305829  0.154277E-03  0.337E-02    0.48       1.0  T
   4   -193.6307607 -0.177842E-03  0.245E-03    0.48       3.8  T
   5   -193.6307615 -0.822547E-06  0.421E-04    0.48      22.0  T
   6   -193.6307616 -0.156539E-07  0.220E-04    0.48      42.2  T
     SCC iter.                  ...        0 min,  0.320 sec
     gradient                   ...        0 min,  0.043 sec
 * total energy  :  -190.2861109 Eh     change       -0.4639727E-04 Eh
   gradient norm :     0.0007867 Eh/α   predicted    -0.1829252E-04 ( -60.57%)
   displ. norm   :     0.2570032 α      lambda       -0.3372091E-04
   maximum displ.:     0.1732172 α      in ANC's #1, #2, #7, ...

........................................................................
.............................. CYCLE   50 ..............................
........................................................................

 iter      E             dE          RMSdq      gap      omega  full diag
   1   -193.6308944 -0.193631E+03  0.174E-02    0.47       0.0  T
   2   -193.6308946 -0.228291E-06  0.102E-02    0.47       1.0  T
   3   -193.6308871  0.746309E-05  0.709E-03    0.47       1.3  T
   4   -193.6308815  0.565105E-05  0.898E-03    0.47       1.0  T
   5   -193.6308948 -0.133361E-04  0.461E-04    0.47      20.2  T
   6   -193.6308948 -0.180873E-07  0.235E-04    0.47      39.6  T
   7   -193.6308948 -0.395059E-08  0.112E-04    0.47      82.9  T
     SCC iter.                  ...        0 min,  0.419 sec
     gradient                   ...        0 min,  0.043 sec
 * total energy  :  -190.2861531 Eh     change       -0.4213576E-04 Eh
   gradient norm :     0.0008828 Eh/α   predicted    -0.1735748E-04 ( -58.81%)
   displ. norm   :     0.2136915 α      lambda       -0.2283598E-04
   maximum displ.:     0.1465505 α      in ANC's #1, #2, #7, ...

........................................................................
.............................. CYCLE   51 ..............................
........................................................................

 iter      E             dE          RMSdq      gap      omega  full diag
   1   -193.6310574 -0.193631E+03  0.132E-02    0.47       0.0  T
   2   -193.6310461  0.112537E-04  0.114E-02    0.47       1.0  T
   3   -193.6309418  0.104267E-03  0.272E-02    0.47       1.0  T
   4   -193.6310576 -0.115806E-03  0.170E-03    0.47       5.5  T
   5   -193.6310580 -0.372969E-06  0.324E-04    0.47      28.6  T
   6   -193.6310580 -0.837258E-08  0.176E-04    0.47      52.9  T
     SCC iter.                  ...        0 min,  0.367 sec
     gradient                   ...        0 min,  0.041 sec
 * total energy  :  -190.2861830 Eh     change       -0.2989054E-04 Eh
   gradient norm :     0.0007614 Eh/α   predicted    -0.1165266E-04 ( -61.02%)
   displ. norm   :     0.1845996 α      lambda       -0.1953429E-04
   maximum displ.:     0.1278828 α      in ANC's #1, #2, #7, ...

........................................................................
.............................. CYCLE   52 ..............................
........................................................................

 iter      E             dE          RMSdq      gap      omega  full diag
   1   -193.6310827 -0.193631E+03  0.115E-02    0.47       0.0  T
   2   -193.6310605  0.221933E-04  0.136E-02    0.47       1.0  T
   3   -193.6310404  0.201562E-04  0.172E-02    0.47       1.0  T
   4   -193.6310834 -0.430966E-04  0.145E-03    0.47       6.4  T
   5   -193.6310837 -0.281944E-06  0.235E-04    0.47      39.5  T
   6   -193.6310837 -0.289054E-08  0.131E-04    0.47      70.9  T
     SCC iter.                  ...        0 min,  0.621 sec
     gradient                   ...        0 min,  0.057 sec
 * total energy  :  -190.2862096 Eh     change       -0.2658445E-04 Eh
   gradient norm :     0.0005650 Eh/α   predicted    -0.9918043E-05 ( -62.69%)
   displ. norm   :     0.2034845 α      lambda       -0.2235938E-04
   maximum displ.:     0.1414966 α      in ANC's #1, #2, #7, ...

........................................................................
.............................. CYCLE   53 ..............................
........................................................................

 iter      E             dE          RMSdq      gap      omega  full diag
   1   -193.6311120 -0.193631E+03  0.131E-02    0.46       0.0  T
   2   -193.6310859  0.261035E-04  0.149E-02    0.46       1.0  T
   3   -193.6310527  0.331745E-04  0.202E-02    0.46       1.0  T
   4   -193.6311129 -0.601761E-04  0.158E-03    0.46       5.9  T
   5   -193.6311132 -0.331134E-06  0.279E-04    0.46      33.2  T
   6   -193.6311132 -0.518497E-08  0.141E-04    0.46      65.9  T
     SCC iter.                  ...        0 min,  1.249 sec
     gradient                   ...        0 min,  0.072 sec
 * total energy  :  -190.2862396 Eh     change       -0.3009210E-04 Eh
   gradient norm :     0.0004620 Eh/α   predicted    -0.1138816E-04 ( -62.16%)
   displ. norm   :     0.2362065 α      lambda       -0.2438671E-04
   maximum displ.:     0.1648687 α      in ANC's #1, #2, #7, ...

........................................................................
.............................. CYCLE   54 ..............................
........................................................................

 iter      E             dE          RMSdq      gap      omega  full diag
   1   -193.6309466 -0.193631E+03  0.161E-02    0.46       0.0  T
   2   -193.6309162  0.303485E-04  0.167E-02    0.46       1.0  T
   3   -193.6308368  0.794200E-04  0.271E-02    0.46       1.0  T
   4   -193.6309474 -0.110636E-03  0.224E-03    0.46       4.1  T
   5   -193.6309481 -0.683628E-06  0.370E-04    0.46      25.1  T
   6   -193.6309481 -0.119486E-07  0.173E-04    0.46      53.6  T
     SCC iter.                  ...        0 min,  1.122 sec
     gradient                   ...        0 min,  0.053 sec
 * total energy  :  -190.2862713 Eh     change       -0.3165550E-04 Eh
   gradient norm :     0.0005373 Eh/α   predicted    -0.1249652E-04 ( -60.52%)
   displ. norm   :     0.2331079 α      lambda       -0.2076196E-04
   maximum displ.:     0.1649876 α      in ANC's #1, #2, #7, ...

........................................................................
.............................. CYCLE   55 ..............................
........................................................................

 iter      E             dE          RMSdq      gap      omega  full diag
   1   -193.6309349 -0.193631E+03  0.156E-02    0.46       0.0  T
   2   -193.6309243  0.105760E-04  0.122E-02    0.46       1.0  T
   3   -193.6307469  0.177409E-03  0.344E-02    0.46       1.0  T
   4   -193.6309351 -0.188171E-03  0.198E-03    0.46       4.7  T
   5   -193.6309356 -0.540919E-06  0.359E-04    0.46      25.8  T
   6   -193.6309356 -0.112951E-07  0.167E-04    0.46      55.7  T
     SCC iter.                  ...        0 min,  0.766 sec
     gradient                   ...        0 min,  0.057 sec
 * total energy  :  -190.2862977 Eh     change       -0.2644398E-04 Eh
   gradient norm :     0.0005273 Eh/α   predicted    -0.1063298E-04 ( -59.79%)
   displ. norm   :     0.1821098 α      lambda       -0.1433150E-04
   maximum displ.:     0.1311808 α      in ANC's #1, #2, #7, ...

........................................................................
.............................. CYCLE   56 ..............................
........................................................................

 iter      E             dE          RMSdq      gap      omega  full diag
   1   -193.6309357 -0.193631E+03  0.123E-02    0.46       0.0  T
   2   -193.6309327  0.297650E-05  0.841E-03    0.46       1.1  T
   3   -193.6307989  0.133796E-03  0.291E-02    0.46       1.0  T
   4   -193.6309357 -0.136770E-03  0.155E-03    0.46       6.0  T
   5   -193.6309360 -0.325163E-06  0.287E-04    0.46      32.4  T
   6   -193.6309360 -0.785514E-08  0.130E-04    0.46      71.4  T
     SCC iter.                  ...        0 min,  0.401 sec
     gradient                   ...        0 min,  0.044 sec
 * total energy  :  -190.2863165 Eh     change       -0.1879087E-04 Eh
   gradient norm :     0.0004398 Eh/α   predicted    -0.7275926E-05 ( -61.28%)
   displ. norm   :     0.1386518 α      lambda       -0.1102256E-04
   maximum displ.:     0.1019821 α      in ANC's #1, #2, #7, ...

........................................................................
.............................. CYCLE   57 ..............................
........................................................................

 iter      E             dE          RMSdq      gap      omega  full diag
   1   -193.6310124 -0.193631E+03  0.946E-03    0.46       0.0  T
   2   -193.6310119  0.517943E-06  0.587E-03    0.46       1.6  T
   3   -193.6309520  0.598865E-04  0.192E-02    0.46       1.0  T
   4   -193.6310124 -0.603585E-04  0.114E-03    0.46       8.1  T
   5   -193.6310125 -0.181491E-06  0.224E-04    0.46      41.4  T
   6   -193.6310125 -0.498267E-08  0.103E-04    0.46      90.2  T
[...]
     9   6 C    3.982 --     7 C    1.609     5 C    1.236    21 H    0.968
    10   6 C    3.983 --     8 C    1.616     6 C    1.228    22 H    0.968
    11   6 C    3.981 --    15 C    1.456     2 C    1.328    23 H    0.952
                            13 C    0.103
    12   6 C    3.987 --    16 C    1.521     3 C    1.311    24 H    0.953
                            14 C    0.112
    13   6 C    3.983 --    17 C    1.540     5 C    1.297    25 H    0.968
                            11 C    0.103
    14   6 C    3.984 --    18 C    1.526     6 C    1.305    26 H    0.969
                            12 C    0.112
    15   6 C    3.979 --    11 C    1.456    17 C    1.303    27 C    1.033
    16   6 C    3.986 --    12 C    1.521    18 C    1.347    28 H    0.967
    17   6 C    3.976 --    13 C    1.540    15 C    1.303    29 H    0.965
    18   6 C    3.981 --    14 C    1.526    16 C    1.347    30 H    0.971
    19   1 H    0.999 --     7 C    0.968
    20   1 H    0.999 --     8 C    0.968
    21   1 H    0.998 --     9 C    0.968
    22   1 H    0.998 --    10 C    0.968
    23   1 H    0.995 --    11 C    0.952
    24   1 H    0.997 --    12 C    0.953
    25   1 H    0.999 --    13 C    0.968
    26   1 H    0.999 --    14 C    0.969
    27   6 C    3.973 --    35 N    1.407    31 N    1.400    15 C    1.033
    28   1 H    0.998 --    16 C    0.967
    29   1 H    0.996 --    17 C    0.965
    30   1 H    0.999 --    18 C    0.971
    31   7 N    2.884 --    27 C    1.400    32 N    1.056    35 N    0.135
    32   7 N    3.594 --    33 C    1.109    37 C    1.080    31 N    1.056
                            36 O    0.116
    33   6 C    3.959 --    36 O    1.597    34 N    1.120    32 N    1.109
    34   7 N    3.584 --    33 C    1.120    43 C    1.068    35 N    1.051
                            36 O    0.123
    35   7 N    2.877 --    27 C    1.407    34 N    1.051    31 N    0.135
    36   8 O    1.963 --    33 C    1.597    34 N    0.123    32 N    0.116
    37   6 C    3.958 --    42 C    1.356    38 C    1.342    32 N    1.080
    38   6 C    3.977 --    39 C    1.470    37 C    1.342    49 H    0.961
                            41 C    0.102
    39   6 C    3.991 --    38 C    1.470    40 C    1.417    50 H    0.971
                            42 C    0.101
    40   6 C    3.966 --    41 C    1.428    39 C    1.417    51 H    0.972
    41   6 C    3.990 --    42 C    1.457    40 C    1.428    52 H    0.972
                            38 C    0.102
    42   6 C    3.977 --    41 C    1.457    37 C    1.356    53 H    0.962
                            39 C    0.101
    43   6 C    3.960 --    44 C    1.361    48 C    1.353    34 N    1.068
    44   6 C    3.979 --    45 C    1.456    43 C    1.361    58 H    0.966
                            47 C    0.102
    45   6 C    3.991 --    44 C    1.456    46 C    1.428    57 H    0.972
                            48 C    0.104
    46   6 C    3.971 --    45 C    1.428    47 C    1.421    56 H    0.972
    47   6 C    3.991 --    48 C    1.465    46 C    1.421    55 H    0.971
                            44 C    0.102
    48   6 C    3.983 --    47 C    1.465    43 C    1.353    54 H    0.963
                            45 C    0.104
    49   1 H    0.997 --    38 C    0.961
    50   1 H    0.999 --    39 C    0.971
    51   1 H    1.000 --    40 C    0.972
    52   1 H    0.999 --    41 C    0.972
    53   1 H    0.997 --    42 C    0.962
    54   1 H    0.996 --    48 C    0.963
    55   1 H    0.999 --    47 C    0.971
    56   1 H    1.000 --    46 C    0.972
    57   1 H    0.999 --    45 C    0.972
    58   1 H    0.997 --    44 C    0.966
    59   6 C    3.984 --    62 C    1.336    61 C    1.196    60 C    1.191
    60   6 C    3.987 --    69 C    1.331    63 C    1.258    59 C    1.191
    61   6 C    3.988 --    70 C    1.311    64 C    1.268    59 C    1.196
    62   6 C    3.989 --    59 C    1.336    66 C    1.231    65 C    1.229
    63   6 C    3.981 --    71 C    1.297    60 C    1.258    67 C    1.235
    64   6 C    3.985 --    72 C    1.305    61 C    1.268    68 C    1.228
    65   6 C    3.978 --    67 C    1.611    62 C    1.229    77 H    0.968
    66   6 C    3.986 --    68 C    1.615    62 C    1.231    78 H    0.967
    67   6 C    3.982 --    65 C    1.611    63 C    1.235    79 H    0.968
    68   6 C    3.983 --    66 C    1.615    64 C    1.228    80 H    0.968
    69   6 C    3.982 --    73 C    1.454    60 C    1.331    81 H    0.949
                            71 C    0.102
    70   6 C    3.989 --    74 C    1.522    61 C    1.311    82 H    0.961
                            72 C    0.112
    71   6 C    3.982 --    75 C    1.541    63 C    1.297    83 H    0.968
                            69 C    0.102
    72   6 C    3.986 --    76 C    1.527    64 C    1.305    84 H    0.968
                            70 C    0.112
    73   6 C    3.979 --    69 C    1.454    75 C    1.302    85 C    1.035
    74   6 C    3.986 --    70 C    1.522    76 C    1.346    86 H    0.970
    75   6 C    3.976 --    71 C    1.541    73 C    1.302    87 H    0.965
    76   6 C    3.981 --    72 C    1.527    74 C    1.346    88 H    0.971
    77   1 H    0.999 --    65 C    0.968
    78   1 H    0.999 --    66 C    0.967
    79   1 H    0.998 --    67 C    0.968
    80   1 H    0.998 --    68 C    0.968
    81   1 H    0.996 --    69 C    0.949
    82   1 H    0.998 --    70 C    0.961
    83   1 H    0.998 --    71 C    0.968
    84   1 H    0.999 --    72 C    0.968
    85   6 C    3.972 --    93 N    1.404    89 N    1.398    73 C    1.035
    86   1 H    0.999 --    74 C    0.970
    87   1 H    0.996 --    75 C    0.965
    88   1 H    0.999 --    76 C    0.971
    89   7 N    2.886 --    85 C    1.398    90 N    1.055    93 N    0.135
    90   7 N    3.585 --    91 C    1.105    95 C    1.076    89 N    1.055
                            94 O    0.119
    91   6 C    3.959 --    94 O    1.620    90 N    1.105    92 N    1.102
    92   7 N    3.578 --    91 C    1.102   101 C    1.066    93 N    1.060
                            94 O    0.120
    93   7 N    2.881 --    85 C    1.404    92 N    1.060    89 N    0.135
    94   8 O    1.977 --    91 C    1.620    92 N    0.120    90 N    0.119
    95   6 C    3.959 --   100 C    1.354    96 C    1.350    90 N    1.076
    96   6 C    3.978 --    97 C    1.463    95 C    1.350   107 H    0.963
                            99 C    0.102
    97   6 C    3.991 --    96 C    1.463    98 C    1.423   108 H    0.970
                           100 C    0.102
    98   6 C    3.969 --    99 C    1.424    97 C    1.423   109 H    0.972
    99   6 C    3.990 --   100 C    1.461    98 C    1.424   110 H    0.971
                            96 C    0.102
   100   6 C    3.980 --    99 C    1.461    95 C    1.354   111 H    0.963
                            97 C    0.102
   101   6 C    3.960 --   102 C    1.359   106 C    1.357    92 N    1.066
   102   6 C    3.979 --   103 C    1.460   101 C    1.359   116 H    0.963
                           105 C    0.104
   103   6 C    3.990 --   102 C    1.460   104 C    1.425   115 H    0.971
                           106 C    0.102
   104   6 C    3.969 --   105 C    1.425   103 C    1.425   114 H    0.972
   105   6 C    3.991 --   106 C    1.461   104 C    1.425   113 H    0.971
                           102 C    0.104
   106   6 C    3.978 --   105 C    1.461   101 C    1.357   112 H    0.965
                           103 C    0.102
   107   1 H    0.997 --    96 C    0.963
   108   1 H    0.999 --    97 C    0.970
   109   1 H    1.000 --    98 C    0.972
   110   1 H    0.999 --    99 C    0.971
   111   1 H    0.996 --   100 C    0.963
   112   1 H    0.998 --   106 C    0.965
   113   1 H    0.999 --   105 C    0.971
   114   1 H    1.000 --   104 C    0.972
   115   1 H    0.999 --   103 C    0.971
   116   1 H    0.995 --   102 C    0.963
 ---------------------------------------------------------------------------

Topologies differ in bond orders
Writing corrected topology to xtbtopo.mol

molecular dipole:
                 x           y           z       tot (Debye)
 q only:        3.100       2.438      -3.408
   full:        2.936       2.356      -3.437      12.957
molecular quadrupole (traceless):
                xx          xy          yy          xz          yz          zz
 q only:        0.937     -30.588     -11.146      21.556      18.862      10.209
  q+dip:       13.290     -29.140       2.506      22.771      15.317     -15.797
   full:        3.215     -27.466     -10.103      21.529      18.461       6.888

           -------------------------------------------------
          |                Geometry Summary                 |
           -------------------------------------------------

      molecular mass/u    :      955.0730446
   center of mass at/Å    :       -0.2032820       0.3766279       1.7197388
  moments of inertia/u·Å² :        0.8985343E+04   0.1726527E+05   0.2094820E+05
rotational constants/cm⁻¹ :        0.1876126E-02   0.9763897E-03   0.8047295E-03

 * 118 selected distances

     #   Z          #   Z                                           value/Å
     1   6 C        4   6 C                                       1.4057933
     2   6 C        5   6 C                                       1.4196302
     3   6 C        6   6 C                                       1.4191900
     4   6 C        7   6 C                                       1.4184602
     4   6 C        8   6 C                                       1.4183722
     5   6 C        9   6 C                                       1.4163324
     7   6 C        9   6 C                                       1.3557466
     6   6 C       10   6 C                                       1.4182399
     8   6 C       10   6 C                                       1.3545843
     2   6 C       11   6 C                                       1.4019263
     3   6 C       12   6 C                                       1.4082506
     5   6 C       13   6 C                                       1.4068447
     6   6 C       14   6 C                                       1.4057363
    11   6 C       15   6 C                                       1.3785100
    12   6 C       16   6 C                                       1.3710359
    13   6 C       17   6 C                                       1.3671712
    15   6 C       17   6 C                                       1.4025567
    14   6 C       18   6 C                                       1.3688954
    16   6 C       18   6 C                                       1.3966579
     7   6 C       19   1 H                                       1.0818945
     8   6 C       20   1 H                                       1.0819943
     9   6 C       21   1 H                                       1.0814057
    10   6 C       22   1 H                                       1.0820233
    11   6 C       23   1 H                                       1.0757577
    12   6 C       24   1 H                                       1.0759824
    13   6 C       25   1 H                                       1.0818376
    14   6 C       26   1 H                                       1.0822991
    16   6 C       28   1 H                                       1.0796081
    17   6 C       29   1 H                                       1.0779261
    18   6 C       30   1 H                                       1.0810276
    27   6 C       31   7 N                                       1.3156740
    32   7 N       33   6 C                                       1.3843191
    33   6 C       34   7 N                                       1.3814973
    27   6 C       35   7 N                                       1.3145211
    33   6 C       36   8 O                                       1.2172219
    32   7 N       37   6 C                                       1.3967414
    37   6 C       38   6 C                                       1.3989644
    38   6 C       39   6 C                                       1.3771879
    39   6 C       40   6 C                                       1.3855350
    40   6 C       41   6 C                                       1.3842598
    37   6 C       42   6 C                                       1.3952184
    41   6 C       42   6 C                                       1.3813474
    34   7 N       43   6 C                                       1.3982003
    43   6 C       44   6 C                                       1.3937712
    44   6 C       45   6 C                                       1.3810109
    45   6 C       46   6 C                                       1.3843490
    46   6 C       47   6 C                                       1.3854697
    43   6 C       48   6 C                                       1.3957657
    47   6 C       48   6 C                                       1.3781038
    38   6 C       49   1 H                                       1.0763530
    39   6 C       50   1 H                                       1.0810634
    40   6 C       51   1 H                                       1.0809138
    41   6 C       52   1 H                                       1.0814502
    42   6 C       53   1 H                                       1.0762677
    48   6 C       54   1 H                                       1.0773715
    47   6 C       55   1 H                                       1.0809806
    46   6 C       56   1 H                                       1.0808288
    45   6 C       57   1 H                                       1.0812758
    44   6 C       58   1 H                                       1.0769864
    59   6 C       62   6 C                                       1.4052082
    60   6 C       63   6 C                                       1.4197437 (max)
    61   6 C       64   6 C                                       1.4186849
    62   6 C       65   6 C                                       1.4186263
    62   6 C       66   6 C                                       1.4182044
    63   6 C       67   6 C                                       1.4168340
    65   6 C       67   6 C                                       1.3556908
    64   6 C       68   6 C                                       1.4178707
    66   6 C       68   6 C                                       1.3548100
    60   6 C       69   6 C                                       1.4016907
    61   6 C       70   6 C                                       1.4082798
    63   6 C       71   6 C                                       1.4068092
    64   6 C       72   6 C                                       1.4052075
    69   6 C       73   6 C                                       1.3786186
    70   6 C       74   6 C                                       1.3712663
    71   6 C       75   6 C                                       1.3669671
    73   6 C       75   6 C                                       1.4030406
    72   6 C       76   6 C                                       1.3686921
    74   6 C       76   6 C                                       1.3971267
    65   6 C       77   1 H                                       1.0816724
    66   6 C       78   1 H                                       1.0814919
    67   6 C       79   1 H                                       1.0817879
    68   6 C       80   1 H                                       1.0811065
    69   6 C       81   1 H                                       1.0755870 (min)
    70   6 C       82   1 H                                       1.0780705
    71   6 C       83   1 H                                       1.0820986
    72   6 C       84   1 H                                       1.0814111
    74   6 C       86   1 H                                       1.0805209
    75   6 C       87   1 H                                       1.0781573
    76   6 C       88   1 H                                       1.0806398
    85   6 C       89   7 N                                       1.3173499
    90   7 N       91   6 C                                       1.3854705
    91   6 C       92   7 N                                       1.3859149
    85   6 C       93   7 N                                       1.3158289
    91   6 C       94   8 O                                       1.2138571
    90   7 N       95   6 C                                       1.3966814
    95   6 C       96   6 C                                       1.3971995
    96   6 C       97   6 C                                       1.3789172
    97   6 C       98   6 C                                       1.3849145
    98   6 C       99   6 C                                       1.3850757
    95   6 C      100   6 C                                       1.3951663
    99   6 C      100   6 C                                       1.3801410
    92   7 N      101   6 C                                       1.3976687
   101   6 C      102   6 C                                       1.3935617
   102   6 C      103   6 C                                       1.3801609
   103   6 C      104   6 C                                       1.3854836
   104   6 C      105   6 C                                       1.3849367
   101   6 C      106   6 C                                       1.3947788
   105   6 C      106   6 C                                       1.3790428
    96   6 C      107   1 H                                       1.0777763
    97   6 C      108   1 H                                       1.0822408
    98   6 C      109   1 H                                       1.0809825
    99   6 C      110   1 H                                       1.0806436
   100   6 C      111   1 H                                       1.0761736
   106   6 C      112   1 H                                       1.0783146
   105   6 C      113   1 H                                       1.0816835
   104   6 C      114   1 H                                       1.0811426
   103   6 C      115   1 H                                       1.0807153
   102   6 C      116   1 H                                       1.0769504
Note: The following floating-point exceptions are signalling: IEEE_UNDERFLOW_FLAG
normal termination of xtb

 * 4 distinct bonds (by element types)

   Z      Z             #   av. dist./Å        max./Å        min./Å
   1 H    6 C          42     1.0798670     1.0822991     1.0755870
   6 C    6 C          62     1.3927043     1.4197437     1.3545843
   6 C    7 N          12     1.3658223     1.3982003     1.3145211
   6 C    8 O           2     1.2155395     1.2172219     1.2138571


optimized geometry written to: xtbopt.mol


           -------------------------------------------------
          | TOTAL ENERGY             -190.286494483435 Eh   |
          | GRADIENT NORM               0.000267039377 Eh/α |
          | HOMO-LUMO GAP               0.480171894522 eV   |
           -------------------------------------------------
########################################################################
[WARNING] Runtime exception occurred
-2- restart_readRestart: Multiplicity missmatch in restart file.
-1- restart_readRestart: Number of electron missmatch in restart file.
########################################################################

------------------------------------------------------------------------
 * finished run on 2024/11/14 at 14:03:04.019     
------------------------------------------------------------------------
 total:
 * wall-time:     0 d,  0 h,  0 min, 43.460 sec
 *  cpu-time:     0 d,  0 h,  2 min, 38.755 sec
 * ratio c/w:     3.653 speedup
 SCF:
 * wall-time:     0 d,  0 h,  0 min,  1.329 sec
 *  cpu-time:     0 d,  0 h,  0 min,  5.287 sec
 * ratio c/w:     3.978 speedup
 ANC optimizer:
 * wall-time:     0 d,  0 h,  0 min, 42.096 sec
 *  cpu-time:     0 d,  0 h,  2 min, 33.431 sec
 * ratio c/w:     3.645 speedup

