      -----------------------------------------------------------      
     |                   =====================                   |     
     |                           x T B                           |     
     |                   =====================                   |     
     |                         S. Grimme                         |     
     |          Mulliken Center for Theoretical Chemistry        |     
     |                    University of Bonn                     |     
      -----------------------------------------------------------      

   * xtb version 6.6.1 (8d0f1dd) compiled by 'runner@Mac-1690902418499.local' on 2023-08-01

   xtb is free software: you can redistribute it and/or modify it under
   the terms of the GNU Lesser General Public License as published by
   the Free Software Foundation, either version 3 of the License, or
   (at your option) any later version.
   
   xtb is distributed in the hope that it will be useful,
   but WITHOUT ANY WARRANTY; without even the implied warranty of
   MERCHANTABILITY or FITNESS FOR A PARTICULAR PURPOSE.  See the
   GNU Lesser General Public License for more details.
   
   Cite this work as:
   * C. Bannwarth, E. Caldeweyher, S. Ehlert, A. Hansen, P. Pracht,
     J. Seibert, S. Spicher, S. Grimme, WIREs Comput. Mol. Sci., 2020, 11,
     e01493. DOI: 10.1002/wcms.1493
   
   for GFN2-xTB:
   * C. Bannwarth, S. Ehlert and S. Grimme., J. Chem. Theory Comput., 2019,
     15, 1652-1671. DOI: 10.1021/acs.jctc.8b01176
   for GFN1-xTB:
   * S. Grimme, C. Bannwarth, P. Shushkov, J. Chem. Theory Comput., 2017,
     13, 1989-2009. DOI: 10.1021/acs.jctc.7b00118
   for GFN0-xTB:
   * P. Pracht, E. Caldeweyher, S. Ehlert, S. Grimme, ChemRxiv, 2019, preprint.
     DOI: 10.26434/chemrxiv.8326202.v1
   for GFN-FF:
   * S. Spicher and S. Grimme, Angew. Chem. Int. Ed., 2020, 59, 15665-15673.
     DOI: 10.1002/anie.202004239
   
   for ALPB and GBSA implicit solvation:
   * S. Ehlert, M. Stahn, S. Spicher, S. Grimme, J. Chem. Theory Comput.,
     2021, 17, 4250-4261. DOI: 10.1021/acs.jctc.1c00471
   
   for DFT-D4:
   * E. Caldeweyher, C. Bannwarth and S. Grimme, J. Chem. Phys., 2017,
     147, 034112. DOI: 10.1063/1.4993215
   * E. Caldeweyher, S. Ehlert, A. Hansen, H. Neugebauer, S. Spicher,
     C. Bannwarth and S. Grimme, J. Chem. Phys., 2019, 150, 154122.
     DOI: 10.1063/1.5090222
   * E. Caldeweyher, J.-M. Mewes, S. Ehlert and S. Grimme, Phys. Chem. Chem. Phys.
     2020, 22, 8499-8512. DOI: 10.1039/D0CP00502A
   
   for sTDA-xTB:
   * S. Grimme and C. Bannwarth, J. Chem. Phys., 2016, 145, 054103.
     DOI: 10.1063/1.4959605
   
   in the mass-spec context:
   * V. Asgeirsson, C. Bauer and S. Grimme, Chem. Sci., 2017, 8, 4879.
     DOI: 10.1039/c7sc00601b
   * J. Koopman and S. Grimme, ACS Omega 2019, 4, 12, 15120-15133.
     DOI: 10.1021/acsomega.9b02011
   
   for metadynamics refer to:
   * S. Grimme, J. Chem. Theory Comput., 2019, 155, 2847-2862
     DOI: 10.1021/acs.jctc.9b00143
   
   for SPH calculations refer to:
   * S. Spicher and S. Grimme, J. Chem. Theory Comput., 2021, 17, 1701-1714
     DOI: 10.1021/acs.jctc.0c01306
   
   with help from (in alphabetical order)
   P. Atkinson, C. Bannwarth, F. Bohle, G. Brandenburg, E. Caldeweyher
   M. Checinski, S. Dohm, S. Ehlert, S. Ehrlich, I. Gerasimov, C. Hölzer
   A. Katbashev, J. Koopman, C. Lavigne, S. Lehtola, F. März, M. Müller,
   F. Musil, H. Neugebauer, J. Pisarek, C. Plett, P. Pracht, F. Pultar,
   J. Seibert, P. Shushkov, S. Spicher, M. Stahn, M. Steiner, T. Strunk,
   J. Stückrath, T. Rose, and J. Unsleber
   
 * started run on 2024/11/14 at 13:59:54.067     

           -------------------------------------------------
          |                Calculation Setup                |
           -------------------------------------------------

          program call               : xtb opt_radical_Verdazyl1.mol --gfn2 --sp --chrg -1 --uhf 0
          coordinate file            : opt_radical_Verdazyl1.mol
          omp threads                :                     8

   ID    Z sym.   atoms
    1    6 C      1-18, 27, 33, 37-48
    2    1 H      19-26, 28-30, 49-58
    3    7 N      31, 32, 34, 35
    4    8 O      36

           -------------------------------------------------
          |                 G F N 2 - x T B                 |
           -------------------------------------------------

        Reference                      10.1021/acs.jctc.8b01176
      * Hamiltonian:
        H0-scaling (s, p, d)           1.850000    2.230000    2.230000
        zeta-weighting                 0.500000
      * Dispersion:
        s8                             2.700000
        a1                             0.520000
        a2                             5.000000
        s9                             5.000000
      * Repulsion:
        kExp                           1.500000    1.000000
        rExp                           1.000000
      * Coulomb:
        alpha                          2.000000
        third order                    shell-resolved
        anisotropic                    true
        a3                             3.000000
        a5                             4.000000
        cn-shift                       1.200000
        cn-exp                         4.000000
        max-rad                        5.000000

q/qsh data taken from xtbrestart
CAMM data taken from xtbrestart

          ...................................................
          :                      SETUP                      :
          :.................................................:
          :  # basis functions                 169          :
          :  # atomic orbitals                 169          :
          :  # shells                           95          :
          :  # electrons                       176          :
          :  max. iterations                   250          :
          :  Hamiltonian                  GFN2-xTB          :
          :  restarted?                       true          :
          :  GBSA solvation                  false          :
          :  PC potential                    false          :
          :  electronic temp.          300.0000000     K    :
          :  accuracy                    1.0000000          :
          :  -> integral cutoff          0.2500000E+02      :
          :  -> integral neglect         0.1000000E-07      :
          :  -> SCF convergence          0.1000000E-05 Eh   :
          :  -> wf. convergence          0.1000000E-03 e    :
          :  Broyden damping             0.4000000          :
          ...................................................

 iter      E             dE          RMSdq      gap      omega  full diag
   1    -96.8500429 -0.968500E+02  0.124E+00    1.58       0.0  T
   2    -96.5348659  0.315177E+00  0.179E+00    0.08       1.0  T
   3    -96.8651030 -0.330237E+00  0.821E-01    1.47       1.0  T
   4    -96.8784890 -0.133860E-01  0.502E-01    1.10       1.0  T
   5    -96.8849541 -0.646507E-02  0.359E-01    0.77       1.0  T
   6    -96.8892333 -0.427926E-02  0.258E-01    0.45       1.0  T
   7    -96.8915665 -0.233314E-02  0.177E-01    0.26       1.0  T
   8    -96.5196097  0.371957E+00  0.177E+00    0.10       1.0  T
   9    -96.8943817 -0.374772E+00  0.316E-02    0.15       1.0  T
  10    -96.8942685  0.113217E-03  0.382E-02    0.13       1.0  T
  11    -96.8942148  0.537235E-04  0.440E-02    0.16       1.0  T
  12    -96.8942145  0.303148E-06  0.434E-02    0.16       1.0  T
  13    -96.8943282 -0.113714E-03  0.300E-02    0.15       1.0  T
  14    -96.8943677 -0.394544E-04  0.236E-02    0.15       1.0  T
  15    -96.8944061 -0.384258E-04  0.148E-02    0.15       1.0  T
  16    -96.8944245 -0.184408E-04  0.778E-03    0.15       1.7  T
  17    -96.8944314 -0.683581E-05  0.121E-03    0.14      10.8  T
  18    -96.8944315 -0.165615E-06  0.871E-05    0.14     150.7  T
  19    -96.8944315  0.201746E-08  0.152E-04    0.14      86.4  T

   *** convergence criteria satisfied after 19 iterations ***

         #    Occupation            Energy/Eh            Energy/eV
      -------------------------------------------------------------
         1        2.0000           -0.5898079             -16.0495
       ...           ...                  ...                  ...
        82        2.0000           -0.2865634              -7.7978
        83        2.0000           -0.2849488              -7.7539
        84        2.0000           -0.2766268              -7.5274
        85        2.0000           -0.2760958              -7.5129
        86        2.0000           -0.2574457              -7.0055
        87        2.0000           -0.2211324              -6.0173
        88        1.8811           -0.1784604              -4.8562 (HOMO)
        89        0.1188           -0.1732126              -4.7134 (LUMO)
        90        0.0001           -0.1667966              -4.5388
        91                         -0.1302059              -3.5431
        92                         -0.1272263              -3.4620
        93                         -0.1226098              -3.3364
       ...                                ...                  ...
       169                          0.8105149              22.0552
      -------------------------------------------------------------
                  HL-Gap            0.0052479 Eh            0.1428 eV
             Fermi-level           -0.1758371 Eh           -4.7848 eV

 SCC (total)                   0 d,  0 h,  0 min,  0.744 sec
 SCC setup                      ...        0 min,  0.000 sec (  0.019%)
 Dispersion                     ...        0 min,  0.000 sec (  0.054%)
 classical contributions        ...        0 min,  0.000 sec (  0.016%)
 integral evaluation            ...        0 min,  0.002 sec (  0.253%)
 iterations                     ...        0 min,  0.721 sec ( 96.892%)
 molecular gradient             ...        0 min,  0.009 sec (  1.268%)
 printout                       ...        0 min,  0.011 sec (  1.497%)

         :::::::::::::::::::::::::::::::::::::::::::::::::::::
         ::                     SUMMARY                     ::
         :::::::::::::::::::::::::::::::::::::::::::::::::::::
         :: total energy             -95.229486463719 Eh    ::
         :: gradient norm              0.087213797735 Eh/a0 ::
         :: HOMO-LUMO gap              0.142801693025 eV    ::
         ::.................................................::
         :: SCC energy               -96.894431536496 Eh    ::
         :: -> isotropic ES            0.130461616015 Eh    ::
         :: -> anisotropic ES          0.015782586496 Eh    ::
         :: -> anisotropic XC          0.056749056220 Eh    ::
         :: -> dispersion             -0.081107912087 Eh    ::
         :: repulsion energy           1.665532107299 Eh    ::
         :: add. restraining           0.000000000000 Eh    ::
         :: total charge              -1.000000092005 e     ::
         :::::::::::::::::::::::::::::::::::::::::::::::::::::

           -------------------------------------------------
          |                Property Printout                |
           -------------------------------------------------

    * Orbital Energies and Occupations

         #    Occupation            Energy/Eh            Energy/eV
      -------------------------------------------------------------
         1        2.0000           -0.5898079             -16.0495
       ...           ...                  ...                  ...
        76        2.0000           -0.3112730              -8.4702
        77        2.0000           -0.3071186              -8.3571
        78        2.0000           -0.3031421              -8.2489
        79        2.0000           -0.3012045              -8.1962
        80        2.0000           -0.2965473              -8.0695
        81        2.0000           -0.2929392              -7.9713
        82        2.0000           -0.2865634              -7.7978
        83        2.0000           -0.2849488              -7.7539
        84        2.0000           -0.2766268              -7.5274
        85        2.0000           -0.2760958              -7.5129
        86        2.0000           -0.2574457              -7.0055
        87        2.0000           -0.2211324              -6.0173
        88        1.8811           -0.1784604              -4.8562 (HOMO)
        89        0.1188           -0.1732126              -4.7134 (LUMO)
        90        0.0001           -0.1667966              -4.5388
        91                         -0.1302059              -3.5431
        92                         -0.1272263              -3.4620
        93                         -0.1226098              -3.3364
        94                         -0.1157509              -3.1497
        95                         -0.1122030              -3.0532
        96                         -0.0994974              -2.7075
        97                         -0.0950290              -2.5859
        98                         -0.0874229              -2.3789
        99                         -0.0670426              -1.8243
       ...                                ...                  ...
       169                          0.8105149              22.0552
      -------------------------------------------------------------
                  HL-Gap            0.0052479 Eh            0.1428 eV
             Fermi-level           -0.1758371 Eh           -4.7848 eV

     #   Z          covCN         q      C6AA      α(0)
     1   6 C        2.979    -0.006    28.177     8.707
     2   6 C        2.981     0.004    27.918     8.667
     3   6 C        2.981     0.008    27.841     8.655
     4   6 C        2.986     0.000    28.019     8.683
     5   6 C        2.988     0.002    27.972     8.676
     6   6 C        2.989     0.006    27.888     8.663
     7   6 C        2.917    -0.046    29.141     8.852
     8   6 C        2.917    -0.043    29.063     8.840
     9   6 C        2.915    -0.043    29.069     8.841
    10   6 C        2.915    -0.048    29.183     8.858
    11   6 C        2.927    -0.045    29.111     8.848
    12   6 C        2.919    -0.037    28.929     8.820
    13   6 C        2.921    -0.044    29.096     8.846
    14   6 C        2.922    -0.044    29.101     8.846
    15   6 C        2.985     0.005    27.900     8.664
    16   6 C        2.917    -0.034    28.852     8.808
    17   6 C        2.918    -0.034    28.849     8.808
    18   6 C        2.916    -0.037    28.914     8.818
    19   1 H        0.926     0.009     2.899     2.663
    20   1 H        0.926     0.011     2.872     2.650
    21   1 H        0.926     0.012     2.858     2.643
    22   1 H        0.926     0.010     2.889     2.658
    23   1 H        0.926     0.059     2.207     2.323
    24   1 H        0.926     0.043     2.413     2.429
    25   1 H        0.926     0.013     2.847     2.639
    26   1 H        0.926     0.011     2.872     2.650
    27   6 C        2.874     0.152    24.705     8.148
    28   1 H        0.926     0.023     2.688     2.564
    29   1 H        0.926     0.043     2.408     2.427
    30   1 H        0.926     0.012     2.859     2.644
    31   7 N        1.930    -0.344    29.774     8.091
    32   7 N        2.845    -0.005    21.352     6.863
    33   6 C        2.702     0.304    21.829     7.647
    34   7 N        2.848    -0.007    21.390     6.869
    35   7 N        1.926    -0.340    29.671     8.077
    36   8 O        0.858    -0.482    23.382     6.483
    37   6 C        2.929     0.065    26.553     8.451
    38   6 C        2.924    -0.047    29.169     8.857
    39   6 C        2.920    -0.037    28.911     8.817
    40   6 C        2.919    -0.053    29.304     8.877
    41   6 C        2.921    -0.037    28.930     8.820
    42   6 C        2.919    -0.051    29.268     8.872
    43   6 C        2.930     0.066    26.517     8.445
    44   6 C        2.919    -0.048    29.180     8.858
    45   6 C        2.921    -0.037    28.912     8.818
    46   6 C        2.919    -0.052    29.294     8.876
    47   6 C        2.920    -0.037    28.931     8.820
    48   6 C        2.924    -0.046    29.138     8.852
    49   1 H        0.926     0.048     2.341     2.393
    50   1 H        0.926     0.011     2.881     2.654
    51   1 H        0.926     0.002     3.020     2.718
    52   1 H        0.926     0.009     2.906     2.666
    53   1 H        0.926     0.046     2.376     2.410
    54   1 H        0.926     0.044     2.400     2.423
    55   1 H        0.926     0.009     2.904     2.665
    56   1 H        0.926     0.003     3.010     2.713
    57   1 H        0.926     0.010     2.884     2.656
    58   1 H        0.926     0.043     2.410     2.427

 Mol. C6AA /au·bohr⁶  :      52676.009097
 Mol. C8AA /au·bohr⁸  :    1324358.154399
 Mol. α(0) /au        :        369.456565


Wiberg/Mayer (AO) data.
largest (>0.10) Wiberg bond orders for each atom

 ---------------------------------------------------------------------------
     #   Z sym  total        # sym  WBO       # sym  WBO       # sym  WBO
 ---------------------------------------------------------------------------
     1   6 C    3.938 --     4 C    1.317     3 C    1.196     2 C    1.193
     2   6 C    3.987 --    11 C    1.330     5 C    1.258     1 C    1.193
     3   6 C    3.988 --    12 C    1.311     6 C    1.270     1 C    1.196
     4   6 C    3.970 --     1 C    1.317     8 C    1.238     7 C    1.233
     5   6 C    3.978 --    13 C    1.300     2 C    1.258     9 C    1.231
     6   6 C    3.984 --    14 C    1.308     3 C    1.270    10 C    1.225
     7   6 C    3.975 --     9 C    1.605     4 C    1.233    19 H    0.968
     8   6 C    3.976 --    10 C    1.603     4 C    1.238    20 H    0.968
     9   6 C    3.962 --     7 C    1.605     5 C    1.231    21 H    0.968
    10   6 C    3.952 --     8 C    1.603     6 C    1.225    22 H    0.968
    11   6 C    3.966 --    15 C    1.446     2 C    1.330    23 H    0.955
    12   6 C    3.961 --    16 C    1.510     3 C    1.311    24 H    0.961
                            14 C    0.102
    13   6 C    3.972 --    17 C    1.532     5 C    1.300    25 H    0.968
    14   6 C    3.959 --    18 C    1.510     6 C    1.308    26 H    0.969
                            12 C    0.102
    15   6 C    3.975 --    11 C    1.446    17 C    1.304    27 C    1.044
    16   6 C    3.979 --    12 C    1.510    18 C    1.355    28 H    0.971
    17   6 C    3.968 --    13 C    1.532    15 C    1.304    29 H    0.967
    18   6 C    3.967 --    14 C    1.510    16 C    1.355    30 H    0.972
    19   1 H    0.999 --     7 C    0.968
    20   1 H    0.999 --     8 C    0.968
    21   1 H    0.998 --     9 C    0.968
    22   1 H    0.999 --    10 C    0.968
    23   1 H    0.996 --    11 C    0.955
    24   1 H    0.998 --    12 C    0.961
    25   1 H    0.999 --    13 C    0.968
    26   1 H    0.999 --    14 C    0.969
    27   6 C    3.972 --    35 N    1.391    31 N    1.391    15 C    1.044
    28   1 H    0.999 --    16 C    0.971
    29   1 H    0.997 --    17 C    0.967
    30   1 H    0.999 --    18 C    0.972
    31   7 N    2.801 --    27 C    1.391    32 N    1.041    35 N    0.175
    32   7 N    3.550 --    33 C    1.108    37 C    1.083    31 N    1.041
                            36 O    0.120
    33   6 C    3.958 --    36 O    1.605    32 N    1.108    34 N    1.104
    34   7 N    3.544 --    33 C    1.104    43 C    1.081    35 N    1.040
                            36 O    0.119
    35   7 N    2.795 --    27 C    1.391    34 N    1.040    31 N    0.175
    36   8 O    1.959 --    33 C    1.605    32 N    0.120    34 N    0.119
    37   6 C    3.959 --    42 C    1.348    38 C    1.337    32 N    1.083
    38   6 C    3.975 --    39 C    1.472    37 C    1.337    49 H    0.964
    39   6 C    3.989 --    38 C    1.472    40 C    1.413    50 H    0.972
    40   6 C    3.959 --    41 C    1.419    39 C    1.413    51 H    0.973
    41   6 C    3.988 --    42 C    1.464    40 C    1.419    52 H    0.972
    42   6 C    3.977 --    41 C    1.464    37 C    1.348    53 H    0.966
    43   6 C    3.959 --    44 C    1.348    48 C    1.341    34 N    1.081
    44   6 C    3.977 --    45 C    1.464    43 C    1.348    58 H    0.967
    45   6 C    3.988 --    44 C    1.464    46 C    1.418    57 H    0.972
    46   6 C    3.958 --    45 C    1.418    47 C    1.414    56 H    0.973
Note: The following floating-point exceptions are signalling: IEEE_UNDERFLOW_FLAG
normal termination of xtb
    47   6 C    3.989 --    48 C    1.471    46 C    1.414    55 H    0.972
    48   6 C    3.976 --    47 C    1.471    43 C    1.341    54 H    0.966
    49   1 H    0.998 --    38 C    0.964
    50   1 H    0.999 --    39 C    0.972
    51   1 H    1.000 --    40 C    0.973
    52   1 H    0.999 --    41 C    0.972
    53   1 H    0.998 --    42 C    0.966
    54   1 H    0.998 --    48 C    0.966
    55   1 H    0.999 --    47 C    0.972
    56   1 H    1.000 --    46 C    0.973
    57   1 H    0.999 --    45 C    0.972
    58   1 H    0.998 --    44 C    0.967
 ---------------------------------------------------------------------------

Topologies differ in bond orders
Writing corrected topology to xtbtopo.mol

molecular dipole:
                 x           y           z       tot (Debye)
 q only:        2.113       1.486       0.485
   full:        2.023       1.438       0.462       6.416
molecular quadrupole (traceless):
                xx          xy          yy          xz          yz          zz
 q only:       -8.515     -23.547     -29.573       1.934       2.444      38.089
  q+dip:       -2.962     -23.599     -23.478       3.035       0.860      26.440
   full:       -7.438     -22.267     -29.126       2.375       2.022      36.565


           -------------------------------------------------
          | TOTAL ENERGY              -95.229486463719 Eh   |
          | GRADIENT NORM               0.087213797735 Eh/α |
          | HOMO-LUMO GAP               0.142801693025 eV   |
           -------------------------------------------------
########################################################################
[WARNING] Runtime exception occurred
-2- restart_readRestart: Multiplicity missmatch in restart file.
-1- restart_readRestart: Number of electron missmatch in restart file.
########################################################################

------------------------------------------------------------------------
 * finished run on 2024/11/14 at 13:59:54.819     
------------------------------------------------------------------------
 total:
 * wall-time:     0 d,  0 h,  0 min,  0.751 sec
 *  cpu-time:     0 d,  0 h,  0 min,  2.642 sec
 * ratio c/w:     3.516 speedup
 SCF:
 * wall-time:     0 d,  0 h,  0 min,  0.744 sec
 *  cpu-time:     0 d,  0 h,  0 min,  2.629 sec
 * ratio c/w:     3.534 speedup

