      -----------------------------------------------------------      
     |                   =====================                   |     
     |                           x T B                           |     
     |                   =====================                   |     
     |                         S. Grimme                         |     
     |          Mulliken Center for Theoretical Chemistry        |     
     |                    University of Bonn                     |     
      -----------------------------------------------------------      

   * xtb version 6.6.1 (8d0f1dd) compiled by 'runner@Mac-1690902418499.local' on 2023-08-01

   xtb is free software: you can redistribute it and/or modify it under
   the terms of the GNU Lesser General Public License as published by
   the Free Software Foundation, either version 3 of the License, or
   (at your option) any later version.
   
   xtb is distributed in the hope that it will be useful,
   but WITHOUT ANY WARRANTY; without even the implied warranty of
   MERCHANTABILITY or FITNESS FOR A PARTICULAR PURPOSE.  See the
   GNU Lesser General Public License for more details.
   
   Cite this work as:
   * C. Bannwarth, E. Caldeweyher, S. Ehlert, A. Hansen, P. Pracht,
     J. Seibert, S. Spicher, S. Grimme, WIREs Comput. Mol. Sci., 2020, 11,
     e01493. DOI: 10.1002/wcms.1493
   
   for GFN2-xTB:
   * C. Bannwarth, S. Ehlert and S. Grimme., J. Chem. Theory Comput., 2019,
     15, 1652-1671. DOI: 10.1021/acs.jctc.8b01176
   for GFN1-xTB:
   * S. Grimme, C. Bannwarth, P. Shushkov, J. Chem. Theory Comput., 2017,
     13, 1989-2009. DOI: 10.1021/acs.jctc.7b00118
   for GFN0-xTB:
   * P. Pracht, E. Caldeweyher, S. Ehlert, S. Grimme, ChemRxiv, 2019, preprint.
     DOI: 10.26434/chemrxiv.8326202.v1
   for GFN-FF:
   * S. Spicher and S. Grimme, Angew. Chem. Int. Ed., 2020, 59, 15665-15673.
     DOI: 10.1002/anie.202004239
   
   for ALPB and GBSA implicit solvation:
   * S. Ehlert, M. Stahn, S. Spicher, S. Grimme, J. Chem. Theory Comput.,
     2021, 17, 4250-4261. DOI: 10.1021/acs.jctc.1c00471
   
   for DFT-D4:
   * E. Caldeweyher, C. Bannwarth and S. Grimme, J. Chem. Phys., 2017,
     147, 034112. DOI: 10.1063/1.4993215
   * E. Caldeweyher, S. Ehlert, A. Hansen, H. Neugebauer, S. Spicher,
     C. Bannwarth and S. Grimme, J. Chem. Phys., 2019, 150, 154122.
     DOI: 10.1063/1.5090222
   * E. Caldeweyher, J.-M. Mewes, S. Ehlert and S. Grimme, Phys. Chem. Chem. Phys.
     2020, 22, 8499-8512. DOI: 10.1039/D0CP00502A
   
   for sTDA-xTB:
   * S. Grimme and C. Bannwarth, J. Chem. Phys., 2016, 145, 054103.
     DOI: 10.1063/1.4959605
   
   in the mass-spec context:
   * V. Asgeirsson, C. Bauer and S. Grimme, Chem. Sci., 2017, 8, 4879.
     DOI: 10.1039/c7sc00601b
   * J. Koopman and S. Grimme, ACS Omega 2019, 4, 12, 15120-15133.
     DOI: 10.1021/acsomega.9b02011
   
   for metadynamics refer to:
   * S. Grimme, J. Chem. Theory Comput., 2019, 155, 2847-2862
     DOI: 10.1021/acs.jctc.9b00143
   
   for SPH calculations refer to:
   * S. Spicher and S. Grimme, J. Chem. Theory Comput., 2021, 17, 1701-1714
     DOI: 10.1021/acs.jctc.0c01306
   
   with help from (in alphabetical order)
   P. Atkinson, C. Bannwarth, F. Bohle, G. Brandenburg, E. Caldeweyher
   M. Checinski, S. Dohm, S. Ehlert, S. Ehrlich, I. Gerasimov, C. Hölzer
   A. Katbashev, J. Koopman, C. Lavigne, S. Lehtola, F. März, M. Müller,
   F. Musil, H. Neugebauer, J. Pisarek, C. Plett, P. Pracht, F. Pultar,
   J. Seibert, P. Shushkov, S. Spicher, M. Stahn, M. Steiner, T. Strunk,
   J. Stückrath, T. Rose, and J. Unsleber
   
 * started run on 2024/11/14 at 13:59:54.833     

           -------------------------------------------------
          |                Calculation Setup                |
           -------------------------------------------------

          program call               : xtb opt_cation_Verdazyl1.mol --gfn2 --sp --chrg 1 --uhf 0
          coordinate file            : opt_cation_Verdazyl1.mol
          omp threads                :                     8

   ID    Z sym.   atoms
    1    6 C      1-18, 27, 33, 37-48
    2    1 H      19-26, 28-30, 49-58
    3    7 N      31, 32, 34, 35
    4    8 O      36
########################################################################
[WARNING] Please study the warnings concerning your input carefully
-1- prog_main: Charge in sdf/mol input was overwritten
########################################################################

           -------------------------------------------------
          |                 G F N 2 - x T B                 |
           -------------------------------------------------

        Reference                      10.1021/acs.jctc.8b01176
      * Hamiltonian:
        H0-scaling (s, p, d)           1.850000    2.230000    2.230000
        zeta-weighting                 0.500000
      * Dispersion:
        s8                             2.700000
        a1                             0.520000
        a2                             5.000000
        s9                             5.000000
      * Repulsion:
        kExp                           1.500000    1.000000
        rExp                           1.000000
      * Coulomb:
        alpha                          2.000000
        third order                    shell-resolved
        anisotropic                    true
        a3                             3.000000
        a5                             4.000000
        cn-shift                       1.200000
        cn-exp                         4.000000
        max-rad                        5.000000

q/qsh data taken from xtbrestart
CAMM data taken from xtbrestart

          ...................................................
          :                      SETUP                      :
          :.................................................:
          :  # basis functions                 169          :
          :  # atomic orbitals                 169          :
          :  # shells                           95          :
          :  # electrons                       174          :
          :  max. iterations                   250          :
          :  Hamiltonian                  GFN2-xTB          :
          :  restarted?                       true          :
          :  GBSA solvation                  false          :
          :  PC potential                    false          :
          :  electronic temp.          300.0000000     K    :
          :  accuracy                    1.0000000          :
          :  -> integral cutoff          0.2500000E+02      :
          :  -> integral neglect         0.1000000E-07      :
          :  -> SCF convergence          0.1000000E-05 Eh   :
          :  -> wf. convergence          0.1000000E-03 e    :
          :  Broyden damping             0.4000000          :
          ...................................................

 iter      E             dE          RMSdq      gap      omega  full diag
   1    -96.0764323 -0.960764E+02  0.158E+00    1.08       0.0  T
   2    -95.6724106  0.404022E+00  0.210E+00    0.20       1.0  T
   3    -96.1735912 -0.501181E+00  0.946E-01    1.27       1.0  T
   4    -96.2086826 -0.350914E-01  0.664E-01    1.21       1.0  T
   5    -96.2211667 -0.124841E-01  0.457E-01    0.60       1.0  T
   6    -95.8192250  0.401942E+00  0.170E+00    0.17       1.0  T
   7    -96.2249631 -0.405738E+00  0.356E-01    0.42       1.0  T
   8    -96.2247169  0.246152E-03  0.306E-01    0.38       1.0  T
   9    -96.2270061 -0.228916E-02  0.268E-01    0.29       1.0  T
  10    -96.2282498 -0.124370E-02  0.246E-01    0.24       1.0  T
  11    -96.2303916 -0.214180E-02  0.208E-01    0.20       1.0  T
  12    -96.2351036 -0.471205E-02  0.857E-02    0.09       1.0  T
  13    -96.2360651 -0.961496E-03  0.188E-02    0.11       1.0  T
  14    -96.2360508  0.143617E-04  0.208E-02    0.10       1.0  T
  15    -96.2361039 -0.531049E-04  0.674E-03    0.11       1.9  T
  16    -96.2361077 -0.377156E-05  0.397E-03    0.11       3.3  T
  17    -96.2361091 -0.148013E-05  0.220E-03    0.11       6.0  T
  18    -96.2361098 -0.656935E-06  0.985E-05    0.11     133.3  T
  19    -96.2361098  0.176063E-08  0.142E-04    0.11      92.8  T

   *** convergence criteria satisfied after 19 iterations ***

         #    Occupation            Energy/Eh            Energy/eV
      -------------------------------------------------------------
         1        2.0000           -0.8690646             -23.6485
       ...           ...                  ...                  ...
        81        2.0000           -0.5129571             -13.9583
        82        2.0000           -0.5113407             -13.9143
        83        2.0000           -0.5085216             -13.8376
        84        2.0000           -0.5066398             -13.7864
        85        2.0000           -0.5050588             -13.7433
        86        1.9999           -0.4803505             -13.0710
        87        1.7847           -0.4723313             -12.8528 (HOMO)
        88        0.2153           -0.4683127             -12.7434 (LUMO)
        89                         -0.3955357             -10.7631
        90                         -0.3697553             -10.0616
        91                         -0.3644419              -9.9170
        92                         -0.3457891              -9.4094
       ...                                ...                  ...
       169                          0.6128073              16.6753
      -------------------------------------------------------------
                  HL-Gap            0.0040186 Eh            0.1094 eV
             Fermi-level           -0.4703219 Eh          -12.7981 eV

 SCC (total)                   0 d,  0 h,  0 min,  0.638 sec
 SCC setup                      ...        0 min,  0.000 sec (  0.025%)
 Dispersion                     ...        0 min,  0.000 sec (  0.063%)
 classical contributions        ...        0 min,  0.000 sec (  0.016%)
 integral evaluation            ...        0 min,  0.002 sec (  0.315%)
 iterations                     ...        0 min,  0.612 sec ( 95.827%)
 molecular gradient             ...        0 min,  0.024 sec (  3.700%)
 printout                       ...        0 min,  0.000 sec (  0.054%)

         :::::::::::::::::::::::::::::::::::::::::::::::::::::
         ::                     SUMMARY                     ::
         :::::::::::::::::::::::::::::::::::::::::::::::::::::
         :: total energy             -94.571888381533 Eh    ::
         :: gradient norm              0.000394948016 Eh/a0 ::
         :: HOMO-LUMO gap              0.109353027916 eV    ::
         ::.................................................::
         :: SCC energy               -96.236109788962 Eh    ::
         :: -> isotropic ES            0.089001664513 Eh    ::
         :: -> anisotropic ES         -0.008616724332 Eh    ::
         :: -> anisotropic XC          0.063495945743 Eh    ::
         :: -> dispersion             -0.077010941608 Eh    ::
         :: repulsion energy           1.664790541514 Eh    ::
         :: add. restraining           0.000000000000 Eh    ::
         :: total charge               0.999998444166 e     ::
         :::::::::::::::::::::::::::::::::::::::::::::::::::::

           -------------------------------------------------
          |                Property Printout                |
           -------------------------------------------------

    * Orbital Energies and Occupations

         #    Occupation            Energy/Eh            Energy/eV
      -------------------------------------------------------------
         1        2.0000           -0.8690646             -23.6485
       ...           ...                  ...                  ...
        75        2.0000           -0.5324143             -14.4877
        76        2.0000           -0.5309452             -14.4478
        77        2.0000           -0.5295294             -14.4092
        78        2.0000           -0.5267815             -14.3345
        79        2.0000           -0.5243290             -14.2677
        80        2.0000           -0.5190332             -14.1236
        81        2.0000           -0.5129571             -13.9583
        82        2.0000           -0.5113407             -13.9143
        83        2.0000           -0.5085216             -13.8376
        84        2.0000           -0.5066398             -13.7864
        85        2.0000           -0.5050588             -13.7433
        86        1.9999           -0.4803505             -13.0710
        87        1.7847           -0.4723313             -12.8528 (HOMO)
        88        0.2153           -0.4683127             -12.7434 (LUMO)
        89                         -0.3955357             -10.7631
        90                         -0.3697553             -10.0616
        91                         -0.3644419              -9.9170
        92                         -0.3457891              -9.4094
        93                         -0.3434191              -9.3449
        94                         -0.3410108              -9.2794
        95                         -0.3395789              -9.2404
        96                         -0.3289086              -8.9501
        97                         -0.3161905              -8.6040
        98                         -0.2922937              -7.9537
       ...                                ...                  ...
       169                          0.6128073              16.6753
      -------------------------------------------------------------
                  HL-Gap            0.0040186 Eh            0.1094 eV
             Fermi-level           -0.4703219 Eh          -12.7981 eV

     #   Z          covCN         q      C6AA      α(0)
     1   6 C        2.979     0.013    27.725     8.637
     2   6 C        2.980     0.016    27.641     8.624
     3   6 C        2.980     0.012    27.733     8.638
     4   6 C        2.985     0.024    27.469     8.597
     5   6 C        2.987     0.025    27.440     8.593
     6   6 C        2.987     0.020    27.559     8.611
     7   6 C        2.917    -0.025    28.631     8.774
     8   6 C        2.916    -0.029    28.717     8.788
     9   6 C        2.914    -0.028    28.708     8.786
    10   6 C        2.915    -0.023    28.583     8.767
    11   6 C        2.925    -0.029    28.736     8.791
    12   6 C        2.918    -0.030    28.755     8.793
    13   6 C        2.920    -0.026    28.648     8.777
    14   6 C        2.922    -0.023    28.589     8.768
    15   6 C        2.982    -0.002    28.074     8.691
    16   6 C        2.916    -0.026    28.643     8.776
    17   6 C        2.917    -0.026    28.649     8.777
    18   6 C        2.915    -0.022    28.546     8.761
    19   1 H        0.926     0.058     2.220     2.330
    20   1 H        0.926     0.056     2.245     2.343
    21   1 H        0.926     0.056     2.242     2.341
    22   1 H        0.926     0.057     2.236     2.338
    23   1 H        0.926     0.067     2.116     2.275
    24   1 H        0.926     0.044     2.394     2.420
    25   1 H        0.926     0.060     2.199     2.319
    26   1 H        0.926     0.055     2.263     2.352
    27   6 C        2.883     0.161    24.524     8.119
    28   1 H        0.926     0.041     2.430     2.438
    29   1 H        0.926     0.061     2.191     2.315
    30   1 H        0.926     0.051     2.309     2.376
    31   7 N        1.937    -0.178    25.648     7.509
    32   7 N        2.848     0.087    19.738     6.599
    33   6 C        2.704     0.296    21.968     7.672
    34   7 N        2.850     0.087    19.728     6.597
    35   7 N        1.934    -0.175    25.586     7.500
    36   8 O        0.858    -0.378    21.247     6.180
    37   6 C        2.935     0.061    26.628     8.463
    38   6 C        2.922    -0.026    28.652     8.778
    39   6 C        2.919    -0.017    28.435     8.744
    40   6 C        2.919    -0.010    28.256     8.717
    41   6 C        2.920    -0.016    28.403     8.740
    42   6 C        2.917    -0.024    28.610     8.771
    43   6 C        2.936     0.062    26.617     8.461
    44   6 C        2.917    -0.023    28.579     8.766
    45   6 C        2.920    -0.015    28.397     8.739
    46   6 C        2.919    -0.009    28.233     8.713
    47   6 C        2.919    -0.016    28.409     8.740
    48   6 C        2.922    -0.024    28.594     8.769
    49   1 H        0.926     0.071     2.077     2.253
    50   1 H        0.926     0.066     2.132     2.283
    51   1 H        0.926     0.072     2.067     2.248
    52   1 H        0.926     0.073     2.055     2.242
    53   1 H        0.926     0.082     1.962     2.191
    54   1 H        0.926     0.073     2.058     2.243
    55   1 H        0.926     0.071     2.077     2.254
    56   1 H        0.926     0.073     2.053     2.241
    57   1 H        0.926     0.073     2.055     2.242
    58   1 H        0.926     0.078     2.005     2.214

 Mol. C6AA /au·bohr⁶  :      49865.443689
 Mol. C8AA /au·bohr⁸  :    1266507.814769
 Mol. α(0) /au        :        359.786643


Wiberg/Mayer (AO) data.
largest (>0.10) Wiberg bond orders for each atom

 ---------------------------------------------------------------------------
     #   Z sym  total        # sym  WBO       # sym  WBO       # sym  WBO
 ---------------------------------------------------------------------------
     1   6 C    3.922 --     4 C    1.302     3 C    1.201     2 C    1.193
     2   6 C    3.986 --    11 C    1.341     5 C    1.249     1 C    1.193
     3   6 C    3.986 --    12 C    1.313     6 C    1.262     1 C    1.201
     4   6 C    3.959 --     1 C    1.302     8 C    1.247     7 C    1.233
     5   6 C    3.971 --    13 C    1.304     2 C    1.249     9 C    1.230
     6   6 C    3.982 --    14 C    1.311     3 C    1.262    10 C    1.229
     7   6 C    3.970 --     9 C    1.606     4 C    1.233    19 H    0.965
     8   6 C    3.966 --    10 C    1.588     4 C    1.247    20 H    0.965
     9   6 C    3.955 --     7 C    1.606     5 C    1.230    21 H    0.965
    10   6 C    3.930 --     8 C    1.588     6 C    1.229    22 H    0.965
    11   6 C    3.956 --    15 C    1.417     2 C    1.341    23 H    0.955
    12   6 C    3.939 --    16 C    1.492     3 C    1.313    24 H    0.960
    13   6 C    3.966 --    17 C    1.530     5 C    1.304    25 H    0.965
    14   6 C    3.935 --    18 C    1.494     6 C    1.311    26 H    0.966
    15   6 C    3.970 --    11 C    1.417    17 C    1.293    27 C    1.075
    16   6 C    3.968 --    12 C    1.492    18 C    1.367    28 H    0.969
    17   6 C    3.958 --    13 C    1.530    15 C    1.293    29 H    0.965
    18   6 C    3.959 --    14 C    1.494    16 C    1.367    30 H    0.969
    19   1 H    0.996 --     7 C    0.965
    20   1 H    0.996 --     8 C    0.965
    21   1 H    0.995 --     9 C    0.965
    22   1 H    0.995 --    10 C    0.965
    23   1 H    0.994 --    11 C    0.955
    24   1 H    0.997 --    12 C    0.960
    25   1 H    0.995 --    13 C    0.965
    26   1 H    0.996 --    14 C    0.966
    27   6 C    3.953 --    31 N    1.350    35 N    1.344    15 C    1.075
    28   1 H    0.997 --    16 C    0.969
    29   1 H    0.995 --    17 C    0.965
    30   1 H    0.996 --    18 C    0.969
    31   7 N    2.931 --    27 C    1.350    32 N    1.253
    32   7 N    3.644 --    31 N    1.253    33 C    1.052    37 C    1.038
                            36 O    0.126
    33   6 C    3.958 --    36 O    1.699    34 N    1.055    32 N    1.052
    34   7 N    3.644 --    35 N    1.252    33 C    1.055    43 C    1.037
                            36 O    0.127
    35   7 N    2.923 --    27 C    1.344    34 N    1.252
    36   8 O    2.063 --    33 C    1.699    34 N    0.127    32 N    0.126
    37   6 C    3.935 --    42 C    1.353    38 C    1.339    32 N    1.038
    38   6 C    3.967 --    39 C    1.475    37 C    1.339    49 H    0.960
                            41 C    0.102
    39   6 C    3.984 --    38 C    1.475    40 C    1.410    50 H    0.966
    40   6 C    3.943 --    41 C    1.425    39 C    1.410    51 H    0.967
    41   6 C    3.984 --    42 C    1.458    40 C    1.425    52 H    0.966
                            38 C    0.102
    42   6 C    3.966 --    41 C    1.458    37 C    1.353    53 H    0.961
    43   6 C    3.934 --    44 C    1.351    48 C    1.340    34 N    1.037
Note: The following floating-point exceptions are signalling: IEEE_UNDERFLOW_FLAG
normal termination of xtb
    44   6 C    3.967 --    45 C    1.460    43 C    1.351    58 H    0.962
    45   6 C    3.983 --    44 C    1.460    46 C    1.422    57 H    0.966
                            48 C    0.101
    46   6 C    3.942 --    45 C    1.422    47 C    1.411    56 H    0.967
    47   6 C    3.983 --    48 C    1.473    46 C    1.411    55 H    0.966
    48   6 C    3.966 --    47 C    1.473    43 C    1.340    54 H    0.961
                            45 C    0.101
    49   1 H    0.995 --    38 C    0.960
    50   1 H    0.994 --    39 C    0.966
    51   1 H    0.995 --    40 C    0.967
    52   1 H    0.993 --    41 C    0.966
    53   1 H    0.993 --    42 C    0.961
    54   1 H    0.994 --    48 C    0.961
    55   1 H    0.994 --    47 C    0.966
    56   1 H    0.995 --    46 C    0.967
    57   1 H    0.993 --    45 C    0.966
    58   1 H    0.994 --    44 C    0.962
 ---------------------------------------------------------------------------

Topologies differ in bond orders
Writing corrected topology to xtbtopo.mol

molecular dipole:
                 x           y           z       tot (Debye)
 q only:       -0.664       0.083      -0.848
   full:       -0.755       0.014      -0.830       2.852
molecular quadrupole (traceless):
                xx          xy          yy          xz          yz          zz
 q only:        6.180       6.520      52.768       4.355      -0.207     -58.949
  q+dip:       10.062       6.481      57.335       5.441      -0.744     -67.397
   full:        4.687       7.697      50.798       4.655       0.316     -55.484


           -------------------------------------------------
          | TOTAL ENERGY              -94.571888381533 Eh   |
          | GRADIENT NORM               0.000394948016 Eh/α |
          | HOMO-LUMO GAP               0.109353027916 eV   |
           -------------------------------------------------
########################################################################
[WARNING] Runtime exception occurred
-1- restart_readRestart: Number of electron missmatch in restart file.
########################################################################

------------------------------------------------------------------------
 * finished run on 2024/11/14 at 13:59:55.484     
------------------------------------------------------------------------
 total:
 * wall-time:     0 d,  0 h,  0 min,  0.650 sec
 *  cpu-time:     0 d,  0 h,  0 min,  2.157 sec
 * ratio c/w:     3.317 speedup
 SCF:
 * wall-time:     0 d,  0 h,  0 min,  0.639 sec
 *  cpu-time:     0 d,  0 h,  0 min,  2.144 sec
 * ratio c/w:     3.358 speedup

