      -----------------------------------------------------------      
     |                   =====================                   |     
     |                           x T B                           |     
     |                   =====================                   |     
     |                         S. Grimme                         |     
     |          Mulliken Center for Theoretical Chemistry        |     
     |                    University of Bonn                     |     
      -----------------------------------------------------------      

   * xtb version 6.6.1 (8d0f1dd) compiled by 'runner@Mac-1690902418499.local' on 2023-08-01

   xtb is free software: you can redistribute it and/or modify it under
   the terms of the GNU Lesser General Public License as published by
   the Free Software Foundation, either version 3 of the License, or
   (at your option) any later version.
   
   xtb is distributed in the hope that it will be useful,
   but WITHOUT ANY WARRANTY; without even the implied warranty of
   MERCHANTABILITY or FITNESS FOR A PARTICULAR PURPOSE.  See the
   GNU Lesser General Public License for more details.
   
   Cite this work as:
   * C. Bannwarth, E. Caldeweyher, S. Ehlert, A. Hansen, P. Pracht,
     J. Seibert, S. Spicher, S. Grimme, WIREs Comput. Mol. Sci., 2020, 11,
     e01493. DOI: 10.1002/wcms.1493
   
   for GFN2-xTB:
   * C. Bannwarth, S. Ehlert and S. Grimme., J. Chem. Theory Comput., 2019,
     15, 1652-1671. DOI: 10.1021/acs.jctc.8b01176
   for GFN1-xTB:
   * S. Grimme, C. Bannwarth, P. Shushkov, J. Chem. Theory Comput., 2017,
     13, 1989-2009. DOI: 10.1021/acs.jctc.7b00118
   for GFN0-xTB:
   * P. Pracht, E. Caldeweyher, S. Ehlert, S. Grimme, ChemRxiv, 2019, preprint.
     DOI: 10.26434/chemrxiv.8326202.v1
   for GFN-FF:
   * S. Spicher and S. Grimme, Angew. Chem. Int. Ed., 2020, 59, 15665-15673.
     DOI: 10.1002/anie.202004239
   
   for ALPB and GBSA implicit solvation:
   * S. Ehlert, M. Stahn, S. Spicher, S. Grimme, J. Chem. Theory Comput.,
     2021, 17, 4250-4261. DOI: 10.1021/acs.jctc.1c00471
   
   for DFT-D4:
   * E. Caldeweyher, C. Bannwarth and S. Grimme, J. Chem. Phys., 2017,
     147, 034112. DOI: 10.1063/1.4993215
   * E. Caldeweyher, S. Ehlert, A. Hansen, H. Neugebauer, S. Spicher,
     C. Bannwarth and S. Grimme, J. Chem. Phys., 2019, 150, 154122.
     DOI: 10.1063/1.5090222
   * E. Caldeweyher, J.-M. Mewes, S. Ehlert and S. Grimme, Phys. Chem. Chem. Phys.
     2020, 22, 8499-8512. DOI: 10.1039/D0CP00502A
   
   for sTDA-xTB:
   * S. Grimme and C. Bannwarth, J. Chem. Phys., 2016, 145, 054103.
     DOI: 10.1063/1.4959605
   
   in the mass-spec context:
   * V. Asgeirsson, C. Bauer and S. Grimme, Chem. Sci., 2017, 8, 4879.
     DOI: 10.1039/c7sc00601b
   * J. Koopman and S. Grimme, ACS Omega 2019, 4, 12, 15120-15133.
     DOI: 10.1021/acsomega.9b02011
   
   for metadynamics refer to:
   * S. Grimme, J. Chem. Theory Comput., 2019, 155, 2847-2862
     DOI: 10.1021/acs.jctc.9b00143
   
   for SPH calculations refer to:
   * S. Spicher and S. Grimme, J. Chem. Theory Comput., 2021, 17, 1701-1714
     DOI: 10.1021/acs.jctc.0c01306
   
   with help from (in alphabetical order)
   P. Atkinson, C. Bannwarth, F. Bohle, G. Brandenburg, E. Caldeweyher
   M. Checinski, S. Dohm, S. Ehlert, S. Ehrlich, I. Gerasimov, C. Hölzer
   A. Katbashev, J. Koopman, C. Lavigne, S. Lehtola, F. März, M. Müller,
   F. Musil, H. Neugebauer, J. Pisarek, C. Plett, P. Pracht, F. Pultar,
   J. Seibert, P. Shushkov, S. Spicher, M. Stahn, M. Steiner, T. Strunk,
   J. Stückrath, T. Rose, and J. Unsleber
   
 * started run on 2024/11/14 at 13:59:55.786     

           -------------------------------------------------
          |                Calculation Setup                |
           -------------------------------------------------

          program call               : xtb opt_radical_Verdazyl1.mol --gfn2 --sp --chrg 1 --uhf 0
          coordinate file            : opt_radical_Verdazyl1.mol
          omp threads                :                     8

   ID    Z sym.   atoms
    1    6 C      1-18, 27, 33, 37-48
    2    1 H      19-26, 28-30, 49-58
    3    7 N      31, 32, 34, 35
    4    8 O      36

           -------------------------------------------------
          |                 G F N 2 - x T B                 |
           -------------------------------------------------

        Reference                      10.1021/acs.jctc.8b01176
      * Hamiltonian:
        H0-scaling (s, p, d)           1.850000    2.230000    2.230000
        zeta-weighting                 0.500000
      * Dispersion:
        s8                             2.700000
        a1                             0.520000
        a2                             5.000000
        s9                             5.000000
      * Repulsion:
        kExp                           1.500000    1.000000
        rExp                           1.000000
      * Coulomb:
        alpha                          2.000000
        third order                    shell-resolved
        anisotropic                    true
        a3                             3.000000
        a5                             4.000000
        cn-shift                       1.200000
        cn-exp                         4.000000
        max-rad                        5.000000

q/qsh data taken from xtbrestart
CAMM data taken from xtbrestart

          ...................................................
          :                      SETUP                      :
          :.................................................:
          :  # basis functions                 169          :
          :  # atomic orbitals                 169          :
          :  # shells                           95          :
          :  # electrons                       174          :
          :  max. iterations                   250          :
          :  Hamiltonian                  GFN2-xTB          :
          :  restarted?                       true          :
          :  GBSA solvation                  false          :
          :  PC potential                    false          :
          :  electronic temp.          300.0000000     K    :
          :  accuracy                    1.0000000          :
          :  -> integral cutoff          0.2500000E+02      :
          :  -> integral neglect         0.1000000E-07      :
          :  -> SCF convergence          0.1000000E-05 Eh   :
          :  -> wf. convergence          0.1000000E-03 e    :
          :  Broyden damping             0.4000000          :
          ...................................................

 iter      E             dE          RMSdq      gap      omega  full diag
   1    -96.1825992 -0.961826E+02  0.863E-01    0.98       0.0  T
   2    -95.7021829  0.480416E+00  0.196E+00    0.23       1.0  T
   3    -96.2059646 -0.503782E+00  0.589E-01    0.86       1.0  T
   4    -96.2149616 -0.899699E-02  0.465E-01    0.60       1.0  T
   5    -96.2208315 -0.586989E-02  0.342E-01    0.27       1.0  T
   6    -95.9192627  0.301569E+00  0.149E+00    0.12       1.0  T
   7    -96.2330616 -0.313799E+00  0.109E-01    0.11       1.0  T
   8    -96.2326422  0.419350E-03  0.981E-02    0.12       1.0  T
   9    -96.2315211  0.112113E-02  0.129E-01    0.13       1.0  T
  10    -96.2335752 -0.205409E-02  0.404E-02    0.11       1.0  T
  11    -96.2337947 -0.219530E-03  0.969E-03    0.10       1.4  T
  12    -96.2338034 -0.868208E-05  0.459E-03    0.10       2.9  T
  13    -96.2338064 -0.300704E-05  0.560E-04    0.10      23.4  T
  14    -96.2338064  0.223546E-07  0.559E-04    0.10      23.5  T
  15    -96.2338064 -0.384347E-07  0.177E-04    0.10      74.1  T

   *** convergence criteria satisfied after 15 iterations ***

         #    Occupation            Energy/Eh            Energy/eV
      -------------------------------------------------------------
         1        2.0000           -0.8631033             -23.4862
       ...           ...                  ...                  ...
        81        2.0000           -0.5154849             -14.0271
        82        2.0000           -0.5127633             -13.9530
        83        2.0000           -0.5102589             -13.8849
        84        2.0000           -0.5085766             -13.8391
        85        2.0000           -0.5068830             -13.7930
        86        1.9998           -0.4828459             -13.1389
        87        1.7386           -0.4759632             -12.9516 (HOMO)
        88        0.2617           -0.4723642             -12.8537 (LUMO)
        89                         -0.3922953             -10.6749
        90                         -0.3703456             -10.0776
        91                         -0.3642217              -9.9110
        92                         -0.3459938              -9.4150
       ...                                ...                  ...
       169                          0.6104727              16.6118
      -------------------------------------------------------------
                  HL-Gap            0.0035990 Eh            0.0979 eV
             Fermi-level           -0.4741632 Eh          -12.9026 eV

 SCC (total)                   0 d,  0 h,  0 min,  0.428 sec
 SCC setup                      ...        0 min,  0.000 sec (  0.045%)
 Dispersion                     ...        0 min,  0.000 sec (  0.111%)
 classical contributions        ...        0 min,  0.000 sec (  0.024%)
 integral evaluation            ...        0 min,  0.002 sec (  0.506%)
 iterations                     ...        0 min,  0.407 sec ( 94.945%)
 molecular gradient             ...        0 min,  0.018 sec (  4.287%)
 printout                       ...        0 min,  0.000 sec (  0.080%)

         :::::::::::::::::::::::::::::::::::::::::::::::::::::
         ::                     SUMMARY                     ::
         :::::::::::::::::::::::::::::::::::::::::::::::::::::
         :: total energy             -94.568861342668 Eh    ::
         :: gradient norm              0.066779367777 Eh/a0 ::
         :: HOMO-LUMO gap              0.097932475923 eV    ::
         ::.................................................::
         :: SCC energy               -96.233806415445 Eh    ::
         :: -> isotropic ES            0.091261254644 Eh    ::
         :: -> anisotropic ES         -0.010340517021 Eh    ::
         :: -> anisotropic XC          0.062878444643 Eh    ::
         :: -> dispersion             -0.077092858978 Eh    ::
         :: repulsion energy           1.665532107299 Eh    ::
         :: add. restraining           0.000000000000 Eh    ::
         :: total charge               1.000006875818 e     ::
         :::::::::::::::::::::::::::::::::::::::::::::::::::::

           -------------------------------------------------
          |                Property Printout                |
           -------------------------------------------------

    * Orbital Energies and Occupations

         #    Occupation            Energy/Eh            Energy/eV
      -------------------------------------------------------------
         1        2.0000           -0.8631033             -23.4862
       ...           ...                  ...                  ...
        75        2.0000           -0.5334576             -14.5161
        76        2.0000           -0.5317411             -14.4694
        77        2.0000           -0.5313887             -14.4598
        78        2.0000           -0.5253892             -14.2966
        79        2.0000           -0.5226081             -14.2209
        80        2.0000           -0.5188453             -14.1185
        81        2.0000           -0.5154849             -14.0271
        82        2.0000           -0.5127633             -13.9530
        83        2.0000           -0.5102589             -13.8849
        84        2.0000           -0.5085766             -13.8391
        85        2.0000           -0.5068830             -13.7930
        86        1.9998           -0.4828459             -13.1389
        87        1.7386           -0.4759632             -12.9516 (HOMO)
        88        0.2617           -0.4723642             -12.8537 (LUMO)
        89                         -0.3922953             -10.6749
        90                         -0.3703456             -10.0776
        91                         -0.3642217              -9.9110
        92                         -0.3459938              -9.4150
        93                         -0.3423296              -9.3153
        94                         -0.3396279              -9.2417
        95                         -0.3376178              -9.1870
        96                         -0.3306337              -8.9970
        97                         -0.3158854              -8.5957
        98                         -0.2930813              -7.9751
       ...                                ...                  ...
       169                          0.6104727              16.6118
      -------------------------------------------------------------
                  HL-Gap            0.0035990 Eh            0.0979 eV
             Fermi-level           -0.4741632 Eh          -12.9026 eV

     #   Z          covCN         q      C6AA      α(0)
     1   6 C        2.979     0.015    27.672     8.629
     2   6 C        2.981     0.016    27.646     8.625
     3   6 C        2.981     0.012    27.733     8.638
     4   6 C        2.986     0.025    27.440     8.593
     5   6 C        2.988     0.025    27.441     8.593
     6   6 C        2.989     0.020    27.556     8.611
     7   6 C        2.917    -0.025    28.640     8.776
     8   6 C        2.917    -0.028    28.705     8.786
     9   6 C        2.915    -0.027    28.667     8.780
    10   6 C        2.915    -0.022    28.545     8.761
    11   6 C        2.927    -0.029    28.728     8.790
    12   6 C        2.919    -0.029    28.716     8.788
    13   6 C        2.921    -0.025    28.623     8.773
    14   6 C        2.922    -0.022    28.549     8.762
    15   6 C        2.985    -0.001    28.051     8.688
    16   6 C        2.917    -0.025    28.623     8.773
    17   6 C        2.918    -0.024    28.609     8.771
    18   6 C        2.916    -0.020    28.518     8.757
    19   1 H        0.926     0.059     2.212     2.326
    20   1 H        0.926     0.057     2.232     2.337
    21   1 H        0.926     0.057     2.229     2.335
    22   1 H        0.926     0.058     2.222     2.331
    23   1 H        0.926     0.068     2.103     2.268
    24   1 H        0.926     0.047     2.362     2.403
    25   1 H        0.926     0.061     2.188     2.313
    26   1 H        0.926     0.056     2.248     2.345
    27   6 C        2.874     0.168    24.382     8.094
    28   1 H        0.926     0.043     2.406     2.426
    29   1 H        0.926     0.062     2.174     2.306
    30   1 H        0.926     0.052     2.292     2.368
    31   7 N        1.930    -0.188    25.881     7.543
    32   7 N        2.845     0.074    19.945     6.633
    33   6 C        2.702     0.303    21.847     7.650
    34   7 N        2.848     0.074    19.950     6.634
    35   7 N        1.926    -0.184    25.784     7.529
    36   8 O        0.858    -0.394    21.565     6.226
    37   6 C        2.929     0.067    26.505     8.443
    38   6 C        2.924    -0.027    28.671     8.781
    39   6 C        2.920    -0.017    28.437     8.745
    40   6 C        2.919    -0.009    28.236     8.714
    41   6 C        2.921    -0.016    28.401     8.739
    42   6 C        2.919    -0.025    28.622     8.773
    43   6 C        2.930     0.068    26.486     8.440
    44   6 C        2.919    -0.023    28.574     8.766
    45   6 C        2.921    -0.015    28.393     8.738
    46   6 C        2.919    -0.008    28.209     8.710
    47   6 C        2.920    -0.016    28.406     8.740
    48   6 C        2.924    -0.024    28.597     8.770
    49   1 H        0.926     0.072     2.063     2.246
    50   1 H        0.926     0.064     2.147     2.292
    51   1 H        0.926     0.071     2.070     2.250
    52   1 H        0.926     0.072     2.060     2.244
    53   1 H        0.926     0.084     1.936     2.176
    54   1 H        0.926     0.074     2.044     2.236
    55   1 H        0.926     0.070     2.083     2.257
    56   1 H        0.926     0.073     2.054     2.241
    57   1 H        0.926     0.072     2.058     2.243
    58   1 H        0.926     0.079     1.990     2.206

 Mol. C6AA /au·bohr⁶  :      49849.485457
 Mol. C8AA /au·bohr⁸  :    1266168.119280
 Mol. α(0) /au        :        359.709701


Wiberg/Mayer (AO) data.
largest (>0.10) Wiberg bond orders for each atom

 ---------------------------------------------------------------------------
     #   Z sym  total        # sym  WBO       # sym  WBO       # sym  WBO
 ---------------------------------------------------------------------------
     1   6 C    3.911 --     4 C    1.303     3 C    1.197     2 C    1.192
     2   6 C    3.985 --    11 C    1.333     5 C    1.255     1 C    1.192
     3   6 C    3.986 --    12 C    1.310     6 C    1.267     1 C    1.197
     4   6 C    3.953 --     1 C    1.303     8 C    1.243     7 C    1.233
     5   6 C    3.972 --    13 C    1.304     2 C    1.255     9 C    1.226
     6   6 C    3.982 --    14 C    1.308     3 C    1.267    10 C    1.225
     7   6 C    3.972 --     9 C    1.607     4 C    1.233    19 H    0.965
     8   6 C    3.965 --    10 C    1.592     4 C    1.243    20 H    0.965
     9   6 C    3.948 --     7 C    1.607     5 C    1.226    21 H    0.965
    10   6 C    3.923 --     8 C    1.592     6 C    1.225    22 H    0.965
    11   6 C    3.951 --    15 C    1.428     2 C    1.333    23 H    0.954
    12   6 C    3.932 --    16 C    1.495     3 C    1.310    24 H    0.959
    13   6 C    3.960 --    17 C    1.526     5 C    1.304    25 H    0.965
    14   6 C    3.928 --    18 C    1.496     6 C    1.308    26 H    0.965
    15   6 C    3.969 --    11 C    1.428    17 C    1.299    27 C    1.056
    16   6 C    3.966 --    12 C    1.495    18 C    1.363    28 H    0.969
    17   6 C    3.955 --    13 C    1.526    15 C    1.299    29 H    0.965
    18   6 C    3.955 --    14 C    1.496    16 C    1.363    30 H    0.969
    19   1 H    0.996 --     7 C    0.965
    20   1 H    0.996 --     8 C    0.965
    21   1 H    0.995 --     9 C    0.965
    22   1 H    0.995 --    10 C    0.965
    23   1 H    0.994 --    11 C    0.954
    24   1 H    0.997 --    12 C    0.959
    25   1 H    0.995 --    13 C    0.965
    26   1 H    0.996 --    14 C    0.965
    27   6 C    3.956 --    31 N    1.370    35 N    1.369    15 C    1.056
    28   1 H    0.997 --    16 C    0.969
    29   1 H    0.995 --    17 C    0.965
    30   1 H    0.996 --    18 C    0.969
    31   7 N    2.899 --    27 C    1.370    32 N    1.204
    32   7 N    3.624 --    31 N    1.204    33 C    1.074    37 C    1.051
                            36 O    0.126
    33   6 C    3.959 --    36 O    1.674    34 N    1.076    32 N    1.074
    34   7 N    3.623 --    35 N    1.203    33 C    1.076    43 C    1.048
                            36 O    0.128
    35   7 N    2.892 --    27 C    1.369    34 N    1.203
    36   8 O    2.042 --    33 C    1.674    34 N    0.128    32 N    0.126
    37   6 C    3.935 --    42 C    1.347    38 C    1.337    32 N    1.051
    38   6 C    3.963 --    39 C    1.475    37 C    1.337    49 H    0.959
                            41 C    0.102
    39   6 C    3.983 --    38 C    1.475    40 C    1.409    50 H    0.966
    40   6 C    3.937 --    41 C    1.422    39 C    1.409    51 H    0.967
    41   6 C    3.983 --    42 C    1.460    40 C    1.422    52 H    0.966
                            38 C    0.102
    42   6 C    3.962 --    41 C    1.460    37 C    1.347    53 H    0.960
    43   6 C    3.934 --    44 C    1.346    48 C    1.338    34 N    1.048
    44   6 C    3.963 --    45 C    1.461    43 C    1.346    58 H    0.962
    45   6 C    3.983 --    44 C    1.461    46 C    1.420    57 H    0.966
                            48 C    0.101
    46   6 C    3.936 --    45 C    1.420    47 C    1.411    56 H    0.967
    47   6 C    3.982 --    48 C    1.472    46 C    1.411    55 H    0.966
    48   6 C    3.963 --    47 C    1.472    43 C    1.338    54 H    0.960
                            45 C    0.101
    49   1 H    0.995 --    38 C    0.959
    50   1 H    0.995 --    39 C    0.966
Note: The following floating-point exceptions are signalling: IEEE_UNDERFLOW_FLAG
normal termination of xtb
    51   1 H    0.995 --    40 C    0.967
    52   1 H    0.993 --    41 C    0.966
    53   1 H    0.993 --    42 C    0.960
    54   1 H    0.994 --    48 C    0.960
    55   1 H    0.994 --    47 C    0.966
    56   1 H    0.995 --    46 C    0.967
    57   1 H    0.993 --    45 C    0.966
    58   1 H    0.994 --    44 C    0.962
 ---------------------------------------------------------------------------

Topologies differ in bond orders
Writing corrected topology to xtbtopo.mol

molecular dipole:
                 x           y           z       tot (Debye)
 q only:       -0.476       0.363      -0.864
   full:       -0.562       0.300      -0.852       2.704
molecular quadrupole (traceless):
                xx          xy          yy          xz          yz          zz
 q only:        5.641       6.394      54.434       4.137      -0.015     -60.075
  q+dip:        9.651       6.262      58.966       5.243      -1.014     -68.616
   full:        4.201       7.556      52.387       4.408       0.246     -56.588


           -------------------------------------------------
          | TOTAL ENERGY              -94.568861342668 Eh   |
          | GRADIENT NORM               0.066779367777 Eh/α |
          | HOMO-LUMO GAP               0.097932475923 eV   |
           -------------------------------------------------
########################################################################
[WARNING] Runtime exception occurred
-2- restart_readRestart: Multiplicity missmatch in restart file.
-1- restart_readRestart: Number of electron missmatch in restart file.
########################################################################

------------------------------------------------------------------------
 * finished run on 2024/11/14 at 13:59:56.223     
------------------------------------------------------------------------
 total:
 * wall-time:     0 d,  0 h,  0 min,  0.436 sec
 *  cpu-time:     0 d,  0 h,  0 min,  1.538 sec
 * ratio c/w:     3.523 speedup
 SCF:
 * wall-time:     0 d,  0 h,  0 min,  0.428 sec
 *  cpu-time:     0 d,  0 h,  0 min,  1.525 sec
 * ratio c/w:     3.560 speedup

