      -----------------------------------------------------------      
     |                   =====================                   |     
     |                           x T B                           |     
     |                   =====================                   |     
     |                         S. Grimme                         |     
     |          Mulliken Center for Theoretical Chemistry        |     
     |                    University of Bonn                     |     
      -----------------------------------------------------------      

   * xtb version 6.6.1 (8d0f1dd) compiled by 'runner@Mac-1690902418499.local' on 2023-08-01

   xtb is free software: you can redistribute it and/or modify it under
   the terms of the GNU Lesser General Public License as published by
   the Free Software Foundation, either version 3 of the License, or
   (at your option) any later version.
   
   xtb is distributed in the hope that it will be useful,
   but WITHOUT ANY WARRANTY; without even the implied warranty of
   MERCHANTABILITY or FITNESS FOR A PARTICULAR PURPOSE.  See the
   GNU Lesser General Public License for more details.
   
   Cite this work as:
   * C. Bannwarth, E. Caldeweyher, S. Ehlert, A. Hansen, P. Pracht,
     J. Seibert, S. Spicher, S. Grimme, WIREs Comput. Mol. Sci., 2020, 11,
     e01493. DOI: 10.1002/wcms.1493
   
   for GFN2-xTB:
   * C. Bannwarth, S. Ehlert and S. Grimme., J. Chem. Theory Comput., 2019,
     15, 1652-1671. DOI: 10.1021/acs.jctc.8b01176
   for GFN1-xTB:
   * S. Grimme, C. Bannwarth, P. Shushkov, J. Chem. Theory Comput., 2017,
     13, 1989-2009. DOI: 10.1021/acs.jctc.7b00118
   for GFN0-xTB:
   * P. Pracht, E. Caldeweyher, S. Ehlert, S. Grimme, ChemRxiv, 2019, preprint.
     DOI: 10.26434/chemrxiv.8326202.v1
   for GFN-FF:
   * S. Spicher and S. Grimme, Angew. Chem. Int. Ed., 2020, 59, 15665-15673.
     DOI: 10.1002/anie.202004239
   
   for ALPB and GBSA implicit solvation:
   * S. Ehlert, M. Stahn, S. Spicher, S. Grimme, J. Chem. Theory Comput.,
     2021, 17, 4250-4261. DOI: 10.1021/acs.jctc.1c00471
   
   for DFT-D4:
   * E. Caldeweyher, C. Bannwarth and S. Grimme, J. Chem. Phys., 2017,
     147, 034112. DOI: 10.1063/1.4993215
   * E. Caldeweyher, S. Ehlert, A. Hansen, H. Neugebauer, S. Spicher,
     C. Bannwarth and S. Grimme, J. Chem. Phys., 2019, 150, 154122.
     DOI: 10.1063/1.5090222
   * E. Caldeweyher, J.-M. Mewes, S. Ehlert and S. Grimme, Phys. Chem. Chem. Phys.
     2020, 22, 8499-8512. DOI: 10.1039/D0CP00502A
   
   for sTDA-xTB:
   * S. Grimme and C. Bannwarth, J. Chem. Phys., 2016, 145, 054103.
     DOI: 10.1063/1.4959605
   
   in the mass-spec context:
   * V. Asgeirsson, C. Bauer and S. Grimme, Chem. Sci., 2017, 8, 4879.
     DOI: 10.1039/c7sc00601b
   * J. Koopman and S. Grimme, ACS Omega 2019, 4, 12, 15120-15133.
     DOI: 10.1021/acsomega.9b02011
   
   for metadynamics refer to:
   * S. Grimme, J. Chem. Theory Comput., 2019, 155, 2847-2862
     DOI: 10.1021/acs.jctc.9b00143
   
   for SPH calculations refer to:
   * S. Spicher and S. Grimme, J. Chem. Theory Comput., 2021, 17, 1701-1714
     DOI: 10.1021/acs.jctc.0c01306
   
   with help from (in alphabetical order)
   P. Atkinson, C. Bannwarth, F. Bohle, G. Brandenburg, E. Caldeweyher
   M. Checinski, S. Dohm, S. Ehlert, S. Ehrlich, I. Gerasimov, C. Hölzer
   A. Katbashev, J. Koopman, C. Lavigne, S. Lehtola, F. März, M. Müller,
   F. Musil, H. Neugebauer, J. Pisarek, C. Plett, P. Pracht, F. Pultar,
   J. Seibert, P. Shushkov, S. Spicher, M. Stahn, M. Steiner, T. Strunk,
   J. Stückrath, T. Rose, and J. Unsleber
   
 * started run on 2024/11/14 at 14:03:04.049     

           -------------------------------------------------
          |                Calculation Setup                |
           -------------------------------------------------

          program call               : xtb stacked_dimer_Verdazyl1.mol --opt --gfn2 --chrg 1 --uhf 1 --tight
          coordinate file            : stacked_dimer_Verdazyl1.mol
          omp threads                :                     8

   ID    Z sym.   atoms
    1    6 C      1-18, 27, 33, 37-48, 59-76, 85, 91, 95-106
    2    1 H      19-26, 28-30, 49-58, 77-84, 86-88, 107-116
    3    7 N      31, 32, 34, 35, 89, 90, 92, 93
    4    8 O      36, 94

molecular fragmentation (1/2 indicates fragments):
111111111111111111111111111111111111111111111111111111111122222222222222
22222222222222222222222222222222222222222222
# atoms in fragment 1/2:    58    58
 fragment masses (1/2) :      477.54      477.54
CMA distance (Bohr)    :   7.559
constraining FC (au)   :  0.0500
########################################################################
[WARNING] Please study the warnings concerning your input carefully
-1- prog_main_parseArguments: Unknown option '--tight' provided
########################################################################

           -------------------------------------------------
          |                 G F N 2 - x T B                 |
           -------------------------------------------------

        Reference                      10.1021/acs.jctc.8b01176
      * Hamiltonian:
        H0-scaling (s, p, d)           1.850000    2.230000    2.230000
        zeta-weighting                 0.500000
      * Dispersion:
        s8                             2.700000
        a1                             0.520000
        a2                             5.000000
        s9                             5.000000
      * Repulsion:
        kExp                           1.500000    1.000000
        rExp                           1.000000
      * Coulomb:
        alpha                          2.000000
        third order                    shell-resolved
        anisotropic                    true
        a3                             3.000000
        a5                             4.000000
        cn-shift                       1.200000
        cn-exp                         4.000000
        max-rad                        5.000000

q/qsh data taken from xtbrestart
CAMM data taken from xtbrestart

          ...................................................
          :                      SETUP                      :
          :.................................................:
          :  # basis functions                 338          :
          :  # atomic orbitals                 338          :
          :  # shells                          190          :
          :  # electrons                       349          :
          :  max. iterations                   250          :
          :  Hamiltonian                  GFN2-xTB          :
          :  restarted?                       true          :
          :  GBSA solvation                  false          :
          :  PC potential                    false          :
          :  electronic temp.          300.0000000     K    :
          :  accuracy                    1.0000000          :
          :  -> integral cutoff          0.2500000E+02      :
          :  -> integral neglect         0.1000000E-07      :
          :  -> SCF convergence          0.1000000E-05 Eh   :
          :  -> wf. convergence          0.1000000E-03 e    :
          :  Broyden damping             0.4000000          :
          ...................................................

 iter      E             dE          RMSdq      gap      omega  full diag
   1   -192.8254427 -0.192825E+03  0.107E+00    0.02       0.0  T
   2   -192.8141169  0.113258E-01  0.929E-01    0.08       1.0  T
   3   -192.8660614 -0.519445E-01  0.766E-01    0.78       1.0  T
   4   -192.8957143 -0.296529E-01  0.570E-01    0.20       1.0  T
   5   -192.6736929  0.222021E+00  0.992E-01    0.06       1.0  T
   6   -192.9355321 -0.261839E+00  0.242E-01    0.03       1.0  T
   7   -192.9073459  0.281861E-01  0.424E-01    0.19       1.0  T
   8   -192.9399110 -0.325651E-01  0.141E-01    0.03       1.0  T
   9   -192.9410950 -0.118394E-02  0.120E-01    0.03       1.0  T
  10   -192.9427256 -0.163065E-02  0.866E-02    0.03       1.0  T
  11   -192.9430980 -0.372395E-03  0.774E-02    0.03       1.0  T
  12   -192.9416123  0.148570E-02  0.107E-01    0.03       1.0  T
  13   -192.9447955 -0.318316E-02  0.202E-02    0.03       1.0  T
  14   -192.9448367 -0.412760E-04  0.172E-02    0.03       1.0  T
  15   -192.9448490 -0.122896E-04  0.148E-02    0.03       1.0  T
  16   -192.9449026 -0.535821E-04  0.119E-03    0.03       7.8  T
  17   -192.9449027 -0.694234E-07  0.855E-04    0.03      10.9  T
  18   -192.9449023  0.380850E-06  0.133E-03    0.03       7.0  T
  19   -192.9449026 -0.264992E-06  0.109E-03    0.03       8.5  T
  20   -192.9449028 -0.187143E-06  0.537E-04    0.03      17.3  T

   *** convergence criteria satisfied after 20 iterations ***

         #    Occupation            Energy/Eh            Energy/eV
      -------------------------------------------------------------
         1        2.0000           -0.8404196             -22.8690
       ...           ...                  ...                  ...
       169        2.0000           -0.4838364             -13.1659
       170        2.0000           -0.4827088             -13.1352
       171        2.0000           -0.4603466             -12.5267
       172        2.0000           -0.4599157             -12.5149
       173        1.9656           -0.4524377             -12.3115
       174        1.9169           -0.4515555             -12.2875
       175        0.7074           -0.4469029             -12.1608 (HOMO)
       176        0.4101           -0.4459419             -12.1347 (LUMO)
       177                         -0.3690160             -10.0414
       178                         -0.3675465             -10.0015
       179                         -0.3481488              -9.4736
       180                         -0.3473587              -9.4521
       ...                                ...                  ...
       338                          0.6342181              17.2580
      -------------------------------------------------------------
                  HL-Gap            0.0009610 Eh            0.0262 eV
             Fermi-level           -0.4478137 Eh          -12.1856 eV

 SCC (total)                   0 d,  0 h,  0 min,  1.860 sec
 SCC setup                      ...        0 min,  0.000 sec (  0.020%)
 Dispersion                     ...        0 min,  0.001 sec (  0.072%)
 classical contributions        ...        0 min,  0.000 sec (  0.013%)
 integral evaluation            ...        0 min,  0.006 sec (  0.348%)
 iterations                     ...        0 min,  1.799 sec ( 96.743%)
 molecular gradient             ...        0 min,  0.043 sec (  2.333%)
 printout                       ...        0 min,  0.009 sec (  0.469%)

         :::::::::::::::::::::::::::::::::::::::::::::::::::::
         ::                     SUMMARY                     ::
         :::::::::::::::::::::::::::::::::::::::::::::::::::::
         :: total energy            -189.600800163039 Eh    ::
         :: gradient norm              0.058150852445 Eh/a0 ::
         :: HOMO-LUMO gap              0.026150524060 eV    ::
         ::.................................................::
         :: SCC energy              -192.944902754110 Eh    ::
         :: -> isotropic ES            0.130177476182 Eh    ::
         :: -> anisotropic ES         -0.003200029485 Eh    ::
         :: -> anisotropic XC          0.121263499891 Eh    ::
         :: -> dispersion             -0.195227357252 Eh    ::
         :: repulsion energy           3.331070674161 Eh    ::
         :: add. restraining           0.000000000000 Eh    ::
         :: total charge               0.999998793473 e     ::
         :::::::::::::::::::::::::::::::::::::::::::::::::::::

      ----------------------------------------------------------- 
     |                   =====================                   |
     |                        A N C O P T                        |
     |                   =====================                   |
     |               Approximate Normal Coordinate               |
     |                Rational Function Optimizer                |
      ----------------------------------------------------------- 

          ...................................................
          :                      SETUP                      :
          :.................................................:
          :   optimization level            normal          :
          :   max. optcycles                   348          :
          :   ANC micro-cycles                  20          :
          :   degrees of freedom               342          :
          :.................................................:
          :   RF solver                   davidson          :
          :   write xtbopt.log                true          :
          :   linear?                        false          :
          :   energy convergence         0.5000000E-05 Eh   :
          :   grad. convergence          0.1000000E-02 Eh/α :
          :   maxmium RF displ.          1.0000000          :
          :   Hlow (freq-cutoff)         0.1000000E-01      :
          :   Hmax (freq-cutoff)         5.0000000          :
          :   S6 in model hess.         20.0000000          :
          ...................................................

generating ANC from model Hessian ...
Using Lindh-Hessian (1995)
 Shifting diagonal of input Hessian by    1.0006933023975413E-002
 Lowest  eigenvalues of input Hessian
    0.010000    0.000000    0.000000    0.000000    0.000000    0.000000
    0.000000    0.010031    0.010075    0.010206    0.010399    0.010468
    0.010491    0.010631    0.010683    0.010692    0.010871    0.010972
 Highest eigenvalues
    2.157223    2.157241    2.293142    2.293156    2.530889    2.530908


........................................................................
.............................. CYCLE    1 ..............................
........................................................................

 iter      E             dE          RMSdq      gap      omega  full diag
   1   -192.9449028 -0.192945E+03  0.264E-04    0.03       0.0  T
   2   -192.9449020  0.761933E-06  0.169E-03    0.03       5.5  T
   3   -192.9449024 -0.333067E-06  0.145E-03    0.03       6.4  T
   4   -192.9449028 -0.450165E-06  0.716E-05    0.03     129.7  T
   5   -192.9449028 -0.107167E-08  0.228E-05    0.03     407.3  T
     SCC iter.                  ...        0 min,  0.332 sec
     gradient                   ...        0 min,  0.061 sec
 * total energy  :  -189.6008002 Eh     change       -0.6819494E-07 Eh
   gradient norm :     0.0581768 Eh/α   predicted     0.0000000E+00 (-100.00%)
   displ. norm   :     0.2645913 α      lambda       -0.3168256E-02
   maximum displ.:     0.1381323 α      in ANC's #10, #14, #17, ...

........................................................................
.............................. CYCLE    2 ..............................
........................................................................

 iter      E             dE          RMSdq      gap      omega  full diag
   1   -192.9470025 -0.192947E+03  0.784E-02    0.03       0.0  T
   2   -192.8057219  0.141281E+00  0.691E-01    0.05       1.0  T
   3   -192.9417800 -0.136058E+00  0.175E-01    0.05       1.0  T
   4   -192.9445665 -0.278650E-02  0.126E-01    0.04       1.0  T
   5   -192.9479048 -0.333837E-02  0.195E-02    0.03       1.0  T
   6   -192.9478870  0.178332E-04  0.175E-02    0.03       1.0  T
   7   -192.9479338 -0.468038E-04  0.105E-02    0.03       1.0  T
   8   -192.9479560 -0.222367E-04  0.545E-03    0.03       1.7  T
   9   -192.9479641 -0.806989E-05  0.222E-03    0.03       4.2  T
  10   -192.9479651 -0.971683E-06  0.124E-03    0.03       7.5  T
  11   -192.9479655 -0.408743E-06  0.538E-04    0.03      17.3  T
  12   -192.9479656 -0.675703E-07  0.210E-04    0.03      44.3  T
     SCC iter.                  ...        0 min,  0.736 sec
     gradient                   ...        0 min,  0.044 sec
 * total energy  :  -189.6033636 Eh     change       -0.2563414E-02 Eh
   gradient norm :     0.0334028 Eh/α   predicted    -0.1697239E-02 ( -33.79%)
   displ. norm   :     0.5301994 α      lambda       -0.3561800E-02
   maximum displ.:     0.3016933 α      in ANC's #10, #14, #12, ...

........................................................................
.............................. CYCLE    3 ..............................
........................................................................

 iter      E             dE          RMSdq      gap      omega  full diag
   1   -192.9527430 -0.192953E+03  0.969E-02    0.03       0.0  T
   2   -192.8546831  0.980599E-01  0.623E-01    0.09       1.0  T
   3   -192.9411248 -0.864418E-01  0.251E-01    0.07       1.0  T
   4   -192.9511876 -0.100628E-01  0.111E-01    0.04       1.0  T
   5   -192.9537818 -0.259421E-02  0.216E-02    0.03       1.0  T
   6   -192.9537681  0.137506E-04  0.172E-02    0.03       1.0  T
   7   -192.9538187 -0.506430E-04  0.524E-03    0.03       1.8  T
   8   -192.9538219 -0.320786E-05  0.221E-03    0.03       4.2  T
   9   -192.9538224 -0.438444E-06  0.114E-03    0.03       8.1  T
  10   -192.9538226 -0.183595E-06  0.411E-04    0.03      22.6  T
  11   -192.9538226 -0.969223E-08  0.252E-04    0.03      36.9  T
     SCC iter.                  ...        0 min,  0.664 sec
     gradient                   ...        0 min,  0.043 sec
 * total energy  :  -189.6058375 Eh     change       -0.2473850E-02 Eh
   gradient norm :     0.0108640 Eh/α   predicted    -0.2281873E-02 (  -7.76%)
   displ. norm   :     0.5271810 α      lambda       -0.1734965E-02
   maximum displ.:     0.3104831 α      in ANC's #10, #14, #12, ...

........................................................................
.............................. CYCLE    4 ..............................
........................................................................

 iter      E             dE          RMSdq      gap      omega  full diag
   1   -192.9574642 -0.192957E+03  0.529E-02    0.04       0.0  T
   2   -192.9468474  0.106168E-01  0.226E-01    0.06       1.0  T
   3   -192.9544473 -0.759992E-02  0.126E-01    0.05       1.0  T
   4   -192.9571314 -0.268405E-02  0.455E-02    0.04       1.0  T
   5   -192.9575956 -0.464241E-03  0.118E-02    0.04       1.0  T
   6   -192.9576030 -0.742472E-05  0.677E-03    0.04       1.4  T
   7   -192.9576117 -0.868068E-05  0.291E-03    0.04       3.2  T
   8   -192.9576129 -0.122977E-05  0.108E-03    0.04       8.6  T
   9   -192.9576131 -0.131340E-06  0.573E-04    0.04      16.2  T
  10   -192.9576131 -0.349598E-07  0.308E-04    0.04      30.1  T
     SCC iter.                  ...        0 min,  0.608 sec
     gradient                   ...        0 min,  0.041 sec
 * total energy  :  -189.6073589 Eh     change       -0.1521373E-02 Eh
   gradient norm :     0.0238062 Eh/α   predicted    -0.1108576E-02 ( -27.13%)
   displ. norm   :     0.7097386 α      lambda       -0.2304498E-02
   maximum displ.:     0.3962636 α      in ANC's #10, #14, #12, ...

........................................................................
.............................. CYCLE    5 ..............................
........................................................................

 iter      E             dE          RMSdq      gap      omega  full diag
   1   -192.9611049 -0.192961E+03  0.570E-02    0.05       0.0  T
   2   -192.9583554  0.274946E-02  0.122E-01    0.05       1.0  T
   3   -192.9564565  0.189892E-02  0.156E-01    0.06       1.0  T
   4   -192.9597077 -0.325119E-02  0.667E-02    0.05       1.0  T
   5   -192.9610621 -0.135439E-02  0.200E-02    0.05       1.0  T
   6   -192.9611489 -0.868753E-04  0.917E-03    0.05       1.0  T
   7   -192.9611699 -0.209067E-04  0.298E-03    0.05       3.1  T
   8   -192.9611721 -0.220458E-05  0.108E-03    0.05       8.6  T
   9   -192.9611721 -0.640952E-07  0.555E-04    0.05      16.7  T
  10   -192.9611722 -0.421498E-07  0.278E-04    0.05      33.3  T
     SCC iter.                  ...        0 min,  0.529 sec
     gradient                   ...        0 min,  0.041 sec
 * total energy  :  -189.6095176 Eh     change       -0.2158775E-02 Eh
   gradient norm :     0.0276554 Eh/α   predicted    -0.1732703E-02 ( -19.74%)
   displ. norm   :     0.7964346 α      lambda       -0.2777145E-02
   maximum displ.:     0.4478716 α      in ANC's #10, #14, #15, ...

........................................................................
.............................. CYCLE    6 ..............................
........................................................................

 iter      E             dE          RMSdq      gap      omega  full diag
   1   -192.9631636 -0.192963E+03  0.799E-02    0.06       0.0  T
   2   -192.9592675  0.389608E-02  0.152E-01    0.07       1.0  T
   3   -192.9499454  0.932214E-02  0.270E-01    0.11       1.0  T
   4   -192.9639772 -0.140319E-01  0.410E-02    0.06       1.0  T
   5   -192.9640112 -0.340022E-04  0.299E-02    0.06       1.0  T
   6   -192.9641237 -0.112461E-03  0.122E-02    0.06       1.0  T
   7   -192.9641664 -0.426816E-04  0.433E-03    0.06       2.1  T
   8   -192.9641684 -0.202212E-05  0.247E-03    0.06       3.8  T
   9   -192.9641699 -0.154656E-05  0.962E-04    0.06       9.6  T
  10   -192.9641701 -0.139782E-06  0.277E-04    0.06      33.5  T
  11   -192.9641701 -0.116360E-07  0.129E-04    0.06      71.8  T
     SCC iter.                  ...        0 min,  0.506 sec
     gradient                   ...        0 min,  0.040 sec
 * total energy  :  -189.6120795 Eh     change       -0.2561840E-02 Eh
   gradient norm :     0.0207377 Eh/α   predicted    -0.2269361E-02 ( -11.42%)
   displ. norm   :     0.8236941 α      lambda       -0.2745553E-02
   maximum displ.:     0.4804753 α      in ANC's #10, #14, #15, ...

........................................................................
.............................. CYCLE    7 ..............................
........................................................................

 iter      E             dE          RMSdq      gap      omega  full diag
   1   -192.9642146 -0.192964E+03  0.107E-01    0.08       0.0  T
   2   -192.9603847  0.382996E-02  0.166E-01    0.08       1.0  T
   3   -192.9546029  0.578179E-02  0.251E-01    0.12       1.0  T
   4   -192.9655019 -0.108990E-01  0.811E-02    0.09       1.0  T
   5   -192.9667707 -0.126884E-02  0.270E-02    0.08       1.0  T
   6   -192.9656566  0.111415E-02  0.572E-02    0.08       1.0  T
   7   -192.9667747 -0.111812E-02  0.135E-02    0.08       1.0  T
   8   -192.9667971 -0.224614E-04  0.101E-02    0.08       1.0  T
   9   -192.9668250 -0.278594E-04  0.418E-03    0.08       2.2  T
  10   -192.9668286 -0.360101E-05  0.213E-03    0.08       4.4  T
  11   -192.9668300 -0.145684E-05  0.217E-04    0.08      42.8  T
  12   -192.9668300  0.245458E-08  0.171E-04    0.08      54.4  T
  13   -192.9668301 -0.606730E-08  0.102E-04    0.08      91.0  T
     SCC iter.                  ...        0 min,  0.879 sec
     gradient                   ...        0 min,  0.043 sec
 * total energy  :  -189.6145584 Eh     change       -0.2478913E-02 Eh
   gradient norm :     0.0120566 Eh/α   predicted    -0.2304175E-02 (  -7.05%)
   displ. norm   :     0.8255161 α      lambda       -0.2388174E-02
   maximum displ.:     0.4961939 α      in ANC's #10, #14, #15, ...

........................................................................
.............................. CYCLE    8 ..............................
........................................................................

 iter      E             dE          RMSdq      gap      omega  full diag
   1   -192.9659046 -0.192966E+03  0.111E-01    0.12       0.0  T
   2   -192.9622399  0.366471E-02  0.159E-01    0.11       1.0  T
   3   -192.9675729 -0.533303E-02  0.706E-02    0.12       1.0  T
   4   -192.9662036  0.136928E-02  0.119E-01    0.12       1.0  T
   5   -192.9682842 -0.208057E-02  0.551E-02    0.12       1.0  T
   6   -192.9673919  0.892235E-03  0.627E-02    0.12       1.0  T
   7   -192.9686963 -0.130438E-02  0.167E-02    0.12       1.0  T
   8   -192.9687313 -0.349251E-04  0.128E-02    0.12       1.0  T
   9   -192.9687772 -0.459804E-04  0.508E-03    0.12       1.8  T
  10   -192.9687831 -0.587864E-05  0.248E-03    0.12       3.7  T
  11   -192.9687851 -0.199369E-05  0.162E-04    0.12      57.3  T
  12   -192.9687851  0.373558E-07  0.354E-04    0.12      26.2  T
  13   -192.9687851 -0.351003E-07  0.121E-04    0.12      76.9  T
     SCC iter.                  ...        0 min,  0.901 sec
     gradient                   ...        0 min,  0.042 sec
 * total energy  :  -189.6166905 Eh     change       -0.2132088E-02 Eh
   gradient norm :     0.0091777 Eh/α   predicted    -0.2007843E-02 (  -5.83%)
   displ. norm   :     0.7868525 α      lambda       -0.1929930E-02
   maximum displ.:     0.4837724 α      in ANC's #10, #15, #14, ...

........................................................................
.............................. CYCLE    9 ..............................
........................................................................

 iter      E             dE          RMSdq      gap      omega  full diag
   1   -192.9677518 -0.192968E+03  0.109E-01    0.16       0.0  T
   2   -192.9623053  0.544649E-02  0.178E-01    0.16       1.0  T
   3   -192.9653104 -0.300512E-02  0.159E-01    0.16       1.0  T
   4   -192.9687731 -0.346272E-02  0.922E-02    0.16       1.0  T
   5   -192.9703181 -0.154496E-02  0.312E-02    0.16       1.0  T
   6   -192.9698398  0.478329E-03  0.417E-02    0.16       1.0  T
   7   -192.9703864 -0.546577E-03  0.154E-02    0.16       1.0  T
   8   -192.9704265 -0.401713E-04  0.106E-02    0.16       1.0  T
   9   -192.9704619 -0.354214E-04  0.254E-03    0.16       3.7  T
  10   -192.9704630 -0.106661E-05  0.156E-03    0.16       6.0  T
  11   -192.9704638 -0.782871E-06  0.221E-04    0.16      42.0  T
  12   -192.9704638  0.121370E-07  0.265E-04    0.16      35.0  T
     SCC iter.                  ...        0 min,  0.886 sec
     gradient                   ...        0 min,  0.045 sec
 * total energy  :  -189.6183646 Eh     change       -0.1674084E-02 Eh
   gradient norm :     0.0086940 Eh/α   predicted    -0.1562416E-02 (  -6.67%)
   displ. norm   :     0.7011887 α      lambda       -0.1405509E-02
   maximum displ.:     0.4416925 α      in ANC's #10, #15, #14, ...

........................................................................
.............................. CYCLE   10 ..............................
........................................................................

 iter      E             dE          RMSdq      gap      omega  full diag
   1   -192.9691858 -0.192969E+03  0.111E-01    0.21       0.0  T
   2   -192.9625281  0.665763E-02  0.191E-01    0.21       1.0  T
   3   -192.9683422 -0.581408E-02  0.130E-01    0.21       1.0  T
   4   -192.9706602 -0.231795E-02  0.851E-02    0.22       1.0  T
   5   -192.9717399 -0.107968E-02  0.399E-02    0.21       1.0  T
   6   -192.9716220  0.117869E-03  0.352E-02    0.21       1.0  T
   7   -192.9719835 -0.361487E-03  0.161E-02    0.21       1.0  T
   8   -192.9720353 -0.518553E-04  0.100E-02    0.21       1.0  T
   9   -192.9720683 -0.329987E-04  0.163E-03    0.21       5.7  T
  10   -192.9720685 -0.190037E-06  0.127E-03    0.21       7.3  T
  11   -192.9720690 -0.494230E-06  0.325E-04    0.21      28.6  T
  12   -192.9720690 -0.980253E-08  0.244E-04    0.21      38.1  T
     SCC iter.                  ...        0 min,  0.734 sec
     gradient                   ...        0 min,  0.041 sec
 * total energy  :  -189.6195085 Eh     change       -0.1143966E-02 Eh
   gradient norm :     0.0075544 Eh/α   predicted    -0.1048276E-02 (  -8.36%)
   displ. norm   :     0.5551140 α      lambda       -0.8450515E-03
   maximum displ.:     0.3575494 α      in ANC's #10, #15, #12, ...

........................................................................
.............................. CYCLE   11 ..............................
........................................................................

 iter      E             dE          RMSdq      gap      omega  full diag
   1   -192.9708853 -0.192971E+03  0.103E-01    0.26       0.0  T
   2   -192.9641239  0.676142E-02  0.182E-01    0.27       1.0  T
   3   -192.9714198 -0.729591E-02  0.863E-02    0.26       1.0  T
   4   -192.9722467 -0.826902E-03  0.792E-02    0.27       1.0  T
   5   -192.9724172 -0.170527E-03  0.571E-02    0.26       1.0  T
   6   -192.9731158 -0.698556E-03  0.189E-02    0.26       1.0  T
   7   -192.9731917 -0.758871E-04  0.126E-02    0.26       1.0  T
   8   -192.9732298 -0.381161E-04  0.660E-03    0.26       1.4  T
   9   -192.9732440 -0.142690E-04  0.563E-04    0.26      16.5  T
  10   -192.9732439  0.129260E-06  0.796E-04    0.26      11.7  T
  11   -192.9732441 -0.176637E-06  0.297E-04    0.26      31.3  T
     SCC iter.                  ...        0 min,  0.760 sec
     gradient                   ...        0 min,  0.054 sec
 * total energy  :  -189.6201413 Eh     change       -0.6327908E-03 Eh
   gradient norm :     0.0061547 Eh/α   predicted    -0.5527435E-03 ( -12.65%)
   displ. norm   :     0.3767206 α      lambda       -0.4368080E-03
   maximum displ.:     0.2363957 α      in ANC's #10, #6, #2, ...

........................................................................
.............................. CYCLE   12 ..............................
........................................................................

 iter      E             dE          RMSdq      gap      omega  full diag
   1   -192.9731601 -0.192973E+03  0.723E-02    0.30       0.0  T
   2   -192.9681019  0.505826E-02  0.139E-01    0.30       1.0  T
   3   -192.9738879 -0.578602E-02  0.304E-02    0.30       1.0  T
   4   -192.9725626  0.132526E-02  0.802E-02    0.30       1.0  T
   5   -192.9735698 -0.100715E-02  0.431E-02    0.30       1.0  T
   6   -192.9739196 -0.349811E-03  0.513E-03    0.30       1.8  T
   7   -192.9739231 -0.349387E-05  0.405E-03    0.30       2.3  T
   8   -192.9739274 -0.431610E-05  0.140E-03    0.30       6.6  T
   9   -192.9739276 -0.163332E-06  0.106E-03    0.30       8.8  T
  10   -192.9739279 -0.366705E-06  0.280E-04    0.30      33.2  T
  11   -192.9739280 -0.151348E-07  0.156E-04    0.30      59.7  T
     SCC iter.                  ...        0 min,  0.888 sec
     gradient                   ...        0 min,  0.044 sec
 * total energy  :  -189.6204656 Eh     change       -0.3242419E-03 Eh
   gradient norm :     0.0046175 Eh/α   predicted    -0.2494013E-03 ( -23.08%)
   displ. norm   :     0.3125075 α      lambda       -0.3085728E-03
   maximum displ.:     0.1616660 α      in ANC's #10, #2, #1, ...

........................................................................
.............................. CYCLE   13 ..............................
........................................................................

 iter      E             dE          RMSdq      gap      omega  full diag
   1   -192.9738201 -0.192974E+03  0.568E-02    0.31       0.0  T
   2   -192.9722876  0.153244E-02  0.755E-02    0.31       1.0  T
   3   -192.9713189  0.968690E-03  0.903E-02    0.31       1.0  T
   4   -192.9733948 -0.207585E-02  0.439E-02    0.31       1.0  T
   5   -192.9736570 -0.262200E-03  0.272E-02    0.31       1.0  T
   6   -192.9738506 -0.193643E-03  0.124E-02    0.31       1.0  T
   7   -192.9738981 -0.474547E-04  0.399E-03    0.31       2.3  T
   8   -192.9739018 -0.368062E-05  0.216E-03    0.31       4.3  T
   9   -192.9739030 -0.126187E-05  0.713E-04    0.31      13.0  T
  10   -192.9739032 -0.175221E-06  0.118E-04    0.31      78.8  T
  11   -192.9739032  0.478676E-08  0.145E-04    0.31      64.1  T
     SCC iter.                  ...        0 min,  1.083 sec
     gradient                   ...        0 min,  0.044 sec
 * total energy  :  -189.6206965 Eh     change       -0.2309313E-03 Eh
   gradient norm :     0.0035213 Eh/α   predicted    -0.1693563E-03 ( -26.66%)
   displ. norm   :     0.3113500 α      lambda       -0.2487047E-03
   maximum displ.:     0.1193411 α      in ANC's #10, #2, #1, ...

........................................................................
.............................. CYCLE   14 ..............................
........................................................................

 iter      E             dE          RMSdq      gap      omega  full diag
   1   -192.9732229 -0.192973E+03  0.566E-02    0.31       0.0  T
   2   -192.9727572  0.465720E-03  0.505E-02    0.31       1.0  T
   3   -192.9706895  0.206768E-02  0.918E-02    0.31       1.0  T
   4   -192.9730758 -0.238625E-02  0.245E-02    0.31       1.0  T
   5   -192.9731539 -0.781352E-04  0.160E-02    0.31       1.0  T
   6   -192.9732110 -0.570917E-04  0.889E-03    0.31       1.0  T
   7   -192.9732367 -0.256804E-04  0.189E-03    0.31       4.9  T
   8   -192.9732375 -0.821661E-06  0.796E-04    0.31      11.7  T
   9   -192.9732375  0.362297E-08  0.643E-04    0.31      14.4  T
     SCC iter.                  ...        0 min,  0.842 sec
     gradient                   ...        0 min,  0.043 sec
 * total energy  :  -189.6208853 Eh     change       -0.1887910E-03 Eh
   gradient norm :     0.0036927 Eh/α   predicted    -0.1364091E-03 ( -27.75%)
   displ. norm   :     0.3301962 α      lambda       -0.2230583E-03
   maximum displ.:     0.1284643 α      in ANC's #1, #2, #14, ...

........................................................................
.............................. CYCLE   15 ..............................
........................................................................

 iter      E             dE          RMSdq      gap      omega  full diag
   1   -192.9723461 -0.192972E+03  0.603E-02    0.30       0.0  T
   2   -192.9677460  0.460011E-02  0.122E-01    0.30       1.0  T
   3   -192.9715789 -0.383287E-02  0.589E-02    0.30       1.0  T
   4   -192.9715719  0.695297E-05  0.718E-02    0.30       1.0  T
   5   -192.9722862 -0.714266E-03  0.224E-02    0.30       1.0  T
   6   -192.9723818 -0.955435E-04  0.133E-02    0.30       1.0  T
   7   -192.9724332 -0.514702E-04  0.552E-03    0.30       1.7  T
   8   -192.9724412 -0.796745E-05  0.253E-03    0.30       3.7  T
   9   -192.9724428 -0.164574E-05  0.978E-04    0.30       9.5  T
  10   -192.9724432 -0.318163E-06  0.119E-04    0.30      78.3  T
  11   -192.9724432 -0.816470E-09  0.789E-05    0.30     117.6  T
     SCC iter.                  ...        0 min,  1.063 sec
     gradient                   ...        0 min,  0.051 sec
 * total energy  :  -189.6210625 Eh     change       -0.1771874E-03 Eh
   gradient norm :     0.0041167 Eh/α   predicted    -0.1236908E-03 ( -30.19%)
   displ. norm   :     0.3876395 α      lambda       -0.2395120E-03
   maximum displ.:     0.1581528 α      in ANC's #1, #2, #15, ...

........................................................................
.............................. CYCLE   16 ..............................
........................................................................

 iter      E             dE          RMSdq      gap      omega  full diag
   1   -192.9714758 -0.192971E+03  0.682E-02    0.28       0.0  T
   2   -192.9656455  0.583027E-02  0.139E-01    0.28       1.0  T
   3   -192.9706284 -0.498287E-02  0.639E-02    0.28       1.0  T
   4   -192.9705611  0.673209E-04  0.780E-02    0.29       1.0  T
   5   -192.9713486 -0.787569E-03  0.280E-02    0.28       1.0  T
   6   -192.9715045 -0.155842E-03  0.166E-02    0.28       1.0  T
   7   -192.9715850 -0.805131E-04  0.674E-03    0.28       1.4  T
   8   -192.9715967 -0.117107E-04  0.314E-03    0.28       3.0  T
   9   -192.9715993 -0.257898E-05  0.117E-03    0.28       8.0  T
  10   -192.9715997 -0.449151E-06  0.151E-04    0.28      61.4  T
  11   -192.9715997 -0.777987E-09  0.104E-04    0.28      89.3  T
     SCC iter.                  ...        0 min,  0.907 sec
     gradient                   ...        0 min,  0.040 sec
 * total energy  :  -189.6212549 Eh     change       -0.1924232E-03 Eh
   gradient norm :     0.0041761 Eh/α   predicted    -0.1377542E-03 ( -28.41%)
   displ. norm   :     0.4256010 α      lambda       -0.2409440E-03
   maximum displ.:     0.1814724 α      in ANC's #1, #2, #10, ...

........................................................................
.............................. CYCLE   17 ..............................
........................................................................

 iter      E             dE          RMSdq      gap      omega  full diag
   1   -192.9710774 -0.192971E+03  0.712E-02    0.27       0.0  T
   2   -192.9659106  0.516677E-02  0.134E-01    0.27       1.0  T
   3   -192.9701154 -0.420474E-02  0.678E-02    0.27       1.0  T
   4   -192.9705932 -0.477810E-03  0.586E-02    0.27       1.0  T
   5   -192.9708742 -0.281031E-03  0.316E-02    0.27       1.0  T
   6   -192.9710975 -0.223316E-03  0.167E-02    0.27       1.0  T
   7   -192.9711838 -0.862832E-04  0.584E-03    0.27       1.6  T
   8   -192.9711927 -0.892938E-05  0.243E-03    0.27       3.8  T
   9   -192.9711941 -0.139230E-05  0.971E-04    0.27       9.6  T
  10   -192.9711944 -0.297069E-06  0.163E-04    0.27      57.0  T
  11   -192.9711944  0.488853E-09  0.123E-04    0.27      75.3  T
     SCC iter.                  ...        0 min,  0.818 sec
     gradient                   ...        0 min,  0.040 sec
 * total energy  :  -189.6214445 Eh     change       -0.1896295E-03 Eh
   gradient norm :     0.0039255 Eh/α   predicted    -0.1422960E-03 ( -24.96%)
   displ. norm   :     0.4101942 α      lambda       -0.1987301E-03
   maximum displ.:     0.1832787 α      in ANC's #1, #2, #10, ...

........................................................................
.............................. CYCLE   18 ..............................
........................................................................

 iter      E             dE          RMSdq      gap      omega  full diag
   1   -192.9717171 -0.192972E+03  0.638E-02    0.26       0.0  T
   2   -192.9694789  0.223828E-02  0.924E-02    0.26       1.0  T
   3   -192.9704946 -0.101569E-02  0.712E-02    0.26       1.0  T
   4   -192.9715315 -0.103693E-02  0.295E-02    0.26       1.0  T
   5   -192.9716696 -0.138086E-03  0.175E-02    0.26       1.0  T
   6   -192.9717370 -0.674059E-04  0.123E-02    0.26       1.0  T
   7   -192.9717756 -0.386547E-04  0.314E-03    0.26       3.0  T
   8   -192.9717780 -0.238638E-05  0.120E-03    0.26       7.7  T
   9   -192.9717782 -0.197582E-06  0.699E-04    0.26      13.3  T
  10   -192.9717784 -0.148641E-06  0.133E-04    0.26      69.6  T
     SCC iter.                  ...        0 min,  0.700 sec
     gradient                   ...        0 min,  0.043 sec
 * total energy  :  -189.6215957 Eh     change       -0.1511798E-03 Eh
   gradient norm :     0.0031354 Eh/α   predicted    -0.1160872E-03 ( -23.21%)
   displ. norm   :     0.3458423 α      lambda       -0.1318801E-03
   maximum displ.:     0.1627513 α      in ANC's #1, #2, #10, ...

........................................................................
.............................. CYCLE   19 ..............................
........................................................................

 iter      E             dE          RMSdq      gap      omega  full diag
   1   -192.9731208 -0.192973E+03  0.497E-02    0.26       0.0  T
   2   -192.9724985  0.622259E-03  0.529E-02    0.26       1.0  T
   3   -192.9716918  0.806731E-03  0.709E-02    0.26       1.0  T
   4   -192.9729384 -0.124663E-02  0.249E-02    0.26       1.0  T
   5   -192.9730426 -0.104216E-03  0.228E-02    0.26       1.0  T
   6   -192.9731202 -0.775509E-04  0.788E-03    0.26       1.2  T
   7   -192.9731425 -0.223178E-04  0.945E-04    0.26       9.8  T
   8   -192.9731425  0.370622E-07  0.730E-04    0.26      12.7  T
   9   -192.9731426 -0.983349E-07  0.324E-04    0.26      28.7  T
     SCC iter.                  ...        0 min,  0.632 sec
     gradient                   ...        0 min,  0.044 sec
 * total energy  :  -189.6216939 Eh     change       -0.9819871E-04 Eh
   gradient norm :     0.0022661 Eh/α   predicted    -0.7382943E-04 ( -24.82%)
   displ. norm   :     0.2645608 α      lambda       -0.8136647E-04
   maximum displ.:     0.1319457 α      in ANC's #1, #2, #10, ...

........................................................................
.............................. CYCLE   20 ..............................
........................................................................

 iter      E             dE          RMSdq      gap      omega  full diag
   1   -192.9744132 -0.192974E+03  0.362E-02    0.26       0.0  T
   2   -192.9740748  0.338336E-03  0.382E-02    0.26       1.0  T
   3   -192.9735203  0.554538E-03  0.540E-02    0.26       1.0  T
   4   -192.9743600 -0.839705E-03  0.146E-02    0.26       1.0  T
   5   -192.9743922 -0.321769E-04  0.111E-02    0.26       1.0  T
   6   -192.9744186 -0.264803E-04  0.462E-03    0.26       2.0  T
   7   -192.9744254 -0.673363E-05  0.541E-04    0.26      17.2  T
   8   -192.9744254 -0.530520E-09  0.380E-04    0.26      24.4  T
   9   -192.9744254 -0.245322E-08  0.253E-04    0.26      36.7  T
     SCC iter.                  ...        0 min,  0.664 sec
     gradient                   ...        0 min,  0.044 sec
 * total energy  :  -189.6217561 Eh     change       -0.6216484E-04 Eh
   gradient norm :     0.0019681 Eh/α   predicted    -0.4353562E-04 ( -29.97%)
   displ. norm   :     0.3245167 α      lambda       -0.6318228E-04
   maximum displ.:     0.1706573 α      in ANC's #1, #2, #9, ...
 * RMSD in coord.:     0.7068049 α      energy gain  -0.2095591E-01 Eh

generating ANC from model Hessian ...
Using Lindh-Hessian (1995)
 Shifting diagonal of input Hessian by    1.0085776375159878E-002
 Lowest  eigenvalues of input Hessian
    0.010000    0.000000    0.000000    0.000000    0.000000    0.000000
    0.000000    0.010119    0.010272    0.010374    0.010433    0.010570
    0.010681    0.010908    0.011131    0.011190    0.011320    0.011415
 Highest eigenvalues
    2.145115    2.159653    2.285948    2.299867    2.542660    2.553869


........................................................................
.............................. CYCLE   21 ..............................
........................................................................

 iter      E             dE          RMSdq      gap      omega  full diag
   1   -192.9755728 -0.192976E+03  0.433E-02    0.25       0.0  T
   2   -192.9745671  0.100566E-02  0.597E-02    0.25       1.0  T
   3   -192.9748159 -0.248801E-03  0.524E-02    0.25       1.0  T
   4   -192.9754874 -0.671446E-03  0.213E-02    0.25       1.0  T
   5   -192.9754917 -0.432457E-05  0.210E-02    0.25       1.0  T
   6   -192.9755835 -0.918197E-04  0.743E-03    0.25       1.2  T
   7   -192.9756024 -0.189353E-04  0.133E-03    0.25       7.0  T
   8   -192.9756028 -0.334126E-06  0.644E-04    0.25      14.4  T
   9   -192.9756028 -0.461798E-07  0.354E-04    0.25      26.2  T
     SCC iter.                  ...        0 min,  0.577 sec
     gradient                   ...        0 min,  0.042 sec
 * total energy  :  -189.6218189 Eh     change       -0.6284408E-04 Eh
   gradient norm :     0.0021410 Eh/α   predicted     0.0000000E+00 (-100.00%)
   displ. norm   :     0.0356570 α      lambda       -0.1440949E-04
   maximum displ.:     0.0164796 α      in ANC's #1, #2, #10, ...

........................................................................
.............................. CYCLE   22 ..............................
........................................................................

 iter      E             dE          RMSdq      gap      omega  full diag
   1   -192.9750508 -0.192975E+03  0.506E-03    0.25       0.0  T
   2   -192.9750335  0.172091E-04  0.870E-03    0.25       1.1  T
   3   -192.9750423 -0.878411E-05  0.649E-03    0.25       1.4  T
   4   -192.9750504 -0.811610E-05  0.246E-03    0.25       3.8  T
   5   -192.9750480  0.246808E-05  0.344E-03    0.25       2.7  T
   6   -192.9750515 -0.352252E-05  0.336E-04    0.25      27.6  T
   7   -192.9750515 -0.162957E-07  0.122E-04    0.25      76.1  T
   8   -192.9750515 -0.194669E-08  0.619E-05    0.25     149.9  T
     SCC iter.                  ...        0 min,  0.603 sec
     gradient                   ...        0 min,  0.052 sec
 * total energy  :  -189.6218376 Eh     change       -0.1871285E-04 Eh
   gradient norm :     0.0011377 Eh/α   predicted    -0.1055893E-04 ( -43.57%)
   displ. norm   :     0.2263295 α      lambda       -0.6584435E-04
   maximum displ.:     0.1051164 α      in ANC's #1, #2, #10, ...

........................................................................
.............................. CYCLE   23 ..............................
........................................................................

 iter      E             dE          RMSdq      gap      omega  full diag
   1   -192.9732045 -0.192973E+03  0.283E-02    0.24       0.0  T
   2   -192.9721717  0.103277E-02  0.623E-02    0.24       1.0  T
   3   -192.9730381 -0.866402E-03  0.301E-02    0.24       1.0  T
   4   -192.9732095 -0.171363E-03  0.121E-02    0.24       1.0  T
   5   -192.9731864  0.230941E-04  0.141E-02    0.24       1.0  T
   6   -192.9732349 -0.485163E-04  0.200E-03    0.24       4.6  T
   7   -192.9732360 -0.104579E-05  0.692E-04    0.24      13.4  T
   8   -192.9732361 -0.891067E-07  0.277E-04    0.24      33.5  T
   9   -192.9732361 -0.473023E-08  0.152E-04    0.24      61.0  T
     SCC iter.                  ...        0 min,  0.538 sec
     gradient                   ...        0 min,  0.045 sec
 * total energy  :  -189.6218856 Eh     change       -0.4796188E-04 Eh
   gradient norm :     0.0031579 Eh/α   predicted    -0.3367243E-04 ( -29.79%)
   displ. norm   :     0.0426618 α      lambda       -0.1581834E-04
   maximum displ.:     0.0251623 α      in ANC's #1, #2, #10, ...

........................................................................
.............................. CYCLE   24 ..............................
........................................................................

 iter      E             dE          RMSdq      gap      omega  full diag
   1   -192.9737518 -0.192974E+03  0.477E-03    0.24       0.0  T
   2   -192.9736756  0.762011E-04  0.152E-02    0.24       1.0  T
   3   -192.9737539 -0.783399E-04  0.254E-03    0.24       3.7  T
   4   -192.9737504  0.355594E-05  0.488E-03    0.24       1.9  T
   5   -192.9737535 -0.311787E-05  0.243E-03    0.24       3.8  T
   6   -192.9737545 -0.979690E-06  0.302E-04    0.24      30.8  T
   7   -192.9737545 -0.235697E-07  0.885E-05    0.24     104.9  T
     SCC iter.                  ...        0 min,  0.522 sec
     gradient                   ...        0 min,  0.041 sec
 * total energy  :  -189.6219002 Eh     change       -0.1460723E-04 Eh
   gradient norm :     0.0023286 Eh/α   predicted    -0.7923847E-05 ( -45.75%)
   displ. norm   :     0.1462924 α      lambda       -0.5142128E-04
   maximum displ.:     0.0847527 α      in ANC's #1, #2, #10, ...

........................................................................
.............................. CYCLE   25 ..............................
........................................................................

 iter      E             dE          RMSdq      gap      omega  full diag
   1   -192.9751043 -0.192975E+03  0.167E-02    0.24       0.0  T
   2   -192.9743119  0.792415E-03  0.490E-02    0.24       1.0  T
   3   -192.9751112 -0.799324E-03  0.106E-02    0.24       1.0  T
   4   -192.9750742  0.370378E-04  0.176E-02    0.24       1.0  T
   5   -192.9751163 -0.420614E-04  0.845E-03    0.24       1.1  T
   6   -192.9751279 -0.116456E-04  0.118E-03    0.24       7.8  T
   7   -192.9751283 -0.383298E-06  0.304E-04    0.24      30.6  T
   8   -192.9751283 -0.818130E-08  0.172E-04    0.24      53.9  T
     SCC iter.                  ...        0 min,  0.598 sec
     gradient                   ...        0 min,  0.042 sec
 * total energy  :  -189.6219385 Eh     change       -0.3826311E-04 Eh
   gradient norm :     0.0010520 Eh/α   predicted    -0.2627079E-04 ( -31.34%)
   displ. norm   :     0.2529164 α      lambda       -0.3283288E-04
   maximum displ.:     0.1500730 α      in ANC's #1, #2, #10, ...

........................................................................
.............................. CYCLE   26 ..............................
........................................................................

 iter      E             dE          RMSdq      gap      omega  full diag
   1   -192.9758577 -0.192976E+03  0.252E-02    0.23       0.0  T
   2   -192.9744044  0.145332E-02  0.662E-02    0.23       1.0  T
   3   -192.9758108 -0.140639E-02  0.201E-02    0.23       1.0  T
   4   -192.9758252 -0.144360E-04  0.207E-02    0.23       1.0  T
   5   -192.9758621 -0.368644E-04  0.144E-02    0.23       1.0  T
   6   -192.9758976 -0.354418E-04  0.225E-03    0.23       4.1  T
   7   -192.9758992 -0.164874E-05  0.552E-04    0.23      16.8  T
   8   -192.9758993 -0.564603E-07  0.227E-04    0.23      40.8  T
   9   -192.9758993 -0.300119E-08  0.125E-04    0.23      74.4  T
     SCC iter.                  ...        0 min,  0.600 sec
     gradient                   ...        0 min,  0.054 sec
 * total energy  :  -189.6219720 Eh     change       -0.3354890E-04 Eh
   gradient norm :     0.0029886 Eh/α   predicted    -0.1688326E-04 ( -49.68%)
   displ. norm   :     0.1097604 α      lambda       -0.2121423E-04
   maximum displ.:     0.0666833 α      in ANC's #1, #2, #3, ...

........................................................................
.............................. CYCLE   27 ..............................
........................................................................

 iter      E             dE          RMSdq      gap      omega  full diag
   1   -192.9756933 -0.192976E+03  0.992E-03    0.23       0.0  T
   2   -192.9755787  0.114616E-03  0.199E-02    0.23       1.0  T
   3   -192.9756711 -0.924114E-04  0.106E-02    0.23       1.0  T
   4   -192.9756789 -0.781820E-05  0.973E-03    0.23       1.0  T
   5   -192.9756947 -0.158308E-04  0.369E-03    0.23       2.5  T
   6   -192.9756975 -0.273231E-05  0.502E-04    0.23      18.5  T
   7   -192.9756975 -0.706669E-07  0.161E-04    0.23      57.8  T
   8   -192.9756975 -0.219697E-08  0.774E-05    0.23     119.9  T
     SCC iter.                  ...        0 min,  0.451 sec
     gradient                   ...        0 min,  0.055 sec
 * total energy  :  -189.6219913 Eh     change       -0.1932932E-04 Eh
   gradient norm :     0.0025779 Eh/α   predicted    -0.1073906E-04 ( -44.44%)
   displ. norm   :     0.1724658 α      lambda       -0.4089730E-04
   maximum displ.:     0.1097176 α      in ANC's #1, #2, #3, ...

........................................................................
.............................. CYCLE   28 ..............................
........................................................................

 iter      E             dE          RMSdq      gap      omega  full diag
   1   -192.9750921 -0.192975E+03  0.155E-02    0.23       0.0  T
   2   -192.9749542  0.137954E-03  0.251E-02    0.23       1.0  T
   3   -192.9750058 -0.516193E-04  0.217E-02    0.23       1.0  T
   4   -192.9749950  0.107623E-04  0.202E-02    0.23       1.0  T
   5   -192.9750926 -0.975284E-04  0.419E-03    0.23       2.2  T
   6   -192.9750974 -0.480781E-05  0.850E-04    0.23      10.9  T
   7   -192.9750975 -0.155752E-06  0.369E-04    0.23      25.2  T
   8   -192.9750976 -0.214833E-07  0.134E-04    0.23      69.1  T
     SCC iter.                  ...        0 min,  0.491 sec
     gradient                   ...        0 min,  0.042 sec
 * total energy  :  -189.6220261 Eh     change       -0.3477227E-04 Eh
   gradient norm :     0.0010402 Eh/α   predicted    -0.2105895E-04 ( -39.44%)
   displ. norm   :     0.3232144 α      lambda       -0.4245029E-04
   maximum displ.:     0.2093678 α      in ANC's #1, #2, #3, ...

........................................................................
.............................. CYCLE   29 ..............................
........................................................................

 iter      E             dE          RMSdq      gap      omega  full diag
   1   -192.9741710 -0.192974E+03  0.281E-02    0.22       0.0  T
   2   -192.9736740  0.496992E-03  0.474E-02    0.22       1.0  T
   3   -192.9739201 -0.246118E-03  0.377E-02    0.22       1.0  T
   4   -192.9737845  0.135590E-03  0.396E-02    0.22       1.0  T
   5   -192.9741833 -0.398829E-03  0.493E-03    0.22       1.9  T
   6   -192.9741870 -0.361836E-05  0.198E-03    0.22       4.7  T
   7   -192.9741881 -0.118971E-05  0.541E-04    0.22      17.2  T
   8   -192.9741882 -0.317107E-07  0.255E-04    0.22      36.4  T
   9   -192.9741882 -0.640432E-08  0.150E-04    0.22      62.1  T
     SCC iter.                  ...        0 min,  0.379 sec
     gradient                   ...        0 min,  0.052 sec
 * total energy  :  -189.6220745 Eh     change       -0.4841922E-04 Eh
   gradient norm :     0.0020286 Eh/α   predicted    -0.2221194E-04 ( -54.13%)
   displ. norm   :     0.1637033 α      lambda       -0.2823081E-04
   maximum displ.:     0.1090307 α      in ANC's #1, #2, #3, ...

........................................................................
.............................. CYCLE   30 ..............................
........................................................................

 iter      E             dE          RMSdq      gap      omega  full diag
   1   -192.9742668 -0.192974E+03  0.132E-02    0.22       0.0  T
   2   -192.9741497  0.117076E-03  0.208E-02    0.22       1.0  T
   3   -192.9742073 -0.575436E-04  0.163E-02    0.22       1.0  T
   4   -192.9742021  0.519384E-05  0.182E-02    0.22       1.0  T
   5   -192.9742706 -0.685139E-04  0.193E-03    0.22       4.8  T
   6   -192.9742710 -0.465811E-06  0.618E-04    0.22      15.0  T
   7   -192.9742712 -0.124548E-06  0.147E-04    0.22      63.1  T
     SCC iter.                  ...        0 min,  0.448 sec
     gradient                   ...        0 min,  0.053 sec
 * total energy  :  -189.6221012 Eh     change       -0.2667704E-04 Eh
   gradient norm :     0.0022776 Eh/α   predicted    -0.1449397E-04 ( -45.67%)
   displ. norm   :     0.1887360 α      lambda       -0.4147010E-04
   maximum displ.:     0.1245766 α      in ANC's #1, #2, #3, ...

........................................................................
.............................. CYCLE   31 ..............................
........................................................................

 iter      E             dE          RMSdq      gap      omega  full diag
   1   -192.9747855 -0.192975E+03  0.149E-02    0.22       0.0  T
   2   -192.9746665  0.118981E-03  0.205E-02    0.22       1.0  T
   3   -192.9746882 -0.217175E-04  0.186E-02    0.22       1.0  T
   4   -192.9747881 -0.998814E-04  0.270E-03    0.22       3.4  T
   5   -192.9747889 -0.866000E-06  0.220E-03    0.22       4.2  T
   6   -192.9747895 -0.601110E-06  0.122E-03    0.22       7.6  T
   7   -192.9747900 -0.417582E-06  0.193E-04    0.22      48.0  T
   8   -192.9747900  0.167262E-09  0.138E-04    0.22      67.2  T
     SCC iter.                  ...        0 min,  0.508 sec
     gradient                   ...        0 min,  0.043 sec
 * total energy  :  -189.6221402 Eh     change       -0.3899667E-04 Eh
   gradient norm :     0.0018447 Eh/α   predicted    -0.2147374E-04 ( -44.93%)
   displ. norm   :     0.4549184 α      lambda       -0.6715527E-04
   maximum displ.:     0.2984574 α      in ANC's #1, #2, #3, ...

........................................................................
.............................. CYCLE   32 ..............................
........................................................................

 iter      E             dE          RMSdq      gap      omega  full diag
   1   -192.9755038 -0.192976E+03  0.355E-02    0.22       0.0  T
   2   -192.9747776  0.726241E-03  0.514E-02    0.22       1.0  T
   3   -192.9750442 -0.266624E-03  0.443E-02    0.22       1.0  T
   4   -192.9747905  0.253730E-03  0.590E-02    0.22       1.0  T
   5   -192.9754957 -0.705171E-03  0.104E-02    0.22       1.0  T
   6   -192.9755180 -0.223727E-04  0.505E-03    0.22       1.8  T
   7   -192.9755269 -0.887745E-05  0.101E-03    0.22       9.2  T
   8   -192.9755272 -0.245764E-06  0.368E-04    0.22      25.2  T
   9   -192.9755272 -0.596177E-08  0.185E-04    0.22      50.3  T
     SCC iter.                  ...        0 min,  0.396 sec
     gradient                   ...        0 min,  0.044 sec
 * total energy  :  -189.6222247 Eh     change       -0.8452089E-04 Eh
   gradient norm :     0.0010250 Eh/α   predicted    -0.3666863E-04 ( -56.62%)
   displ. norm   :     0.4726053 α      lambda       -0.5363422E-04
   maximum displ.:     0.3130876 α      in ANC's #1, #2, #3, ...

........................................................................
.............................. CYCLE   33 ..............................
........................................................................

 iter      E             dE          RMSdq      gap      omega  full diag
   1   -192.9754864 -0.192975E+03  0.344E-02    0.21       0.0  T
   2   -192.9745689  0.917442E-03  0.583E-02    0.21       1.0  T
   3   -192.9751395 -0.570507E-03  0.421E-02    0.21       1.0  T
   4   -192.9745480  0.591494E-03  0.660E-02    0.21       1.0  T
   5   -192.9754938 -0.945837E-03  0.887E-03    0.21       1.0  T
   6   -192.9755075 -0.137309E-04  0.448E-03    0.21       2.1  T
   7   -192.9755144 -0.691213E-05  0.939E-04    0.21       9.9  T
   8   -192.9755146 -0.194673E-06  0.366E-04    0.21      25.4  T
   9   -192.9755146 -0.112245E-07  0.189E-04    0.21      49.2  T
     SCC iter.                  ...        0 min,  0.567 sec
     gradient                   ...        0 min,  0.044 sec
 * total energy  :  -189.6222934 Eh     change       -0.6863725E-04 Eh
   gradient norm :     0.0011631 Eh/α   predicted    -0.2948206E-04 ( -57.05%)
   displ. norm   :     0.4134671 α      lambda       -0.4149134E-04
   maximum displ.:     0.2770384 α      in ANC's #1, #2, #3, ...

........................................................................
.............................. CYCLE   34 ..............................
........................................................................

 iter      E             dE          RMSdq      gap      omega  full diag
   1   -192.9754465 -0.192975E+03  0.280E-02    0.21       0.0  T
   2   -192.9746514  0.795142E-03  0.547E-02    0.21       1.0  T
   3   -192.9752632 -0.611826E-03  0.331E-02    0.21       1.0  T
   4   -192.9747257  0.537535E-03  0.570E-02    0.21       1.0  T
   5   -192.9754628 -0.737077E-03  0.627E-03    0.21       1.5  T
   6   -192.9754682 -0.544523E-05  0.296E-03    0.21       3.1  T
   7   -192.9754713 -0.307636E-05  0.553E-04    0.21      16.8  T
   8   -192.9754713 -0.351558E-07  0.314E-04    0.21      29.6  T
   9   -192.9754713 -0.147861E-07  0.169E-04    0.21      54.8  T
     SCC iter.                  ...        0 min,  0.610 sec
     gradient                   ...        0 min,  0.052 sec
 * total energy  :  -189.6223491 Eh     change       -0.5576974E-04 Eh
   gradient norm :     0.0011030 Eh/α   predicted    -0.2232398E-04 ( -59.97%)
   displ. norm   :     0.3851097 α      lambda       -0.3957724E-04
   maximum displ.:     0.2602051 α      in ANC's #1, #2, #3, ...

........................................................................
.............................. CYCLE   35 ..............................
........................................................................

 iter      E             dE          RMSdq      gap      omega  full diag
   1   -192.9752934 -0.192975E+03  0.249E-02    0.20       0.0  T
   2   -192.9743979  0.895427E-03  0.571E-02    0.20       1.0  T
   3   -192.9751880 -0.790049E-03  0.274E-02    0.20       1.0  T
   4   -192.9746983  0.489669E-03  0.527E-02    0.20       1.0  T
   5   -192.9753155 -0.617158E-03  0.581E-03    0.20       1.6  T
   6   -192.9753194 -0.396303E-05  0.244E-03    0.20       3.8  T
   7   -192.9753215 -0.207386E-05  0.471E-04    0.20      19.7  T
   8   -192.9753215 -0.209096E-07  0.277E-04    0.20      33.6  T
   9   -192.9753215 -0.115580E-07  0.155E-04    0.20      59.9  T
     SCC iter.                  ...        0 min,  0.480 sec
     gradient                   ...        0 min,  0.042 sec
 * total energy  :  -189.6224034 Eh     change       -0.5426721E-04 Eh
   gradient norm :     0.0008566 Eh/α   predicted    -0.2109497E-04 ( -61.13%)
   displ. norm   :     0.4024292 α      lambda       -0.4233674E-04
   maximum displ.:     0.2739188 α      in ANC's #1, #2, #3, ...

........................................................................
.............................. CYCLE   36 ..............................
........................................................................

 iter      E             dE          RMSdq      gap      omega  full diag
   1   -192.9751459 -0.192975E+03  0.257E-02    0.19       0.0  T
   2   -192.9739740  0.117185E-02  0.635E-02    0.20       1.0  T
   3   -192.9750499 -0.107586E-02  0.272E-02    0.19       1.0  T
   4   -192.9745178  0.532105E-03  0.561E-02    0.20       1.0  T
   5   -192.9751753 -0.657554E-03  0.690E-03    0.19       1.3  T
   6   -192.9751810 -0.562027E-05  0.263E-03    0.19       3.5  T
   7   -192.9751833 -0.237710E-05  0.546E-04    0.19      17.0  T
   8   -192.9751834 -0.410119E-07  0.266E-04    0.19      34.9  T
   9   -192.9751834 -0.901707E-08  0.151E-04    0.19      61.4  T
     SCC iter.                  ...        0 min,  0.411 sec
     gradient                   ...        0 min,  0.046 sec
 * total energy  :  -189.6224606 Eh     change       -0.5719809E-04 Eh
   gradient norm :     0.0006519 Eh/α   predicted    -0.2269337E-04 ( -60.32%)
   displ. norm   :     0.4024675 α      lambda       -0.3982311E-04
   maximum displ.:     0.2766815 α      in ANC's #1, #2, #3, ...

........................................................................
.............................. CYCLE   37 ..............................
........................................................................

 iter      E             dE          RMSdq      gap      omega  full diag
   1   -192.9750800 -0.192975E+03  0.256E-02    0.19       0.0  T
   2   -192.9737978  0.128218E-02  0.643E-02    0.19       1.0  T
   3   -192.9749974 -0.119967E-02  0.255E-02    0.19       1.0  T
   4   -192.9744490  0.548409E-03  0.585E-02    0.19       1.0  T
   5   -192.9751125 -0.663484E-03  0.792E-03    0.19       1.2  T
   6   -192.9751206 -0.808464E-05  0.265E-03    0.19       3.5  T
   7   -192.9751230 -0.237220E-05  0.591E-04    0.19      15.7  T
   8   -192.9751230 -0.613249E-07  0.236E-04    0.19      39.3  T
   9   -192.9751230 -0.434309E-08  0.135E-04    0.19      68.9  T
     SCC iter.                  ...        0 min,  0.683 sec
     gradient                   ...        0 min,  0.043 sec
 * total energy  :  -189.6225136 Eh     change       -0.5304835E-04 Eh
   gradient norm :     0.0005892 Eh/α   predicted    -0.2134885E-04 ( -59.76%)
   displ. norm   :     0.3448537 α      lambda       -0.3100077E-04
   maximum displ.:     0.2406266 α      in ANC's #1, #2, #3, ...

........................................................................
.............................. CYCLE   38 ..............................
........................................................................

 iter      E             dE          RMSdq      gap      omega  full diag
   1   -192.9752721 -0.192975E+03  0.217E-02    0.18       0.0  T
   2   -192.9743857  0.886397E-03  0.524E-02    0.18       1.0  T
   3   -192.9752239 -0.838199E-03  0.196E-02    0.18       1.0  T
   4   -192.9748910  0.332916E-03  0.473E-02    0.18       1.0  T
   5   -192.9752940 -0.403077E-03  0.808E-03    0.18       1.1  T
   6   -192.9753040 -0.992653E-05  0.187E-03    0.18       5.0  T
   7   -192.9753051 -0.115817E-05  0.415E-04    0.18      22.4  T
   8   -192.9753051 -0.231869E-07  0.179E-04    0.18      51.8  T
   9   -192.9753051 -0.231799E-08  0.922E-05    0.18     100.7  T
     SCC iter.                  ...        0 min,  0.527 sec
     gradient                   ...        0 min,  0.047 sec
 * total energy  :  -189.6225551 Eh     change       -0.4146722E-04 Eh
   gradient norm :     0.0005508 Eh/α   predicted    -0.1632313E-04 ( -60.64%)
   displ. norm   :     0.2627650 α      lambda       -0.2278601E-04
   maximum displ.:     0.1865305 α      in ANC's #1, #2, #3, ...

........................................................................
.............................. CYCLE   39 ..............................
........................................................................

 iter      E             dE          RMSdq      gap      omega  full diag
   1   -192.9755435 -0.192976E+03  0.167E-02    0.18       0.0  T
   2   -192.9750434  0.500120E-03  0.392E-02    0.18       1.0  T
   3   -192.9755242 -0.480794E-03  0.134E-02    0.18       1.0  T
   4   -192.9755089  0.153338E-04  0.177E-02    0.18       1.0  T
   5   -192.9755409 -0.319742E-04  0.114E-02    0.18       1.0  T
   6   -192.9755639 -0.230029E-04  0.111E-03    0.18       8.4  T
   7   -192.9755642 -0.387194E-06  0.263E-04    0.18      35.3  T
   8   -192.9755643 -0.656854E-08  0.124E-04    0.18      74.8  T
     SCC iter.                  ...        0 min,  0.427 sec
     gradient                   ...        0 min,  0.040 sec
 * total energy  :  -189.6225863 Eh     change       -0.3122601E-04 Eh
   gradient norm :     0.0005057 Eh/α   predicted    -0.1174289E-04 ( -62.39%)
   displ. norm   :     0.2087504 α      lambda       -0.1933523E-04
   maximum displ.:     0.1508011 α      in ANC's #1, #2, #7, ...

........................................................................
.............................. CYCLE   40 ..............................
........................................................................

 iter      E             dE          RMSdq      gap      omega  full diag
   1   -192.9758519 -0.192976E+03  0.137E-02    0.17       0.0  T
   2   -192.9755956  0.256355E-03  0.285E-02    0.17       1.0  T
   3   -192.9758331 -0.237495E-03  0.117E-02    0.17       1.0  T
   4   -192.9757004  0.132707E-03  0.301E-02    0.17       1.0  T
   5   -192.9758614 -0.161033E-03  0.352E-03    0.17       2.6  T
   6   -192.9758633 -0.188255E-05  0.749E-04    0.17      12.4  T
   7   -192.9758635 -0.174802E-06  0.188E-04    0.17      49.4  T
   8   -192.9758635 -0.215999E-08  0.105E-04    0.17      88.2  T
     SCC iter.                  ...        0 min,  0.376 sec
     gradient                   ...        0 min,  0.041 sec
 * total energy  :  -189.6226133 Eh     change       -0.2696323E-04 Eh
   gradient norm :     0.0004553 Eh/α   predicted    -0.9855391E-05 ( -63.45%)
   displ. norm   :     0.1800236 α      lambda       -0.1828446E-04
   maximum displ.:     0.1310580 α      in ANC's #1, #2, #7, ...

........................................................................
.............................. CYCLE   41 ..............................
........................................................................

 iter      E             dE          RMSdq      gap      omega  full diag
   1   -192.9760283 -0.192976E+03  0.132E-02    0.17       0.0  T
   2   -192.9758583  0.170011E-03  0.237E-02    0.17       1.0  T
   3   -192.9760011 -0.142880E-03  0.124E-02    0.17       1.0  T
   4   -192.9758182  0.182951E-03  0.346E-02    0.17       1.0  T
   5   -192.9760353 -0.217092E-03  0.241E-03    0.17       3.9  T
   6   -192.9760361 -0.801794E-06  0.765E-04    0.17      12.1  T
   7   -192.9760363 -0.194824E-06  0.170E-04    0.17      54.5  T
     SCC iter.                  ...        0 min,  0.328 sec
     gradient                   ...        0 min,  0.058 sec
 * total energy  :  -189.6226391 Eh     change       -0.2577337E-04 Eh
   gradient norm :     0.0004112 Eh/α   predicted    -0.9274616E-05 ( -64.01%)
   displ. norm   :     0.1849934 α      lambda       -0.1977915E-04
   maximum displ.:     0.1347162 α      in ANC's #1, #2, #7, ...

........................................................................
.............................. CYCLE   42 ..............................
........................................................................

 iter      E             dE          RMSdq      gap      omega  full diag
   1   -192.9761518 -0.192976E+03  0.149E-02    0.16       0.0  T
   2   -192.9759984  0.153361E-03  0.234E-02    0.16       1.0  T
   3   -192.9760960 -0.975744E-04  0.168E-02    0.17       1.0  T
   4   -192.9758025  0.293477E-03  0.436E-02    0.16       1.0  T
   5   -192.9761581 -0.355564E-03  0.222E-03    0.16       4.2  T
   6   -192.9761587 -0.638367E-06  0.917E-04    0.16      10.1  T
   7   -192.9761590 -0.298563E-06  0.171E-04    0.16      54.4  T
     SCC iter.                  ...        0 min,  0.358 sec
     gradient                   ...        0 min,  0.041 sec
 * total energy  :  -189.6226670 Eh     change       -0.2792455E-04 Eh
   gradient norm :     0.0003636 Eh/α   predicted    -0.1004064E-04 ( -64.04%)
   displ. norm   :     0.2084451 α      lambda       -0.2233495E-04
   maximum displ.:     0.1511828 α      in ANC's #1, #7, #2, ...
 * RMSD in coord.:     0.4804095 α      energy gain  -0.9109285E-03 Eh

generating ANC from model Hessian ...
Using Lindh-Hessian (1995)
 Shifting diagonal of input Hessian by    1.0067688486255791E-002
 Lowest  eigenvalues of input Hessian
    0.010000    0.000000    0.000000    0.000000    0.000000    0.000000
    0.000000    0.010123    0.010246    0.010369    0.010416    0.010545
    0.010672    0.010989    0.011128    0.011147    0.011291    0.011408
 Highest eigenvalues
    2.145934    2.160577    2.286804    2.300443    2.543479    2.558628


........................................................................
.............................. CYCLE   43 ..............................
........................................................................

 iter      E             dE          RMSdq      gap      omega  full diag
   1   -192.9762213 -0.192976E+03  0.180E-02    0.16       0.0  T
   2   -192.9760653  0.156081E-03  0.242E-02    0.16       1.0  T
   3   -192.9761170 -0.517711E-04  0.212E-02    0.16       1.0  T
   4   -192.9757526  0.364461E-03  0.507E-02    0.16       1.0  T
   5   -192.9762269 -0.474289E-03  0.311E-03    0.16       3.0  T
   6   -192.9762284 -0.151196E-05  0.131E-03    0.16       7.1  T
   7   -192.9762290 -0.620061E-06  0.217E-04    0.16      42.8  T
   8   -192.9762290 -0.239282E-08  0.115E-04    0.16      80.6  T
     SCC iter.                  ...        0 min,  0.426 sec
     gradient                   ...        0 min,  0.043 sec
 * total energy  :  -189.6226984 Eh     change       -0.3135176E-04 Eh
   gradient norm :     0.0003569 Eh/α   predicted     0.0000000E+00 (-100.00%)
   displ. norm   :     0.0325498 α      lambda       -0.1305870E-06
   maximum displ.:     0.0253089 α      in ANC's #1, #7, #4, ...

........................................................................
.............................. CYCLE   44 ..............................
........................................................................

 iter      E             dE          RMSdq      gap      omega  full diag
   1   -192.9761724 -0.192976E+03  0.327E-03    0.16       0.0  T
   2   -192.9761716  0.836034E-06  0.289E-03    0.16       3.2  T
   3   -192.9761530  0.185553E-04  0.105E-02    0.16       1.0  T
   4   -192.9761707 -0.176896E-04  0.236E-03    0.16       3.9  T
   5   -192.9761723 -0.160170E-05  0.685E-04    0.16      13.6  T
   6   -192.9761724 -0.127106E-06  0.110E-04    0.16      84.1  T
   7   -192.9761725 -0.304146E-08  0.307E-05    0.16     302.8  T
     SCC iter.                  ...        0 min,  0.455 sec
     gradient                   ...        0 min,  0.050 sec
 * total energy  :  -189.6227057 Eh     change       -0.7384592E-05 Eh
   gradient norm :     0.0002583 Eh/α   predicted    -0.2561990E-05 ( -65.31%)
   displ. norm   :     0.0950556 α      lambda       -0.1381118E-04
   maximum displ.:     0.0626871 α      in ANC's #1, #7, #4, ...

........................................................................
.............................. CYCLE   45 ..............................
........................................................................

 iter      E             dE          RMSdq      gap      omega  full diag
   1   -192.9760496 -0.192976E+03  0.108E-02    0.16       0.0  T
   2   -192.9760443  0.527791E-05  0.837E-03    0.16       1.1  T
   3   -192.9757822  0.262106E-03  0.387E-02    0.16       1.0  T
   4   -192.9760380 -0.255811E-03  0.606E-03    0.16       1.5  T
   5   -192.9760488 -0.108103E-04  0.181E-03    0.16       5.1  T
   6   -192.9760498 -0.950672E-06  0.243E-04    0.16      38.2  T
   7   -192.9760498 -0.121898E-07  0.865E-05    0.16     107.3  T
     SCC iter.                  ...        0 min,  0.496 sec
     gradient                   ...        0 min,  0.048 sec
 * total energy  :  -189.6227243 Eh     change       -0.1851798E-04 Eh
   gradient norm :     0.0002871 Eh/α   predicted    -0.6933757E-05 ( -62.56%)
   displ. norm   :     0.1746939 α      lambda       -0.2099901E-04
   maximum displ.:     0.1130629 α      in ANC's #1, #7, #4, ...

........................................................................
.............................. CYCLE   46 ..............................
........................................................................

 iter      E             dE          RMSdq      gap      omega  full diag
   1   -192.9758380 -0.192976E+03  0.196E-02    0.16       0.0  T
   2   -192.9758233  0.147099E-04  0.141E-02    0.16       1.0  T
   3   -192.9750830  0.740362E-03  0.610E-02    0.16       1.0  T
   4   -192.9756811 -0.598147E-03  0.239E-02    0.16       1.0  T
   5   -192.9758371 -0.156008E-03  0.309E-03    0.16       3.0  T
   6   -192.9758387 -0.161304E-05  0.760E-04    0.16      12.2  T
   7   -192.9758389 -0.164284E-06  0.171E-04    0.16      54.2  T
   8   -192.9758389  0.767386E-12  0.113E-04    0.16      82.0  T
     SCC iter.                  ...        0 min,  0.489 sec
     gradient                   ...        0 min,  0.041 sec
 * total energy  :  -189.6227498 Eh     change       -0.2554690E-04 Eh
   gradient norm :     0.0004758 Eh/α   predicted    -0.1064201E-04 ( -58.34%)
   displ. norm   :     0.1861747 α      lambda       -0.1755313E-04
   maximum displ.:     0.1240919 α      in ANC's #1, #7, #4, ...

........................................................................
.............................. CYCLE   47 ..............................
........................................................................

 iter      E             dE          RMSdq      gap      omega  full diag
   1   -192.9757638 -0.192976E+03  0.195E-02    0.16       0.0  T
   2   -192.9757048  0.590324E-04  0.211E-02    0.16       1.0  T
   3   -192.9753097  0.395110E-03  0.507E-02    0.16       1.0  T
   4   -192.9756222 -0.312508E-03  0.205E-02    0.16       1.0  T
   5   -192.9757643 -0.142099E-03  0.238E-03    0.16       3.9  T
   6   -192.9757652 -0.883877E-06  0.716E-04    0.16      13.0  T
   7   -192.9757653 -0.114045E-06  0.220E-04    0.16      42.3  T
     SCC iter.                  ...        0 min,  0.413 sec
     gradient                   ...        0 min,  0.042 sec
 * total energy  :  -189.6227702 Eh     change       -0.2039480E-04 Eh
   gradient norm :     0.0006045 Eh/α   predicted    -0.8911816E-05 ( -56.30%)
   displ. norm   :     0.1349589 α      lambda       -0.1183020E-04
   maximum displ.:     0.0911241 α      in ANC's #1, #7, #4, ...

........................................................................
.............................. CYCLE   48 ..............................
........................................................................

 iter      E             dE          RMSdq      gap      omega  full diag
   1   -192.9758560 -0.192976E+03  0.139E-02    0.16       0.0  T
   2   -192.9757750  0.810451E-04  0.224E-02    0.16       1.0  T
   3   -192.9757578  0.171513E-04  0.245E-02    0.16       1.0  T
   4   -192.9757345  0.233340E-04  0.193E-02    0.16       1.0  T
   5   -192.9758572 -0.122780E-03  0.158E-03    0.16       5.9  T
   6   -192.9758576 -0.395947E-06  0.521E-04    0.16      17.8  T
   7   -192.9758577 -0.652592E-07  0.171E-04    0.16      54.3  T
     SCC iter.                  ...        0 min,  0.336 sec
     gradient                   ...        0 min,  0.042 sec
 * total energy  :  -189.6227854 Eh     change       -0.1523127E-04 Eh
   gradient norm :     0.0004927 Eh/α   predicted    -0.5966411E-05 ( -60.83%)
   displ. norm   :     0.1363225 α      lambda       -0.1305093E-04
   maximum displ.:     0.0943895 α      in ANC's #1, #4, #7, ...

........................................................................
.............................. CYCLE   49 ..............................
........................................................................

 iter      E             dE          RMSdq      gap      omega  full diag
   1   -192.9761552 -0.192976E+03  0.130E-02    0.16       0.0  T
   2   -192.9760247  0.130527E-03  0.274E-02    0.16       1.0  T
   3   -192.9761083 -0.835720E-04  0.179E-02    0.16       1.0  T
   4   -192.9760244  0.838898E-04  0.202E-02    0.16       1.0  T
   5   -192.9761575 -0.133101E-03  0.134E-03    0.16       6.9  T
   6   -192.9761578 -0.271132E-06  0.516E-04    0.16      18.0  T
   7   -192.9761578 -0.566773E-07  0.212E-04    0.16      43.9  T
     SCC iter.                  ...        0 min,  0.375 sec
     gradient                   ...        0 min,  0.044 sec
 * total energy  :  -189.6228035 Eh     change       -0.1807195E-04 Eh
   gradient norm :     0.0003442 Eh/α   predicted    -0.6580867E-05 ( -63.59%)
   displ. norm   :     0.1592696 α      lambda       -0.1691086E-04
   maximum displ.:     0.1099262 α      in ANC's #1, #4, #7, ...

........................................................................
.............................. CYCLE   50 ..............................
........................................................................

 iter      E             dE          RMSdq      gap      omega  full diag
   1   -192.9763335 -0.192976E+03  0.153E-02    0.15       0.0  T
   2   -192.9761599  0.173515E-03  0.316E-02    0.15       1.0  T
   3   -192.9762618 -0.101873E-03  0.218E-02    0.15       1.0  T
   4   -192.9761594  0.102408E-03  0.233E-02    0.15       1.0  T
   5   -192.9763365 -0.177144E-03  0.142E-03    0.15       6.6  T
   6   -192.9763368 -0.209077E-06  0.662E-04    0.15      14.0  T
   7   -192.9763369 -0.105333E-06  0.250E-04    0.15      37.2  T
     SCC iter.                  ...        0 min,  0.372 sec
     gradient                   ...        0 min,  0.042 sec
 * total energy  :  -189.6228265 Eh     change       -0.2301642E-04 Eh
   gradient norm :     0.0002776 Eh/α   predicted    -0.8552367E-05 ( -62.84%)
   displ. norm   :     0.1976695 α      lambda       -0.1940546E-04
   maximum displ.:     0.1363263 α      in ANC's #1, #4, #7, ...

[...]
    10   6 C    3.971 --     8 C    1.613     6 C    1.228    22 H    0.966
    11   6 C    3.974 --    15 C    1.424     2 C    1.340    23 H    0.953
    12   6 C    3.977 --    16 C    1.516     3 C    1.308    24 H    0.954
                            14 C    0.108
    13   6 C    3.977 --    17 C    1.539     5 C    1.298    25 H    0.966
    14   6 C    3.973 --    18 C    1.521     6 C    1.306    26 H    0.967
                            12 C    0.108
    15   6 C    3.973 --    11 C    1.424    17 C    1.293    27 C    1.069
    16   6 C    3.983 --    12 C    1.516    18 C    1.350    28 H    0.969
    17   6 C    3.972 --    13 C    1.539    15 C    1.293    29 H    0.966
    18   6 C    3.975 --    14 C    1.521    16 C    1.350    30 H    0.970
    19   1 H    0.997 --     7 C    0.966
    20   1 H    0.997 --     8 C    0.966
    21   1 H    0.996 --     9 C    0.966
    22   1 H    0.996 --    10 C    0.966
    23   1 H    0.995 --    11 C    0.953
    24   1 H    0.998 --    12 C    0.954
    25   1 H    0.996 --    13 C    0.966
    26   1 H    0.997 --    14 C    0.967
    27   6 C    3.956 --    31 N    1.360    35 N    1.355    15 C    1.069
    28   1 H    0.999 --    16 C    0.969
    29   1 H    0.996 --    17 C    0.966
    30   1 H    0.998 --    18 C    0.970
    31   7 N    2.893 --    27 C    1.360    32 N    1.202
    32   7 N    3.611 --    31 N    1.202    33 C    1.083    37 C    1.025
                            36 O    0.121
    33   6 C    3.957 --    36 O    1.620    34 N    1.093    32 N    1.083
    34   7 N    3.619 --    35 N    1.195    33 C    1.093    43 C    1.028
                            36 O    0.123
    35   7 N    2.886 --    27 C    1.355    34 N    1.195
    36   8 O    1.983 --    33 C    1.620    34 N    0.123    32 N    0.121
    37   6 C    3.942 --    42 C    1.368    38 C    1.357    32 N    1.025
    38   6 C    3.968 --    39 C    1.463    37 C    1.357    49 H    0.960
                            41 C    0.105
    39   6 C    3.988 --    38 C    1.463    40 C    1.422    50 H    0.968
                            42 C    0.103
    40   6 C    3.960 --    41 C    1.429    39 C    1.422    51 H    0.969
    41   6 C    3.987 --    42 C    1.453    40 C    1.429    52 H    0.968
                            38 C    0.105
    42   6 C    3.972 --    41 C    1.453    37 C    1.368    53 H    0.965
                            39 C    0.103
    43   6 C    3.941 --    44 C    1.366    48 C    1.354    34 N    1.028
    44   6 C    3.970 --    45 C    1.453    43 C    1.366    58 H    0.964
                            47 C    0.103
    45   6 C    3.987 --    44 C    1.453    46 C    1.429    57 H    0.968
                            48 C    0.104
    46   6 C    3.958 --    45 C    1.429    47 C    1.420    56 H    0.969
    47   6 C    3.987 --    48 C    1.465    46 C    1.420    55 H    0.968
                            44 C    0.103
    48   6 C    3.967 --    47 C    1.465    43 C    1.354    54 H    0.959
                            45 C    0.104
    49   1 H    0.995 --    38 C    0.960
    50   1 H    0.996 --    39 C    0.968
    51   1 H    0.996 --    40 C    0.969
    52   1 H    0.995 --    41 C    0.968
    53   1 H    0.995 --    42 C    0.965
    54   1 H    0.994 --    48 C    0.959
    55   1 H    0.995 --    47 C    0.968
    56   1 H    0.996 --    46 C    0.969
    57   1 H    0.996 --    45 C    0.968
    58   1 H    0.996 --    44 C    0.964
    59   6 C    3.979 --    62 C    1.331    61 C    1.197    60 C    1.191
    60   6 C    3.986 --    69 C    1.337    63 C    1.253    59 C    1.191
    61   6 C    3.986 --    70 C    1.311    64 C    1.264    59 C    1.197
    62   6 C    3.987 --    59 C    1.331    65 C    1.233    66 C    1.231
    63   6 C    3.978 --    71 C    1.294    60 C    1.253    67 C    1.239
    64   6 C    3.984 --    72 C    1.307    61 C    1.264    68 C    1.229
    65   6 C    3.972 --    67 C    1.604    62 C    1.233    77 H    0.966
    66   6 C    3.981 --    68 C    1.613    62 C    1.231    78 H    0.966
    67   6 C    3.978 --    65 C    1.604    63 C    1.239    79 H    0.966
    68   6 C    3.977 --    66 C    1.613    64 C    1.229    80 H    0.966
    69   6 C    3.979 --    73 C    1.432    60 C    1.337    81 H    0.954
    70   6 C    3.985 --    74 C    1.520    61 C    1.311    82 H    0.961
                            72 C    0.110
    71   6 C    3.981 --    75 C    1.547    63 C    1.294    83 H    0.966
    72   6 C    3.980 --    76 C    1.524    64 C    1.307    84 H    0.967
                            70 C    0.110
    73   6 C    3.973 --    69 C    1.432    75 C    1.286    85 C    1.068
    74   6 C    3.983 --    70 C    1.520    76 C    1.348    86 H    0.970
    75   6 C    3.974 --    71 C    1.547    73 C    1.286    87 H    0.964
    76   6 C    3.978 --    72 C    1.524    74 C    1.348    88 H    0.970
    77   1 H    0.997 --    65 C    0.966
    78   1 H    0.997 --    66 C    0.966
    79   1 H    0.996 --    67 C    0.966
    80   1 H    0.997 --    68 C    0.966
    81   1 H    0.996 --    69 C    0.954
    82   1 H    0.998 --    70 C    0.961
    83   1 H    0.997 --    71 C    0.966
    84   1 H    0.998 --    72 C    0.967
    85   6 C    3.956 --    89 N    1.362    93 N    1.344    73 C    1.068
    86   1 H    0.998 --    74 C    0.970
    87   1 H    0.996 --    75 C    0.964
    88   1 H    0.997 --    76 C    0.970
    89   7 N    2.905 --    85 C    1.362    90 N    1.206
    90   7 N    3.618 --    89 N    1.206    91 C    1.064    95 C    1.035
                            94 O    0.126
    91   6 C    3.957 --    94 O    1.697    90 N    1.064    92 N    1.053
    92   7 N    3.632 --    93 N    1.227    91 C    1.053   101 C    1.038
                            94 O    0.120
    93   7 N    2.912 --    85 C    1.344    92 N    1.227
    94   8 O    2.055 --    91 C    1.697    90 N    0.126    92 N    0.120
    95   6 C    3.941 --   100 C    1.364    96 C    1.350    90 N    1.035
    96   6 C    3.968 --    97 C    1.467    95 C    1.350   107 H    0.961
                            99 C    0.104
    97   6 C    3.987 --    96 C    1.467    98 C    1.418   108 H    0.968
                           100 C    0.102
    98   6 C    3.955 --    99 C    1.430    97 C    1.418   109 H    0.969
    99   6 C    3.987 --   100 C    1.452    98 C    1.430   110 H    0.968
                            96 C    0.104
   100   6 C    3.967 --    99 C    1.452    95 C    1.364   111 H    0.962
                            97 C    0.102
   101   6 C    3.941 --   102 C    1.357   106 C    1.351    92 N    1.038
   102   6 C    3.965 --   103 C    1.456   101 C    1.357   116 H    0.961
                           105 C    0.102
   103   6 C    3.987 --   102 C    1.456   104 C    1.428   115 H    0.967
                           106 C    0.103
   104   6 C    3.952 --   103 C    1.428   105 C    1.418   114 H    0.969
   105   6 C    3.986 --   106 C    1.466   104 C    1.418   113 H    0.968
                           102 C    0.102
   106   6 C    3.968 --   105 C    1.466   101 C    1.351   112 H    0.963
                           103 C    0.103
   107   1 H    0.996 --    96 C    0.961
   108   1 H    0.996 --    97 C    0.968
   109   1 H    0.996 --    98 C    0.969
   110   1 H    0.995 --    99 C    0.968
   111   1 H    0.994 --   100 C    0.962
   112   1 H    0.996 --   106 C    0.963
   113   1 H    0.995 --   105 C    0.968
   114   1 H    0.996 --   104 C    0.969
   115   1 H    0.995 --   103 C    0.967
   116   1 H    0.993 --   102 C    0.961
 ---------------------------------------------------------------------------

Topologies differ in bond orders
Writing corrected topology to xtbtopo.mol

molecular dipole:
                 x           y           z       tot (Debye)
 q only:       -0.774      -0.356       2.710
   full:       -0.950      -0.533       2.757       7.535
molecular quadrupole (traceless):
                xx          xy          yy          xz          yz          zz
 q only:        4.140       2.137      55.905      -3.439     -11.101     -60.044
  q+dip:       13.499       4.118      66.448      -3.824     -10.639     -79.947
   full:        2.357       5.514      52.883      -2.579      -8.337     -55.239

           -------------------------------------------------
          |                Geometry Summary                 |
           -------------------------------------------------

      molecular mass/u    :      955.0730446
   center of mass at/Å    :       -0.2037445       0.3815436       1.7154059
  moments of inertia/u·Å² :        0.9011150E+04   0.1734237E+05   0.2106381E+05
rotational constants/cm⁻¹ :        0.1870753E-02   0.9720492E-03   0.8003127E-03

 * 122 selected distances

     #   Z          #   Z                                           value/Å
     1   6 C        4   6 C                                       1.4074229
     2   6 C        5   6 C                                       1.4210595
     3   6 C        6   6 C                                       1.4193036
     4   6 C        7   6 C                                       1.4191181
     4   6 C        8   6 C                                       1.4181912
     5   6 C        9   6 C                                       1.4165989
     7   6 C        9   6 C                                       1.3567623
     6   6 C       10   6 C                                       1.4188477
     8   6 C       10   6 C                                       1.3556084
     2   6 C       11   6 C                                       1.3991160
     3   6 C       12   6 C                                       1.4087425
     5   6 C       13   6 C                                       1.4077497
     6   6 C       14   6 C                                       1.4059597
    11   6 C       15   6 C                                       1.3833123
    12   6 C       16   6 C                                       1.3720191
    13   6 C       17   6 C                                       1.3672375
    15   6 C       17   6 C                                       1.4043536
    14   6 C       18   6 C                                       1.3697481
    16   6 C       18   6 C                                       1.3962265
     7   6 C       19   1 H                                       1.0802423
     8   6 C       20   1 H                                       1.0798971
     9   6 C       21   1 H                                       1.0797580
    10   6 C       22   1 H                                       1.0799705
    11   6 C       23   1 H                                       1.0758480 (min)
    12   6 C       24   1 H                                       1.0767094
    13   6 C       25   1 H                                       1.0798304
    14   6 C       26   1 H                                       1.0801539
    16   6 C       28   1 H                                       1.0809289
    17   6 C       29   1 H                                       1.0775447
    18   6 C       30   1 H                                       1.0794232
    27   6 C       31   7 N                                       1.3241105
    31   7 N       32   7 N                                       1.3244361
    32   7 N       33   6 C                                       1.3908272
    33   6 C       34   7 N                                       1.3894577
    27   6 C       35   7 N                                       1.3247346
    34   7 N       35   7 N                                       1.3298370
    33   6 C       36   8 O                                       1.2125475
    32   7 N       37   6 C                                       1.4111430
    37   6 C       38   6 C                                       1.3939108
    38   6 C       39   6 C                                       1.3792852
    39   6 C       40   6 C                                       1.3865540
    40   6 C       41   6 C                                       1.3856171
    37   6 C       42   6 C                                       1.3916754
    41   6 C       42   6 C                                       1.3823785
    34   7 N       43   6 C                                       1.4115126
    43   6 C       44   6 C                                       1.3922475
    44   6 C       45   6 C                                       1.3822049
    45   6 C       46   6 C                                       1.3852482
    46   6 C       47   6 C                                       1.3868388
    43   6 C       48   6 C                                       1.3945549
    47   6 C       48   6 C                                       1.3792406
    38   6 C       49   1 H                                       1.0777549
    39   6 C       50   1 H                                       1.0786715
    40   6 C       51   1 H                                       1.0785929
    41   6 C       52   1 H                                       1.0786350
    42   6 C       53   1 H                                       1.0773466
    48   6 C       54   1 H                                       1.0775373
    47   6 C       55   1 H                                       1.0788976
    46   6 C       56   1 H                                       1.0786165
    45   6 C       57   1 H                                       1.0785128
    44   6 C       58   1 H                                       1.0768334
    59   6 C       62   6 C                                       1.4065439
    60   6 C       63   6 C                                       1.4215820 (max)
    61   6 C       64   6 C                                       1.4197417
    62   6 C       65   6 C                                       1.4180935
    62   6 C       66   6 C                                       1.4186037
    63   6 C       67   6 C                                       1.4158239
    65   6 C       67   6 C                                       1.3565842
    64   6 C       68   6 C                                       1.4180890
    66   6 C       68   6 C                                       1.3553350
    60   6 C       69   6 C                                       1.4028128
    61   6 C       70   6 C                                       1.4083312
    63   6 C       71   6 C                                       1.4077550
    64   6 C       72   6 C                                       1.4051730
    69   6 C       73   6 C                                       1.3833641
    70   6 C       74   6 C                                       1.3720710
    71   6 C       75   6 C                                       1.3654780
    73   6 C       75   6 C                                       1.4066783
    72   6 C       76   6 C                                       1.3694839
    74   6 C       76   6 C                                       1.3972528
    65   6 C       77   1 H                                       1.0798620
    66   6 C       78   1 H                                       1.0797589
    67   6 C       79   1 H                                       1.0795508
    68   6 C       80   1 H                                       1.0797189
    69   6 C       81   1 H                                       1.0773267
    70   6 C       82   1 H                                       1.0790359
    71   6 C       83   1 H                                       1.0799524
    72   6 C       84   1 H                                       1.0798702
    74   6 C       86   1 H                                       1.0806159
    75   6 C       87   1 H                                       1.0778310
    76   6 C       88   1 H                                       1.0793348
    85   6 C       89   7 N                                       1.3242393
    89   7 N       90   7 N                                       1.3258057
    90   7 N       91   6 C                                       1.3995030
    91   6 C       92   7 N                                       1.4029285
    85   6 C       93   7 N                                       1.3277855
    92   7 N       93   7 N                                       1.3194503
    91   6 C       94   8 O                                       1.1994155
    90   7 N       95   6 C                                       1.4092356
    95   6 C       96   6 C                                       1.3961083
    96   6 C       97   6 C                                       1.3789106
    97   6 C       98   6 C                                       1.3870715
    98   6 C       99   6 C                                       1.3854769
    95   6 C      100   6 C                                       1.3918314
    99   6 C      100   6 C                                       1.3824202
    92   7 N      101   6 C                                       1.4063016
   101   6 C      102   6 C                                       1.3925516
   102   6 C      103   6 C                                       1.3816959
   103   6 C      104   6 C                                       1.3861017
   104   6 C      105   6 C                                       1.3872439
   101   6 C      106   6 C                                       1.3951993
   105   6 C      106   6 C                                       1.3789762
    96   6 C      107   1 H                                       1.0786525
    97   6 C      108   1 H                                       1.0792424
    98   6 C      109   1 H                                       1.0788029
    99   6 C      110   1 H                                       1.0785692
   100   6 C      111   1 H                                       1.0762912
   106   6 C      112   1 H                                       1.0783829
   105   6 C      113   1 H                                       1.0787806
   104   6 C      114   1 H                                       1.0788729
Note: The following floating-point exceptions are signalling: IEEE_UNDERFLOW_FLAG
normal termination of xtb
   103   6 C      115   1 H                                       1.0788231
   102   6 C      116   1 H                                       1.0762097

 * 5 distinct bonds (by element types)

   Z      Z             #   av. dist./Å        max./Å        min./Å
   1 H    6 C          42     1.0787426     1.0809289     1.0758480
   6 C    6 C          62     1.3932180     1.4215820     1.3553350
   6 C    7 N          12     1.3768149     1.4115126     1.3241105
   7 N    7 N           4     1.3248823     1.3298370     1.3194503
   6 C    8 O           2     1.2059815     1.2125475     1.1994155


optimized geometry written to: xtbopt.mol


           -------------------------------------------------
          | TOTAL ENERGY             -189.624535482356 Eh   |
          | GRADIENT NORM               0.000369045195 Eh/α |
          | HOMO-LUMO GAP               0.068953265663 eV   |
           -------------------------------------------------
########################################################################
[WARNING] Runtime exception occurred
-1- restart_readRestart: Number of electron missmatch in restart file.
########################################################################

------------------------------------------------------------------------
 * finished run on 2024/11/14 at 14:04:19.695     
------------------------------------------------------------------------
 total:
 * wall-time:     0 d,  0 h,  1 min, 15.645 sec
 *  cpu-time:     0 d,  0 h,  4 min, 30.751 sec
 * ratio c/w:     3.579 speedup
 SCF:
 * wall-time:     0 d,  0 h,  0 min,  1.861 sec
 *  cpu-time:     0 d,  0 h,  0 min,  7.353 sec
 * ratio c/w:     3.952 speedup
 ANC optimizer:
 * wall-time:     0 d,  0 h,  1 min, 13.764 sec
 *  cpu-time:     0 d,  0 h,  4 min, 23.362 sec
 * ratio c/w:     3.570 speedup

