      -----------------------------------------------------------      
     |                   =====================                   |     
     |                           x T B                           |     
     |                   =====================                   |     
     |                         S. Grimme                         |     
     |          Mulliken Center for Theoretical Chemistry        |     
     |                    University of Bonn                     |     
      -----------------------------------------------------------      

   * xtb version 6.6.1 (8d0f1dd) compiled by 'runner@Mac-1690902418499.local' on 2023-08-01

   xtb is free software: you can redistribute it and/or modify it under
   the terms of the GNU Lesser General Public License as published by
   the Free Software Foundation, either version 3 of the License, or
   (at your option) any later version.
   
   xtb is distributed in the hope that it will be useful,
   but WITHOUT ANY WARRANTY; without even the implied warranty of
   MERCHANTABILITY or FITNESS FOR A PARTICULAR PURPOSE.  See the
   GNU Lesser General Public License for more details.
   
   Cite this work as:
   * C. Bannwarth, E. Caldeweyher, S. Ehlert, A. Hansen, P. Pracht,
     J. Seibert, S. Spicher, S. Grimme, WIREs Comput. Mol. Sci., 2020, 11,
     e01493. DOI: 10.1002/wcms.1493
   
   for GFN2-xTB:
   * C. Bannwarth, S. Ehlert and S. Grimme., J. Chem. Theory Comput., 2019,
     15, 1652-1671. DOI: 10.1021/acs.jctc.8b01176
   for GFN1-xTB:
   * S. Grimme, C. Bannwarth, P. Shushkov, J. Chem. Theory Comput., 2017,
     13, 1989-2009. DOI: 10.1021/acs.jctc.7b00118
   for GFN0-xTB:
   * P. Pracht, E. Caldeweyher, S. Ehlert, S. Grimme, ChemRxiv, 2019, preprint.
     DOI: 10.26434/chemrxiv.8326202.v1
   for GFN-FF:
   * S. Spicher and S. Grimme, Angew. Chem. Int. Ed., 2020, 59, 15665-15673.
     DOI: 10.1002/anie.202004239
   
   for ALPB and GBSA implicit solvation:
   * S. Ehlert, M. Stahn, S. Spicher, S. Grimme, J. Chem. Theory Comput.,
     2021, 17, 4250-4261. DOI: 10.1021/acs.jctc.1c00471
   
   for DFT-D4:
   * E. Caldeweyher, C. Bannwarth and S. Grimme, J. Chem. Phys., 2017,
     147, 034112. DOI: 10.1063/1.4993215
   * E. Caldeweyher, S. Ehlert, A. Hansen, H. Neugebauer, S. Spicher,
     C. Bannwarth and S. Grimme, J. Chem. Phys., 2019, 150, 154122.
     DOI: 10.1063/1.5090222
   * E. Caldeweyher, J.-M. Mewes, S. Ehlert and S. Grimme, Phys. Chem. Chem. Phys.
     2020, 22, 8499-8512. DOI: 10.1039/D0CP00502A
   
   for sTDA-xTB:
   * S. Grimme and C. Bannwarth, J. Chem. Phys., 2016, 145, 054103.
     DOI: 10.1063/1.4959605
   
   in the mass-spec context:
   * V. Asgeirsson, C. Bauer and S. Grimme, Chem. Sci., 2017, 8, 4879.
     DOI: 10.1039/c7sc00601b
   * J. Koopman and S. Grimme, ACS Omega 2019, 4, 12, 15120-15133.
     DOI: 10.1021/acsomega.9b02011
   
   for metadynamics refer to:
   * S. Grimme, J. Chem. Theory Comput., 2019, 155, 2847-2862
     DOI: 10.1021/acs.jctc.9b00143
   
   for SPH calculations refer to:
   * S. Spicher and S. Grimme, J. Chem. Theory Comput., 2021, 17, 1701-1714
     DOI: 10.1021/acs.jctc.0c01306
   
   with help from (in alphabetical order)
   P. Atkinson, C. Bannwarth, F. Bohle, G. Brandenburg, E. Caldeweyher
   M. Checinski, S. Dohm, S. Ehlert, S. Ehrlich, I. Gerasimov, C. Hölzer
   A. Katbashev, J. Koopman, C. Lavigne, S. Lehtola, F. März, M. Müller,
   F. Musil, H. Neugebauer, J. Pisarek, C. Plett, P. Pracht, F. Pultar,
   J. Seibert, P. Shushkov, S. Spicher, M. Stahn, M. Steiner, T. Strunk,
   J. Stückrath, T. Rose, and J. Unsleber
   
 * started run on 2024/11/14 at 13:59:55.500     

           -------------------------------------------------
          |                Calculation Setup                |
           -------------------------------------------------

          program call               : xtb opt_cation_Verdazyl1.mol --gfn2 --sp --chrg 0 --uhf 1
          coordinate file            : opt_cation_Verdazyl1.mol
          omp threads                :                     8

   ID    Z sym.   atoms
    1    6 C      1-18, 27, 33, 37-48
    2    1 H      19-26, 28-30, 49-58
    3    7 N      31, 32, 34, 35
    4    8 O      36
########################################################################
[WARNING] Please study the warnings concerning your input carefully
-1- prog_main: Charge in sdf/mol input was overwritten
########################################################################

           -------------------------------------------------
          |                 G F N 2 - x T B                 |
           -------------------------------------------------

        Reference                      10.1021/acs.jctc.8b01176
      * Hamiltonian:
        H0-scaling (s, p, d)           1.850000    2.230000    2.230000
        zeta-weighting                 0.500000
      * Dispersion:
        s8                             2.700000
        a1                             0.520000
        a2                             5.000000
        s9                             5.000000
      * Repulsion:
        kExp                           1.500000    1.000000
        rExp                           1.000000
      * Coulomb:
        alpha                          2.000000
        third order                    shell-resolved
        anisotropic                    true
        a3                             3.000000
        a5                             4.000000
        cn-shift                       1.200000
        cn-exp                         4.000000
        max-rad                        5.000000

q/qsh data taken from xtbrestart
CAMM data taken from xtbrestart

          ...................................................
          :                      SETUP                      :
          :.................................................:
          :  # basis functions                 169          :
          :  # atomic orbitals                 169          :
          :  # shells                           95          :
          :  # electrons                       175          :
          :  max. iterations                   250          :
          :  Hamiltonian                  GFN2-xTB          :
          :  restarted?                       true          :
          :  GBSA solvation                  false          :
          :  PC potential                    false          :
          :  electronic temp.          300.0000000     K    :
          :  accuracy                    1.0000000          :
          :  -> integral cutoff          0.2500000E+02      :
          :  -> integral neglect         0.1000000E-07      :
          :  -> SCF convergence          0.1000000E-05 Eh   :
          :  -> wf. convergence          0.1000000E-03 e    :
          :  Broyden damping             0.4000000          :
          ...................................................

 iter      E             dE          RMSdq      gap      omega  full diag
   1    -96.6013406 -0.966013E+02  0.691E-01    1.98       0.0  T
   2    -96.6306225 -0.292819E-01  0.453E-01    1.16       1.0  T
   3    -96.6376520 -0.702950E-02  0.229E-01    1.36       1.0  T
   4    -96.6377259 -0.739468E-04  0.177E-01    1.35       1.0  T
   5    -96.6381840 -0.458080E-03  0.568E-02    1.36       1.0  T
   6    -96.6382174 -0.333910E-04  0.204E-02    1.35       1.0  T
   7    -96.6382401 -0.227282E-04  0.635E-03    1.35       2.1  T
   8    -96.6382418 -0.163730E-05  0.291E-03    1.36       4.5  T
   9    -96.6382419 -0.129651E-06  0.150E-03    1.36       8.7  T
  10    -96.6382420 -0.522057E-07  0.520E-04    1.36      25.3  T
  11    -96.6382420 -0.129643E-07  0.206E-04    1.36      63.8  T

   *** convergence criteria satisfied after 11 iterations ***

         #    Occupation            Energy/Eh            Energy/eV
      -------------------------------------------------------------
         1        2.0000           -0.7320596             -19.9204
       ...           ...                  ...                  ...
        82        2.0000           -0.4085515             -11.1173
        83        2.0000           -0.4050329             -11.0215
        84        2.0000           -0.3941916             -10.7265
        85        2.0000           -0.3781334             -10.2895
        86        2.0000           -0.3711249             -10.0988
        87        2.0000           -0.3695401             -10.0557
        88        1.0000           -0.3254964              -8.8572 (HOMO)
        89                         -0.2756325              -7.5003 (LUMO)
        90                         -0.2660361              -7.2392
        91                         -0.2497802              -6.7969
        92                         -0.2363024              -6.4301
        93                         -0.2299658              -6.2577
       ...                                ...                  ...
       169                          0.7131298              19.4053
      -------------------------------------------------------------
                  HL-Gap            0.0498639 Eh            1.3569 eV
             Fermi-level           -0.3240004 Eh           -8.8165 eV

 SCC (total)                   0 d,  0 h,  0 min,  0.246 sec
 SCC setup                      ...        0 min,  0.000 sec (  0.058%)
 Dispersion                     ...        0 min,  0.000 sec (  0.162%)
 classical contributions        ...        0 min,  0.000 sec (  0.038%)
 integral evaluation            ...        0 min,  0.002 sec (  0.824%)
 iterations                     ...        0 min,  0.234 sec ( 94.965%)
 molecular gradient             ...        0 min,  0.008 sec (  3.452%)
 printout                       ...        0 min,  0.001 sec (  0.499%)

         :::::::::::::::::::::::::::::::::::::::::::::::::::::
         ::                     SUMMARY                     ::
         :::::::::::::::::::::::::::::::::::::::::::::::::::::
         :: total energy             -94.974020561706 Eh    ::
         :: gradient norm              0.077724443575 Eh/a0 ::
         :: HOMO-LUMO gap              1.356864806580 eV    ::
         ::.................................................::
         :: SCC energy               -96.638241969135 Eh    ::
         :: -> isotropic ES            0.049294766530 Eh    ::
         :: -> anisotropic ES          0.005162536932 Eh    ::
         :: -> anisotropic XC          0.059406535415 Eh    ::
         :: -> dispersion             -0.078947227544 Eh    ::
         :: repulsion energy           1.664790541514 Eh    ::
         :: add. restraining           0.000000000000 Eh    ::
         :: total charge              -0.000027561897 e     ::
         :::::::::::::::::::::::::::::::::::::::::::::::::::::

           -------------------------------------------------
          |                Property Printout                |
           -------------------------------------------------

    * Orbital Energies and Occupations

         #    Occupation            Energy/Eh            Energy/eV
      -------------------------------------------------------------
         1        2.0000           -0.7320596             -19.9204
       ...           ...                  ...                  ...
        76        2.0000           -0.4230411             -11.5115
        77        2.0000           -0.4145016             -11.2792
        78        2.0000           -0.4127428             -11.2313
        79        2.0000           -0.4125569             -11.2262
        80        2.0000           -0.4116438             -11.2014
        81        2.0000           -0.4108819             -11.1807
        82        2.0000           -0.4085515             -11.1173
        83        2.0000           -0.4050329             -11.0215
        84        2.0000           -0.3941916             -10.7265
        85        2.0000           -0.3781334             -10.2895
        86        2.0000           -0.3711249             -10.0988
        87        2.0000           -0.3695401             -10.0557
        88        1.0000           -0.3254964              -8.8572 (HOMO)
        89                         -0.2756325              -7.5003 (LUMO)
        90                         -0.2660361              -7.2392
        91                         -0.2497802              -6.7969
        92                         -0.2363024              -6.4301
        93                         -0.2299658              -6.2577
        94                         -0.2293136              -6.2399
        95                         -0.2265125              -6.1637
        96                         -0.2218513              -6.0369
        97                         -0.2060736              -5.6075
        98                         -0.1838320              -5.0023
        99                         -0.1786338              -4.8609
       ...                                ...                  ...
       169                          0.7131298              19.4053
      -------------------------------------------------------------
                  HL-Gap            0.0498639 Eh            1.3569 eV
             Fermi-level           -0.3240004 Eh           -8.8165 eV

     #   Z          covCN         q      C6AA      α(0)
     1   6 C        2.979     0.001    27.989     8.678
     2   6 C        2.980     0.010    27.777     8.645
     3   6 C        2.980     0.010    27.799     8.649
     4   6 C        2.985     0.011    27.768     8.644
     5   6 C        2.987     0.013    27.718     8.636
     6   6 C        2.987     0.012    27.732     8.638
     7   6 C        2.917    -0.035    28.881     8.813
     8   6 C        2.916    -0.037    28.916     8.818
     9   6 C        2.914    -0.037    28.918     8.818
    10   6 C        2.915    -0.037    28.920     8.819
    11   6 C        2.925    -0.037    28.926     8.820
    12   6 C        2.918    -0.036    28.889     8.814
    13   6 C        2.920    -0.035    28.881     8.813
    14   6 C        2.922    -0.036    28.893     8.815
    15   6 C        2.982    -0.000    28.031     8.685
    16   6 C        2.916    -0.031    28.779     8.797
    17   6 C        2.917    -0.032    28.788     8.798
    18   6 C        2.915    -0.030    28.756     8.793
    19   1 H        0.926     0.033     2.539     2.492
    20   1 H        0.926     0.032     2.555     2.500
    21   1 H        0.926     0.033     2.539     2.492
    22   1 H        0.926     0.032     2.557     2.501
    23   1 H        0.926     0.062     2.175     2.307
    24   1 H        0.926     0.040     2.450     2.448
    25   1 H        0.926     0.036     2.502     2.473
    26   1 H        0.926     0.031     2.569     2.506
    27   6 C        2.883     0.154    24.662     8.141
    28   1 H        0.926     0.029     2.593     2.518
    29   1 H        0.926     0.050     2.318     2.381
    30   1 H        0.926     0.030     2.592     2.517
    31   7 N        1.937    -0.244    27.210     7.735
    32   7 N        2.848     0.043    20.496     6.724
    33   6 C        2.704     0.297    21.951     7.669
    34   7 N        2.850     0.042    20.509     6.726
    35   7 N        1.934    -0.242    27.160     7.728
    36   8 O        0.858    -0.421    22.102     6.303
    37   6 C        2.935     0.061    26.635     8.464
    38   6 C        2.922    -0.036    28.902     8.816
    39   6 C        2.919    -0.027    28.670     8.780
    40   6 C        2.919    -0.031    28.780     8.797
    41   6 C        2.920    -0.026    28.664     8.780
    42   6 C        2.917    -0.037    28.931     8.820
    43   6 C        2.936     0.062    26.616     8.461
    44   6 C        2.917    -0.036    28.885     8.813
    45   6 C        2.920    -0.026    28.654     8.778
    46   6 C        2.919    -0.031    28.771     8.796
    47   6 C        2.919    -0.027    28.672     8.781
    48   6 C        2.922    -0.035    28.871     8.811
    49   1 H        0.926     0.059     2.213     2.326
    50   1 H        0.926     0.040     2.455     2.450
    51   1 H        0.926     0.038     2.476     2.461
    52   1 H        0.926     0.042     2.426     2.436
    53   1 H        0.926     0.062     2.171     2.304
    54   1 H        0.926     0.057     2.236     2.338
    55   1 H        0.926     0.041     2.441     2.443
    56   1 H        0.926     0.039     2.467     2.456
    57   1 H        0.926     0.042     2.420     2.433
    58   1 H        0.926     0.060     2.205     2.322

 Mol. C6AA /au·bohr⁶  :      51227.264722
 Mol. C8AA /au·bohr⁸  :    1294631.930207
 Mol. α(0) /au        :        364.520999


Wiberg/Mayer (AO) data.
largest (>0.10) Wiberg bond orders for each atom

 ---------------------------------------------------------------------------
     #   Z sym  total        # sym  WBO       # sym  WBO       # sym  WBO
 ---------------------------------------------------------------------------
     1   6 C    3.984 --     4 C    1.330     3 C    1.199     2 C    1.193
     2   6 C    3.988 --    11 C    1.335     5 C    1.257     1 C    1.193
     3   6 C    3.989 --    12 C    1.314     6 C    1.265     1 C    1.199
     4   6 C    3.990 --     1 C    1.330     8 C    1.235     7 C    1.232
     5   6 C    3.980 --    13 C    1.300     2 C    1.257     9 C    1.235
     6   6 C    3.985 --    14 C    1.310     3 C    1.265    10 C    1.230
     7   6 C    3.977 --     9 C    1.611     4 C    1.232    19 H    0.967
     8   6 C    3.987 --    10 C    1.614     4 C    1.235    20 H    0.967
     9   6 C    3.982 --     7 C    1.611     5 C    1.235    21 H    0.967
    10   6 C    3.983 --     8 C    1.614     6 C    1.230    22 H    0.968
    11   6 C    3.981 --    15 C    1.442     2 C    1.335    23 H    0.956
                            13 C    0.102
    12   6 C    3.990 --    16 C    1.516     3 C    1.314    24 H    0.962
                            14 C    0.114
    13   6 C    3.985 --    17 C    1.542     5 C    1.300    25 H    0.967
                            11 C    0.102
    14   6 C    3.986 --    18 C    1.520     6 C    1.310    26 H    0.968
                            12 C    0.114
    15   6 C    3.980 --    11 C    1.442    17 C    1.298    27 C    1.061
    16   6 C    3.987 --    12 C    1.516    18 C    1.354    28 H    0.970
    17   6 C    3.975 --    13 C    1.542    15 C    1.298    29 H    0.966
    18   6 C    3.981 --    14 C    1.520    16 C    1.354    30 H    0.971
    19   1 H    0.998 --     7 C    0.967
    20   1 H    0.998 --     8 C    0.967
    21   1 H    0.997 --     9 C    0.967
    22   1 H    0.998 --    10 C    0.968
    23   1 H    0.996 --    11 C    0.956
    24   1 H    0.998 --    12 C    0.962
    25   1 H    0.998 --    13 C    0.967
    26   1 H    0.998 --    14 C    0.968
    27   6 C    3.965 --    35 N    1.365    31 N    1.364    15 C    1.061
    28   1 H    0.999 --    16 C    0.970
    29   1 H    0.997 --    17 C    0.966
    30   1 H    0.998 --    18 C    0.971
    31   7 N    2.923 --    27 C    1.364    32 N    1.194    35 N    0.123
    32   7 N    3.628 --    31 N    1.194    33 C    1.069    37 C    1.037
                            36 O    0.123
    33   6 C    3.958 --    36 O    1.667    34 N    1.070    32 N    1.069
    34   7 N    3.626 --    35 N    1.193    33 C    1.070    43 C    1.034
                            36 O    0.124
    35   7 N    2.920 --    27 C    1.365    34 N    1.193    31 N    0.123
    36   8 O    2.026 --    33 C    1.667    34 N    0.124    32 N    0.123
    37   6 C    3.952 --    42 C    1.370    38 C    1.357    32 N    1.037
    38   6 C    3.984 --    39 C    1.466    37 C    1.357    49 H    0.963
                            41 C    0.105
    39   6 C    3.991 --    38 C    1.466    40 C    1.422    50 H    0.970
                            42 C    0.104
    40   6 C    3.974 --    41 C    1.433    39 C    1.422    51 H    0.971
    41   6 C    3.990 --    42 C    1.452    40 C    1.433    52 H    0.970
                            38 C    0.105
    42   6 C    3.984 --    41 C    1.452    37 C    1.370    53 H    0.964
                            39 C    0.104
    43   6 C    3.952 --    44 C    1.371    48 C    1.361    34 N    1.034
    44   6 C    3.984 --    45 C    1.453    43 C    1.371    58 H    0.965
                            47 C    0.105
    45   6 C    3.990 --    44 C    1.453    46 C    1.432    57 H    0.970
                            48 C    0.105
Note: The following floating-point exceptions are signalling: IEEE_UNDERFLOW_FLAG
normal termination of xtb
    46   6 C    3.975 --    45 C    1.432    47 C    1.423    56 H    0.971
    47   6 C    3.991 --    48 C    1.464    46 C    1.423    55 H    0.970
                            44 C    0.105
    48   6 C    3.984 --    47 C    1.464    43 C    1.361    54 H    0.964
                            45 C    0.105
    49   1 H    0.996 --    38 C    0.963
    50   1 H    0.998 --    39 C    0.970
    51   1 H    0.998 --    40 C    0.971
    52   1 H    0.998 --    41 C    0.970
    53   1 H    0.996 --    42 C    0.964
    54   1 H    0.997 --    48 C    0.964
    55   1 H    0.998 --    47 C    0.970
    56   1 H    0.998 --    46 C    0.971
    57   1 H    0.998 --    45 C    0.970
    58   1 H    0.996 --    44 C    0.965
 ---------------------------------------------------------------------------

Topologies differ in bond orders
Writing corrected topology to xtbtopo.mol

molecular dipole:
                 x           y           z       tot (Debye)
 q only:        0.563       0.466      -0.184
   full:        0.469       0.401      -0.184       1.635
molecular quadrupole (traceless):
                xx          xy          yy          xz          yz          zz
 q only:       -0.402      -8.995       9.835       3.330       1.284      -9.434
  q+dip:        4.323      -8.972      15.043       4.413       0.493     -19.366
   full:       -0.627      -7.773       9.002       3.694       1.486      -8.376


           -------------------------------------------------
          | TOTAL ENERGY              -94.974020561706 Eh   |
          | GRADIENT NORM               0.077724443575 Eh/α |
          | HOMO-LUMO GAP               1.356864806580 eV   |
           -------------------------------------------------
########################################################################
[WARNING] Runtime exception occurred
-2- restart_readRestart: Multiplicity missmatch in restart file.
-1- restart_readRestart: Number of electron missmatch in restart file.
########################################################################

------------------------------------------------------------------------
 * finished run on 2024/11/14 at 13:59:55.754     
------------------------------------------------------------------------
 total:
 * wall-time:     0 d,  0 h,  0 min,  0.253 sec
 *  cpu-time:     0 d,  0 h,  0 min,  0.790 sec
 * ratio c/w:     3.116 speedup
 SCF:
 * wall-time:     0 d,  0 h,  0 min,  0.246 sec
 *  cpu-time:     0 d,  0 h,  0 min,  0.778 sec
 * ratio c/w:     3.160 speedup

