      -----------------------------------------------------------      
     |                   =====================                   |     
     |                           x T B                           |     
     |                   =====================                   |     
     |                         S. Grimme                         |     
     |          Mulliken Center for Theoretical Chemistry        |     
     |                    University of Bonn                     |     
      -----------------------------------------------------------      

   * xtb version 6.6.1 (8d0f1dd) compiled by 'runner@Mac-1690902418499.local' on 2023-08-01

   xtb is free software: you can redistribute it and/or modify it under
   the terms of the GNU Lesser General Public License as published by
   the Free Software Foundation, either version 3 of the License, or
   (at your option) any later version.
   
   xtb is distributed in the hope that it will be useful,
   but WITHOUT ANY WARRANTY; without even the implied warranty of
   MERCHANTABILITY or FITNESS FOR A PARTICULAR PURPOSE.  See the
   GNU Lesser General Public License for more details.
   
   Cite this work as:
   * C. Bannwarth, E. Caldeweyher, S. Ehlert, A. Hansen, P. Pracht,
     J. Seibert, S. Spicher, S. Grimme, WIREs Comput. Mol. Sci., 2020, 11,
     e01493. DOI: 10.1002/wcms.1493
   
   for GFN2-xTB:
   * C. Bannwarth, S. Ehlert and S. Grimme., J. Chem. Theory Comput., 2019,
     15, 1652-1671. DOI: 10.1021/acs.jctc.8b01176
   for GFN1-xTB:
   * S. Grimme, C. Bannwarth, P. Shushkov, J. Chem. Theory Comput., 2017,
     13, 1989-2009. DOI: 10.1021/acs.jctc.7b00118
   for GFN0-xTB:
   * P. Pracht, E. Caldeweyher, S. Ehlert, S. Grimme, ChemRxiv, 2019, preprint.
     DOI: 10.26434/chemrxiv.8326202.v1
   for GFN-FF:
   * S. Spicher and S. Grimme, Angew. Chem. Int. Ed., 2020, 59, 15665-15673.
     DOI: 10.1002/anie.202004239
   
   for ALPB and GBSA implicit solvation:
   * S. Ehlert, M. Stahn, S. Spicher, S. Grimme, J. Chem. Theory Comput.,
     2021, 17, 4250-4261. DOI: 10.1021/acs.jctc.1c00471
   
   for DFT-D4:
   * E. Caldeweyher, C. Bannwarth and S. Grimme, J. Chem. Phys., 2017,
     147, 034112. DOI: 10.1063/1.4993215
   * E. Caldeweyher, S. Ehlert, A. Hansen, H. Neugebauer, S. Spicher,
     C. Bannwarth and S. Grimme, J. Chem. Phys., 2019, 150, 154122.
     DOI: 10.1063/1.5090222
   * E. Caldeweyher, J.-M. Mewes, S. Ehlert and S. Grimme, Phys. Chem. Chem. Phys.
     2020, 22, 8499-8512. DOI: 10.1039/D0CP00502A
   
   for sTDA-xTB:
   * S. Grimme and C. Bannwarth, J. Chem. Phys., 2016, 145, 054103.
     DOI: 10.1063/1.4959605
   
   in the mass-spec context:
   * V. Asgeirsson, C. Bauer and S. Grimme, Chem. Sci., 2017, 8, 4879.
     DOI: 10.1039/c7sc00601b
   * J. Koopman and S. Grimme, ACS Omega 2019, 4, 12, 15120-15133.
     DOI: 10.1021/acsomega.9b02011
   
   for metadynamics refer to:
   * S. Grimme, J. Chem. Theory Comput., 2019, 155, 2847-2862
     DOI: 10.1021/acs.jctc.9b00143
   
   for SPH calculations refer to:
   * S. Spicher and S. Grimme, J. Chem. Theory Comput., 2021, 17, 1701-1714
     DOI: 10.1021/acs.jctc.0c01306
   
   with help from (in alphabetical order)
   P. Atkinson, C. Bannwarth, F. Bohle, G. Brandenburg, E. Caldeweyher
   M. Checinski, S. Dohm, S. Ehlert, S. Ehrlich, I. Gerasimov, C. Hölzer
   A. Katbashev, J. Koopman, C. Lavigne, S. Lehtola, F. März, M. Müller,
   F. Musil, H. Neugebauer, J. Pisarek, C. Plett, P. Pracht, F. Pultar,
   J. Seibert, P. Shushkov, S. Spicher, M. Stahn, M. Steiner, T. Strunk,
   J. Stückrath, T. Rose, and J. Unsleber
   
 * started run on 2024/11/14 at 13:59:52.297     

           -------------------------------------------------
          |                Calculation Setup                |
           -------------------------------------------------

          program call               : xtb opt_radical_Verdazyl1.mol --gfn2 --sp --chrg 0 --uhf 1
          coordinate file            : opt_radical_Verdazyl1.mol
          omp threads                :                     8

   ID    Z sym.   atoms
    1    6 C      1-18, 27, 33, 37-48
    2    1 H      19-26, 28-30, 49-58
    3    7 N      31, 32, 34, 35
    4    8 O      36

           -------------------------------------------------
          |                 G F N 2 - x T B                 |
           -------------------------------------------------

        Reference                      10.1021/acs.jctc.8b01176
      * Hamiltonian:
        H0-scaling (s, p, d)           1.850000    2.230000    2.230000
        zeta-weighting                 0.500000
      * Dispersion:
        s8                             2.700000
        a1                             0.520000
        a2                             5.000000
        s9                             5.000000
      * Repulsion:
        kExp                           1.500000    1.000000
        rExp                           1.000000
      * Coulomb:
        alpha                          2.000000
        third order                    shell-resolved
        anisotropic                    true
        a3                             3.000000
        a5                             4.000000
        cn-shift                       1.200000
        cn-exp                         4.000000
        max-rad                        5.000000

q/qsh data taken from xtbrestart
CAMM data taken from xtbrestart

          ...................................................
          :                      SETUP                      :
          :.................................................:
          :  # basis functions                 169          :
          :  # atomic orbitals                 169          :
          :  # shells                           95          :
          :  # electrons                       175          :
          :  max. iterations                   250          :
          :  Hamiltonian                  GFN2-xTB          :
          :  restarted?                       true          :
          :  GBSA solvation                  false          :
          :  PC potential                    false          :
          :  electronic temp.          300.0000000     K    :
          :  accuracy                    1.0000000          :
          :  -> integral cutoff          0.2500000E+02      :
          :  -> integral neglect         0.1000000E-07      :
          :  -> SCF convergence          0.1000000E-05 Eh   :
          :  -> wf. convergence          0.1000000E-03 e    :
          :  Broyden damping             0.4000000          :
          ...................................................

 iter      E             dE          RMSdq      gap      omega  full diag
   1    -96.4275757 -0.964276E+02  0.135E+00    2.14       0.0  T
   2    -96.2131427  0.214433E+00  0.196E+00    0.38       1.0  T
   3    -96.6400295 -0.426887E+00  0.325E-01    1.33       1.0  T
   4    -96.6413889 -0.135939E-02  0.226E-01    1.41       1.0  T
   5    -96.6418842 -0.495332E-03  0.142E-01    1.51       1.0  T
   6    -96.6420960 -0.211796E-03  0.539E-02    1.56       1.0  T
   7    -96.6421912 -0.951517E-04  0.256E-02    1.58       1.0  T
   8    -96.6422194 -0.282516E-04  0.131E-02    1.60       1.0  T
   9    -96.6422233 -0.385670E-05  0.743E-03    1.61       1.8  T
  10    -96.6422249 -0.166754E-05  0.355E-03    1.61       3.7  T
  11    -96.6422253 -0.369990E-06  0.101E-03    1.62      13.0  T
  12    -96.6422253 -0.149721E-07  0.608E-04    1.62      21.6  T
  13    -96.6422253 -0.123904E-07  0.204E-04    1.62      64.3  T

   *** convergence criteria satisfied after 13 iterations ***

         #    Occupation            Energy/Eh            Energy/eV
      -------------------------------------------------------------
         1        2.0000           -0.7294335             -19.8489
       ...           ...                  ...                  ...
        82        2.0000           -0.4084457             -11.1144
        83        2.0000           -0.4053429             -11.0299
        84        2.0000           -0.3953058             -10.7568
        85        2.0000           -0.3792822             -10.3208
        86        2.0000           -0.3752756             -10.2118
        87        2.0000           -0.3719348             -10.1209
        88        1.0000           -0.3342381              -9.0951 (HOMO)
        89                         -0.2746774              -7.4744 (LUMO)
        90                         -0.2652146              -7.2169
        91                         -0.2496717              -6.7939
        92                         -0.2357574              -6.4153
        93                         -0.2304805              -6.2717
       ...                                ...                  ...
       169                          0.7129986              19.4017
      -------------------------------------------------------------
                  HL-Gap            0.0595607 Eh            1.6207 eV
             Fermi-level           -0.3287650 Eh           -8.9462 eV

 SCC (total)                   0 d,  0 h,  0 min,  0.272 sec
 SCC setup                      ...        0 min,  0.001 sec (  0.201%)
 Dispersion                     ...        0 min,  0.001 sec (  0.283%)
 classical contributions        ...        0 min,  0.000 sec (  0.099%)
 integral evaluation            ...        0 min,  0.003 sec (  1.003%)
 iterations                     ...        0 min,  0.257 sec ( 94.477%)
 molecular gradient             ...        0 min,  0.009 sec (  3.448%)
 printout                       ...        0 min,  0.001 sec (  0.485%)

         :::::::::::::::::::::::::::::::::::::::::::::::::::::
         ::                     SUMMARY                     ::
         :::::::::::::::::::::::::::::::::::::::::::::::::::::
         :: total energy             -94.977280265906 Eh    ::
         :: gradient norm              0.000637697262 Eh/a0 ::
         :: HOMO-LUMO gap              1.620729216941 eV    ::
         ::.................................................::
         :: SCC energy               -96.642225338684 Eh    ::
         :: -> isotropic ES            0.051699113899 Eh    ::
         :: -> anisotropic ES          0.004104246226 Eh    ::
         :: -> anisotropic XC          0.058783576877 Eh    ::
         :: -> dispersion             -0.079037124158 Eh    ::
         :: repulsion energy           1.665532107299 Eh    ::
         :: add. restraining           0.000000000000 Eh    ::
         :: total charge              -0.000008516083 e     ::
         :::::::::::::::::::::::::::::::::::::::::::::::::::::

           -------------------------------------------------
          |                Property Printout                |
           -------------------------------------------------

    * Orbital Energies and Occupations

         #    Occupation            Energy/Eh            Energy/eV
      -------------------------------------------------------------
         1        2.0000           -0.7294335             -19.8489
       ...           ...                  ...                  ...
        76        2.0000           -0.4233839             -11.5209
        77        2.0000           -0.4146041             -11.2820
        78        2.0000           -0.4134609             -11.2508
        79        2.0000           -0.4128657             -11.2346
        80        2.0000           -0.4119244             -11.2090
        81        2.0000           -0.4110043             -11.1840
        82        2.0000           -0.4084457             -11.1144
        83        2.0000           -0.4053429             -11.0299
        84        2.0000           -0.3953058             -10.7568
        85        2.0000           -0.3792822             -10.3208
        86        2.0000           -0.3752756             -10.2118
        87        2.0000           -0.3719348             -10.1209
        88        1.0000           -0.3342381              -9.0951 (HOMO)
        89                         -0.2746774              -7.4744 (LUMO)
        90                         -0.2652146              -7.2169
        91                         -0.2496717              -6.7939
        92                         -0.2357574              -6.4153
        93                         -0.2304805              -6.2717
        94                         -0.2298421              -6.2543
        95                         -0.2262660              -6.1570
        96                         -0.2222398              -6.0475
        97                         -0.2053927              -5.5890
        98                         -0.1840065              -5.0071
        99                         -0.1786761              -4.8620
       ...                                ...                  ...
       169                          0.7129986              19.4017
      -------------------------------------------------------------
                  HL-Gap            0.0595607 Eh            1.6207 eV
             Fermi-level           -0.3287650 Eh           -8.9462 eV

     #   Z          covCN         q      C6AA      α(0)
     1   6 C        2.979     0.002    27.979     8.677
     2   6 C        2.981     0.010    27.781     8.646
     3   6 C        2.981     0.009    27.808     8.650
     4   6 C        2.986     0.011    27.765     8.643
     5   6 C        2.988     0.013    27.711     8.635
     6   6 C        2.989     0.012    27.736     8.639
     7   6 C        2.917    -0.035    28.876     8.812
     8   6 C        2.917    -0.037    28.914     8.818
     9   6 C        2.915    -0.037    28.910     8.817
    10   6 C        2.915    -0.036    28.907     8.817
    11   6 C        2.927    -0.037    28.921     8.819
    12   6 C        2.919    -0.036    28.891     8.814
    13   6 C        2.921    -0.035    28.875     8.812
    14   6 C        2.922    -0.035    28.880     8.813
    15   6 C        2.985    -0.001    28.050     8.688
    16   6 C        2.917    -0.031    28.779     8.797
    17   6 C        2.918    -0.031    28.775     8.797
    18   6 C        2.916    -0.030    28.752     8.793
    19   1 H        0.926     0.033     2.539     2.492
    20   1 H        0.926     0.032     2.558     2.501
    21   1 H        0.926     0.033     2.542     2.493
    22   1 H        0.926     0.032     2.559     2.502
    23   1 H        0.926     0.063     2.169     2.303
    24   1 H        0.926     0.041     2.442     2.444
    25   1 H        0.926     0.036     2.500     2.473
    26   1 H        0.926     0.031     2.572     2.508
    27   6 C        2.874     0.162    24.498     8.114
    28   1 H        0.926     0.030     2.593     2.518
    29   1 H        0.926     0.050     2.322     2.383
    30   1 H        0.926     0.029     2.596     2.520
    31   7 N        1.930    -0.248    27.302     7.748
    32   7 N        2.845     0.033    20.667     6.752
    33   6 C        2.702     0.304    21.833     7.648
    34   7 N        2.848     0.031    20.702     6.758
    35   7 N        1.926    -0.245    27.226     7.737
    36   8 O        0.858    -0.435    22.402     6.346
    37   6 C        2.929     0.066    26.532     8.447
    38   6 C        2.924    -0.037    28.910     8.817
    39   6 C        2.920    -0.026    28.662     8.779
    40   6 C        2.919    -0.030    28.749     8.793
    41   6 C        2.921    -0.026    28.657     8.779
    42   6 C        2.919    -0.038    28.938     8.821
    43   6 C        2.930     0.067    26.506     8.443
    44   6 C        2.919    -0.035    28.873     8.812
    45   6 C        2.921    -0.026    28.645     8.777
    46   6 C        2.919    -0.030    28.739     8.791
    47   6 C        2.920    -0.026    28.663     8.780
    48   6 C        2.924    -0.035    28.867     8.811
    49   1 H        0.926     0.061     2.184     2.311
    50   1 H        0.926     0.040     2.453     2.449
    51   1 H        0.926     0.038     2.469     2.457
    52   1 H        0.926     0.042     2.423     2.434
    53   1 H        0.926     0.065     2.138     2.286
    54   1 H        0.926     0.059     2.214     2.327
    55   1 H        0.926     0.041     2.438     2.442
    56   1 H        0.926     0.039     2.459     2.452
    57   1 H        0.926     0.042     2.416     2.431
    58   1 H        0.926     0.061     2.184     2.311

 Mol. C6AA /au·bohr⁶  :      51217.923655
 Mol. C8AA /au·bohr⁸  :    1294419.942413
 Mol. α(0) /au        :        364.472920


Wiberg/Mayer (AO) data.
largest (>0.10) Wiberg bond orders for each atom

 ---------------------------------------------------------------------------
     #   Z sym  total        # sym  WBO       # sym  WBO       # sym  WBO
 ---------------------------------------------------------------------------
     1   6 C    3.985 --     4 C    1.337     3 C    1.196     2 C    1.191
     2   6 C    3.988 --    11 C    1.330     5 C    1.261     1 C    1.191
     3   6 C    3.989 --    12 C    1.311     6 C    1.270     1 C    1.196
     4   6 C    3.990 --     1 C    1.337     7 C    1.231     8 C    1.229
     5   6 C    3.981 --    13 C    1.297     2 C    1.261     9 C    1.234
     6   6 C    3.985 --    14 C    1.306     3 C    1.270    10 C    1.227
     7   6 C    3.978 --     9 C    1.613     4 C    1.231    19 H    0.967
     8   6 C    3.987 --    10 C    1.620     4 C    1.229    20 H    0.967
     9   6 C    3.983 --     7 C    1.613     5 C    1.234    21 H    0.967
    10   6 C    3.984 --     8 C    1.620     6 C    1.227    22 H    0.967
    11   6 C    3.982 --    15 C    1.452     2 C    1.330    23 H    0.955
                            13 C    0.103
    12   6 C    3.991 --    16 C    1.522     3 C    1.311    24 H    0.961
                            14 C    0.112
    13   6 C    3.985 --    17 C    1.544     5 C    1.297    25 H    0.967
                            11 C    0.103
    14   6 C    3.986 --    18 C    1.527     6 C    1.306    26 H    0.968
                            12 C    0.112
    15   6 C    3.980 --    11 C    1.452    17 C    1.299    27 C    1.045
    16   6 C    3.987 --    12 C    1.522    18 C    1.347    28 H    0.970
    17   6 C    3.976 --    13 C    1.544    15 C    1.299    29 H    0.966
    18   6 C    3.981 --    14 C    1.527    16 C    1.347    30 H    0.971
    19   1 H    0.998 --     7 C    0.967
    20   1 H    0.998 --     8 C    0.967
    21   1 H    0.997 --     9 C    0.967
    22   1 H    0.998 --    10 C    0.967
    23   1 H    0.996 --    11 C    0.955
    24   1 H    0.998 --    12 C    0.961
    25   1 H    0.998 --    13 C    0.967
    26   1 H    0.999 --    14 C    0.968
    27   6 C    3.966 --    35 N    1.387    31 N    1.381    15 C    1.045
    28   1 H    0.999 --    16 C    0.970
    29   1 H    0.997 --    17 C    0.966
    30   1 H    0.998 --    18 C    0.971
    31   7 N    2.906 --    27 C    1.381    32 N    1.159    35 N    0.125
    32   7 N    3.623 --    31 N    1.159    33 C    1.090    37 C    1.045
                            36 O    0.123
    33   6 C    3.960 --    36 O    1.642    34 N    1.091    32 N    1.090
    34   7 N    3.618 --    35 N    1.157    33 C    1.091    43 C    1.040
                            36 O    0.125
    35   7 N    2.905 --    27 C    1.387    34 N    1.157    31 N    0.125
    36   8 O    2.005 --    33 C    1.642    34 N    0.125    32 N    0.123
    37   6 C    3.952 --    42 C    1.368    38 C    1.358    32 N    1.045
    38   6 C    3.984 --    39 C    1.463    37 C    1.358    49 H    0.962
                            41 C    0.106
    39   6 C    3.991 --    38 C    1.463    40 C    1.424    50 H    0.970
                            42 C    0.104
    40   6 C    3.974 --    41 C    1.432    39 C    1.424    51 H    0.971
    41   6 C    3.990 --    42 C    1.452    40 C    1.432    52 H    0.970
                            38 C    0.106
    42   6 C    3.984 --    41 C    1.452    37 C    1.368    53 H    0.963
                            39 C    0.104
    43   6 C    3.953 --    44 C    1.370    48 C    1.363    34 N    1.040
    44   6 C    3.984 --    45 C    1.452    43 C    1.370    58 H    0.965
                            47 C    0.105
    45   6 C    3.990 --    44 C    1.452    46 C    1.432    57 H    0.970
                            48 C    0.106
    46   6 C    3.975 --    45 C    1.432    47 C    1.426    56 H    0.971
    47   6 C    3.991 --    48 C    1.461    46 C    1.426    55 H    0.970
Note: The following floating-point exceptions are signalling: IEEE_UNDERFLOW_FLAG
normal termination of xtb
                            44 C    0.105
    48   6 C    3.984 --    47 C    1.461    43 C    1.363    54 H    0.964
                            45 C    0.106
    49   1 H    0.996 --    38 C    0.962
    50   1 H    0.998 --    39 C    0.970
    51   1 H    0.998 --    40 C    0.971
    52   1 H    0.998 --    41 C    0.970
    53   1 H    0.996 --    42 C    0.963
    54   1 H    0.996 --    48 C    0.964
    55   1 H    0.998 --    47 C    0.970
    56   1 H    0.998 --    46 C    0.971
    57   1 H    0.997 --    45 C    0.970
    58   1 H    0.996 --    44 C    0.965
 ---------------------------------------------------------------------------

Topologies differ in bond orders
Writing corrected topology to xtbtopo.mol

molecular dipole:
                 x           y           z       tot (Debye)
 q only:        0.569       0.482      -0.210
   full:        0.481       0.420      -0.216       1.712
molecular quadrupole (traceless):
                xx          xy          yy          xz          yz          zz
 q only:       -0.395      -9.486      10.318       3.502       1.495      -9.923
  q+dip:        4.480      -9.525      15.419       4.600       0.257     -19.900
   full:       -0.557      -8.283       9.359       3.827       1.433      -8.802


           -------------------------------------------------
          | TOTAL ENERGY              -94.977280265906 Eh   |
          | GRADIENT NORM               0.000637697262 Eh/α |
          | HOMO-LUMO GAP               1.620729216941 eV   |
           -------------------------------------------------
########################################################################
[WARNING] Runtime exception occurred
-2- restart_readRestart: Multiplicity missmatch in restart file.
-1- restart_readRestart: Number of electron missmatch in restart file.
########################################################################

------------------------------------------------------------------------
 * finished run on 2024/11/14 at 13:59:52.592     
------------------------------------------------------------------------
 total:
 * wall-time:     0 d,  0 h,  0 min,  0.295 sec
 *  cpu-time:     0 d,  0 h,  0 min,  0.820 sec
 * ratio c/w:     2.784 speedup
 SCF:
 * wall-time:     0 d,  0 h,  0 min,  0.272 sec
 *  cpu-time:     0 d,  0 h,  0 min,  0.805 sec
 * ratio c/w:     2.955 speedup

