      -----------------------------------------------------------      
     |                   =====================                   |     
     |                           x T B                           |     
     |                   =====================                   |     
     |                         S. Grimme                         |     
     |          Mulliken Center for Theoretical Chemistry        |     
     |                    University of Bonn                     |     
      -----------------------------------------------------------      

   * xtb version 6.6.1 (8d0f1dd) compiled by 'runner@Mac-1690902418499.local' on 2023-08-01

   xtb is free software: you can redistribute it and/or modify it under
   the terms of the GNU Lesser General Public License as published by
   the Free Software Foundation, either version 3 of the License, or
   (at your option) any later version.
   
   xtb is distributed in the hope that it will be useful,
   but WITHOUT ANY WARRANTY; without even the implied warranty of
   MERCHANTABILITY or FITNESS FOR A PARTICULAR PURPOSE.  See the
   GNU Lesser General Public License for more details.
   
   Cite this work as:
   * C. Bannwarth, E. Caldeweyher, S. Ehlert, A. Hansen, P. Pracht,
     J. Seibert, S. Spicher, S. Grimme, WIREs Comput. Mol. Sci., 2020, 11,
     e01493. DOI: 10.1002/wcms.1493
   
   for GFN2-xTB:
   * C. Bannwarth, S. Ehlert and S. Grimme., J. Chem. Theory Comput., 2019,
     15, 1652-1671. DOI: 10.1021/acs.jctc.8b01176
   for GFN1-xTB:
   * S. Grimme, C. Bannwarth, P. Shushkov, J. Chem. Theory Comput., 2017,
     13, 1989-2009. DOI: 10.1021/acs.jctc.7b00118
   for GFN0-xTB:
   * P. Pracht, E. Caldeweyher, S. Ehlert, S. Grimme, ChemRxiv, 2019, preprint.
     DOI: 10.26434/chemrxiv.8326202.v1
   for GFN-FF:
   * S. Spicher and S. Grimme, Angew. Chem. Int. Ed., 2020, 59, 15665-15673.
     DOI: 10.1002/anie.202004239
   
   for ALPB and GBSA implicit solvation:
   * S. Ehlert, M. Stahn, S. Spicher, S. Grimme, J. Chem. Theory Comput.,
     2021, 17, 4250-4261. DOI: 10.1021/acs.jctc.1c00471
   
   for DFT-D4:
   * E. Caldeweyher, C. Bannwarth and S. Grimme, J. Chem. Phys., 2017,
     147, 034112. DOI: 10.1063/1.4993215
   * E. Caldeweyher, S. Ehlert, A. Hansen, H. Neugebauer, S. Spicher,
     C. Bannwarth and S. Grimme, J. Chem. Phys., 2019, 150, 154122.
     DOI: 10.1063/1.5090222
   * E. Caldeweyher, J.-M. Mewes, S. Ehlert and S. Grimme, Phys. Chem. Chem. Phys.
     2020, 22, 8499-8512. DOI: 10.1039/D0CP00502A
   
   for sTDA-xTB:
   * S. Grimme and C. Bannwarth, J. Chem. Phys., 2016, 145, 054103.
     DOI: 10.1063/1.4959605
   
   in the mass-spec context:
   * V. Asgeirsson, C. Bauer and S. Grimme, Chem. Sci., 2017, 8, 4879.
     DOI: 10.1039/c7sc00601b
   * J. Koopman and S. Grimme, ACS Omega 2019, 4, 12, 15120-15133.
     DOI: 10.1021/acsomega.9b02011
   
   for metadynamics refer to:
   * S. Grimme, J. Chem. Theory Comput., 2019, 155, 2847-2862
     DOI: 10.1021/acs.jctc.9b00143
   
   for SPH calculations refer to:
   * S. Spicher and S. Grimme, J. Chem. Theory Comput., 2021, 17, 1701-1714
     DOI: 10.1021/acs.jctc.0c01306
   
   with help from (in alphabetical order)
   P. Atkinson, C. Bannwarth, F. Bohle, G. Brandenburg, E. Caldeweyher
   M. Checinski, S. Dohm, S. Ehlert, S. Ehrlich, I. Gerasimov, C. Hölzer
   A. Katbashev, J. Koopman, C. Lavigne, S. Lehtola, F. März, M. Müller,
   F. Musil, H. Neugebauer, J. Pisarek, C. Plett, P. Pracht, F. Pultar,
   J. Seibert, P. Shushkov, S. Spicher, M. Stahn, M. Steiner, T. Strunk,
   J. Stückrath, T. Rose, and J. Unsleber
   
 * started run on 2024/11/14 at 13:58:36.792     

           -------------------------------------------------
          |                Calculation Setup                |
           -------------------------------------------------

          program call               : xtb Verdazyl1.mol --opt --gfn2 --chrg 0 --uhf 1 --tight
          coordinate file            : Verdazyl1.mol
          omp threads                :                     8

   ID    Z sym.   atoms
    1    6 C      1-18, 27, 33, 37-48
    2    1 H      19-26, 28-30, 49-58
    3    7 N      31, 32, 34, 35
    4    8 O      36
########################################################################
[WARNING] Please study the warnings concerning your input carefully
-1- prog_main_parseArguments: Unknown option '--tight' provided
########################################################################

           -------------------------------------------------
          |                 G F N 2 - x T B                 |
           -------------------------------------------------

        Reference                      10.1021/acs.jctc.8b01176
      * Hamiltonian:
        H0-scaling (s, p, d)           1.850000    2.230000    2.230000
        zeta-weighting                 0.500000
      * Dispersion:
        s8                             2.700000
        a1                             0.520000
        a2                             5.000000
        s9                             5.000000
      * Repulsion:
        kExp                           1.500000    1.000000
        rExp                           1.000000
      * Coulomb:
        alpha                          2.000000
        third order                    shell-resolved
        anisotropic                    true
        a3                             3.000000
        a5                             4.000000
        cn-shift                       1.200000
        cn-exp                         4.000000
        max-rad                        5.000000


          ...................................................
          :                      SETUP                      :
          :.................................................:
          :  # basis functions                 169          :
          :  # atomic orbitals                 169          :
          :  # shells                           95          :
          :  # electrons                       175          :
          :  max. iterations                   250          :
          :  Hamiltonian                  GFN2-xTB          :
          :  restarted?                      false          :
          :  GBSA solvation                  false          :
          :  PC potential                    false          :
          :  electronic temp.          300.0000000     K    :
          :  accuracy                    1.0000000          :
          :  -> integral cutoff          0.2500000E+02      :
          :  -> integral neglect         0.1000000E-07      :
          :  -> SCF convergence          0.1000000E-05 Eh   :
          :  -> wf. convergence          0.1000000E-03 e    :
          :  Broyden damping             0.4000000          :
          ...................................................

 iter      E             dE          RMSdq      gap      omega  full diag
   1    -95.1558408 -0.951558E+02  0.587E+00    0.49       0.0  T
   2    -94.9553946  0.200446E+00  0.399E+00    1.35       1.0  T
   3    -94.7313685  0.224026E+00  0.354E+00    0.10       1.0  T
   4    -95.1284622 -0.397094E+00  0.200E+00    1.11       1.0  T
   5    -95.2916546 -0.163192E+00  0.865E-01    0.93       1.0  T
   6    -95.3137786 -0.221240E-01  0.609E-01    1.10       1.0  T
   7    -95.3259779 -0.121993E-01  0.365E-01    1.13       1.0  T
   8    -95.3280796 -0.210167E-02  0.232E-01    1.15       1.0  T
   9    -95.3284169 -0.337257E-03  0.166E-01    1.17       1.0  T
  10    -95.3298068 -0.138996E-02  0.285E-02    1.16       1.0  T
  11    -95.3298486 -0.417318E-04  0.106E-02    1.16       1.2  T
  12    -95.3298484  0.153496E-06  0.683E-03    1.16       1.9  T
  13    -95.3298493 -0.947828E-06  0.421E-03    1.16       3.1  T
  14    -95.3298500 -0.691934E-06  0.194E-03    1.16       6.8  T
  15    -95.3298502 -0.160346E-06  0.761E-04    1.16      17.2  T
  16    -95.3298502 -0.163489E-07  0.448E-04    1.16      29.3  T

   *** convergence criteria satisfied after 16 iterations ***

         #    Occupation            Energy/Eh            Energy/eV
      -------------------------------------------------------------
         1        2.0000           -0.6541982             -17.8016
       ...           ...                  ...                  ...
        82        2.0000           -0.3911825             -10.6446
        83        2.0000           -0.3910441             -10.6409
        84        2.0000           -0.3846447             -10.4667
        85        2.0000           -0.3752638             -10.2114
        86        2.0000           -0.3704211             -10.0797
        87        1.9999           -0.3674127              -9.9978
        88        1.0001           -0.3497778              -9.5179 (HOMO)
        89                         -0.3070533              -8.3553 (LUMO)
        90                         -0.2875036              -7.8234
        91                         -0.2831945              -7.7061
        92                         -0.2682801              -7.3003
        93                         -0.2569112              -6.9909
       ...                                ...                  ...
       169                          0.5128424              13.9552
      -------------------------------------------------------------
                  HL-Gap            0.0427245 Eh            1.1626 eV
             Fermi-level           -0.3434956 Eh           -9.3470 eV

 SCC (total)                   0 d,  0 h,  0 min,  0.505 sec
 SCC setup                      ...        0 min,  0.000 sec (  0.082%)
 Dispersion                     ...        0 min,  0.001 sec (  0.201%)
 classical contributions        ...        0 min,  0.000 sec (  0.056%)
 integral evaluation            ...        0 min,  0.003 sec (  0.508%)
 iterations                     ...        0 min,  0.489 sec ( 96.887%)
 molecular gradient             ...        0 min,  0.010 sec (  1.947%)
 printout                       ...        0 min,  0.002 sec (  0.315%)

         :::::::::::::::::::::::::::::::::::::::::::::::::::::
         ::                     SUMMARY                     ::
         :::::::::::::::::::::::::::::::::::::::::::::::::::::
         :: total energy             -94.351792384765 Eh    ::
         :: gradient norm              0.538171805816 Eh/a0 ::
         :: HOMO-LUMO gap              1.162592948198 eV    ::
         ::.................................................::
         :: SCC energy               -95.329850214490 Eh    ::
         :: -> isotropic ES            0.061690481763 Eh    ::
         :: -> anisotropic ES         -0.001673736925 Eh    ::
         :: -> anisotropic XC          0.084622313226 Eh    ::
         :: -> dispersion             -0.070896822743 Eh    ::
         :: repulsion energy           0.978767252518 Eh    ::
         :: add. restraining           0.000000000000 Eh    ::
         :: total charge               0.000000000603 e     ::
         :::::::::::::::::::::::::::::::::::::::::::::::::::::

      ----------------------------------------------------------- 
     |                   =====================                   |
     |                        A N C O P T                        |
     |                   =====================                   |
     |               Approximate Normal Coordinate               |
     |                Rational Function Optimizer                |
      ----------------------------------------------------------- 

          ...................................................
          :                      SETUP                      :
          :.................................................:
          :   optimization level            normal          :
          :   max. optcycles                   200          :
          :   ANC micro-cycles                  20          :
          :   degrees of freedom               168          :
          :.................................................:
          :   RF solver                   davidson          :
          :   write xtbopt.log                true          :
          :   linear?                        false          :
          :   energy convergence         0.5000000E-05 Eh   :
          :   grad. convergence          0.1000000E-02 Eh/α :
          :   maxmium RF displ.          1.0000000          :
          :   Hlow (freq-cutoff)         0.1000000E-01      :
          :   Hmax (freq-cutoff)         5.0000000          :
          :   S6 in model hess.         20.0000000          :
          ...................................................

generating ANC from model Hessian ...
Using Lindh-Hessian (1995)
 Shifting diagonal of input Hessian by    1.3273665534864434E-002
 Lowest  eigenvalues of input Hessian
    0.010000    0.000000    0.000000    0.000000    0.000000    0.000000
    0.000000    0.013311    0.013421    0.013502    0.013569    0.013747
    0.013890    0.014155    0.014429    0.014606    0.014776    0.014843
 Highest eigenvalues
    1.461013    1.466913    1.467411    1.501416    1.572950    1.590473


........................................................................
.............................. CYCLE    1 ..............................
........................................................................

 iter      E             dE          RMSdq      gap      omega  full diag
   1    -95.3298502 -0.953299E+02  0.522E-04    1.16       0.0  T
   2    -95.3298502  0.155110E-08  0.500E-04    1.16      26.3  T
   3    -95.3298502 -0.160427E-07  0.136E-04    1.16      96.7  T
     SCC iter.                  ...        0 min,  0.125 sec
     gradient                   ...        0 min,  0.019 sec
 * total energy  :   -94.3517924 Eh     change       -0.6383871E-08 Eh
   gradient norm :     0.5381780 Eh/α   predicted     0.0000000E+00 (-100.00%)
   displ. norm   :     0.6900431 α      lambda       -0.3181601E+00
   maximum displ.:     0.3151660 α      in ANC's #93, #101, #106, ...

........................................................................
.............................. CYCLE    2 ..............................
........................................................................

 iter      E             dE          RMSdq      gap      omega  full diag
   1    -95.6616666 -0.956617E+02  0.532E-01    1.38       0.0  T
   2    -95.6637479 -0.208129E-02  0.353E-01    1.35       1.0  T
   3    -95.6640863 -0.338366E-03  0.222E-01    1.40       1.0  T
   4    -95.6652492 -0.116287E-02  0.891E-02    1.42       1.0  T
   5    -95.6656270 -0.377819E-03  0.339E-02    1.39       1.0  T
   6    -95.6656945 -0.675048E-04  0.113E-02    1.40       1.2  T
   7    -95.6656981 -0.361522E-05  0.495E-03    1.40       2.7  T
   8    -95.6656987 -0.646141E-06  0.238E-03    1.39       5.5  T
   9    -95.6656988 -0.106308E-06  0.105E-03    1.40      12.5  T
  10    -95.6656989 -0.141629E-07  0.474E-04    1.40      27.7  T
  11    -95.6656989 -0.691416E-08  0.250E-04    1.40      52.5  T
     SCC iter.                  ...        0 min,  0.329 sec
     gradient                   ...        0 min,  0.010 sec
 * total energy  :   -94.6096311 Eh     change       -0.2578387E+00 Eh
   gradient norm :     0.3393898 Eh/α   predicted    -0.2348349E+00 (  -8.92%)
   displ. norm   :     0.7835384 α      lambda       -0.2422551E+00
   maximum displ.:     0.3549474 α      in ANC's #93, #101, #98, ...

........................................................................
.............................. CYCLE    3 ..............................
........................................................................

 iter      E             dE          RMSdq      gap      omega  full diag
   1    -96.0044611 -0.960045E+02  0.643E-01    1.65       0.0  T
   2    -96.0147748 -0.103137E-01  0.375E-01    1.69       1.0  T
   3    -96.0156941 -0.919298E-03  0.207E-01    1.77       1.0  T
   4    -96.0153832  0.310882E-03  0.121E-01    1.80       1.0  T
   5    -96.0160465 -0.663313E-03  0.365E-02    1.79       1.0  T
   6    -96.0161020 -0.554805E-04  0.155E-02    1.79       1.0  T
   7    -96.0161111 -0.911966E-05  0.622E-03    1.79       2.1  T
   8    -96.0161119 -0.825931E-06  0.277E-03    1.79       4.7  T
   9    -96.0161121 -0.204351E-06  0.138E-03    1.79       9.5  T
  10    -96.0161122 -0.437658E-07  0.601E-04    1.79      21.9  T
  11    -96.0161122 -0.123367E-07  0.222E-04    1.79      59.1  T
     SCC iter.                  ...        0 min,  0.199 sec
     gradient                   ...        0 min,  0.009 sec
 * total energy  :   -94.7714867 Eh     change       -0.1618556E+00 Eh
   gradient norm :     0.1641035 Eh/α   predicted    -0.1954919E+00 (  20.78%)
   displ. norm   :     0.6883605 α      lambda       -0.8941154E-01
   maximum displ.:     0.3328462 α      in ANC's #93, #27, #37, ...

........................................................................
.............................. CYCLE    4 ..............................
........................................................................

 iter      E             dE          RMSdq      gap      omega  full diag
   1    -96.2225312 -0.962225E+02  0.380E-01    1.72       0.0  T
   2    -96.2251001 -0.256894E-02  0.231E-01    1.88       1.0  T
   3    -96.2253873 -0.287199E-03  0.128E-01    1.83       1.0  T
   4    -96.2253466  0.407714E-04  0.536E-02    1.84       1.0  T
   5    -96.2254996 -0.153045E-03  0.796E-03    1.84       1.7  T
   6    -96.2255014 -0.180783E-05  0.418E-03    1.84       3.1  T
   7    -96.2255020 -0.592664E-06  0.214E-03    1.84       6.1  T
   8    -96.2255021 -0.676993E-07  0.696E-04    1.84      18.9  T
   9    -96.2255021 -0.172518E-07  0.280E-04    1.84      46.9  T
     SCC iter.                  ...        0 min,  0.233 sec
     gradient                   ...        0 min,  0.008 sec
 * total energy  :   -94.8401111 Eh     change       -0.6862443E-01 Eh
   gradient norm :     0.0919145 Eh/α   predicted    -0.6589521E-01 (  -3.98%)
   displ. norm   :     0.7482644 α      lambda       -0.5410025E-01
   maximum displ.:     0.3686419 α      in ANC's #27, #24, #93, ...

........................................................................
.............................. CYCLE    5 ..............................
........................................................................

 iter      E             dE          RMSdq      gap      omega  full diag
   1    -96.3892642 -0.963893E+02  0.289E-01    1.69       0.0  T
   2    -96.3899809 -0.716659E-03  0.189E-01    1.78       1.0  T
   3    -96.3899997 -0.188824E-04  0.959E-02    1.76       1.0  T
   4    -96.3901558 -0.156104E-03  0.300E-02    1.77       1.0  T
   5    -96.3902077 -0.518537E-04  0.636E-03    1.77       2.1  T
   6    -96.3902086 -0.861705E-06  0.383E-03    1.77       3.4  T
   7    -96.3902088 -0.243273E-06  0.186E-03    1.77       7.1  T
   8    -96.3902089 -0.117070E-06  0.642E-04    1.77      20.4  T
   9    -96.3902089 -0.540454E-08  0.267E-04    1.77      49.1  T
     SCC iter.                  ...        0 min,  0.206 sec
     gradient                   ...        0 min,  0.009 sec
 * total energy  :   -94.8810500 Eh     change       -0.4093891E-01 Eh
   gradient norm :     0.0540702 Eh/α   predicted    -0.4219560E-01 (   3.07%)
   displ. norm   :     0.7897097 α      lambda       -0.3362590E-01
   maximum displ.:     0.4574761 α      in ANC's #27, #24, #10, ...

........................................................................
.............................. CYCLE    6 ..............................
........................................................................

 iter      E             dE          RMSdq      gap      omega  full diag
   1    -96.4679833 -0.964680E+02  0.245E-01    1.67       0.0  T
   2    -96.4687735 -0.790249E-03  0.152E-01    1.75       1.0  T
   3    -96.4688142 -0.406956E-04  0.747E-02    1.73       1.0  T
   4    -96.4688084  0.578935E-05  0.331E-02    1.73       1.0  T
   5    -96.4688710 -0.625912E-04  0.662E-03    1.73       2.0  T
   6    -96.4688715 -0.495381E-06  0.406E-03    1.73       3.2  T
   7    -96.4688720 -0.534731E-06  0.102E-03    1.73      12.9  T
   8    -96.4688720 -0.146081E-07  0.505E-04    1.73      26.0  T
   9    -96.4688720 -0.545853E-08  0.234E-04    1.73      56.1  T
     SCC iter.                  ...        0 min,  0.343 sec
     gradient                   ...        0 min,  0.008 sec
 * total energy  :   -94.9079264 Eh     change       -0.2687639E-01 Eh
   gradient norm :     0.0570983 Eh/α   predicted    -0.2729820E-01 (   1.57%)
   displ. norm   :     0.8193092 α      lambda       -0.2680669E-01
   maximum displ.:     0.4736941 α      in ANC's #27, #24, #10, ...

........................................................................
.............................. CYCLE    7 ..............................
........................................................................

 iter      E             dE          RMSdq      gap      omega  full diag
   1    -96.5307812 -0.965308E+02  0.215E-01    1.70       0.0  T
   2    -96.5309622 -0.181005E-03  0.132E-01    1.71       1.0  T
   3    -96.5308833  0.788882E-04  0.544E-02    1.70       1.0  T
   4    -96.5309946 -0.111256E-03  0.158E-02    1.70       1.0  T
   5    -96.5310046 -0.999124E-05  0.532E-03    1.70       2.5  T
   6    -96.5310054 -0.853631E-06  0.265E-03    1.70       5.0  T
   7    -96.5310057 -0.235558E-06  0.110E-03    1.70      11.9  T
   8    -96.5310057 -0.338931E-07  0.379E-04    1.70      34.7  T
   9    -96.5310057 -0.162041E-08  0.176E-04    1.70      74.6  T
     SCC iter.                  ...        0 min,  0.150 sec
     gradient                   ...        0 min,  0.009 sec
 * total energy  :   -94.9287621 Eh     change       -0.2083574E-01 Eh
   gradient norm :     0.0428323 Eh/α   predicted    -0.2240060E-01 (   7.51%)
   displ. norm   :     0.8119182 α      lambda       -0.2195229E-01
   maximum displ.:     0.4175782 α      in ANC's #27, #10, #24, ...

........................................................................
.............................. CYCLE    8 ..............................
........................................................................

 iter      E             dE          RMSdq      gap      omega  full diag
   1    -96.5680435 -0.965680E+02  0.202E-01    1.69       0.0  T
   2    -96.5682542 -0.210738E-03  0.125E-01    1.69       1.0  T
   3    -96.5682094  0.448695E-04  0.549E-02    1.69       1.0  T
   4    -96.5682965 -0.871157E-04  0.156E-02    1.69       1.0  T
   5    -96.5683042 -0.769966E-05  0.521E-03    1.69       2.5  T
   6    -96.5683048 -0.664249E-06  0.249E-03    1.69       5.3  T
   7    -96.5683050 -0.178673E-06  0.119E-03    1.69      11.0  T
   8    -96.5683051 -0.569630E-07  0.402E-04    1.69      32.6  T
   9    -96.5683051 -0.161232E-08  0.196E-04    1.69      66.9  T
     SCC iter.                  ...        0 min,  0.177 sec
     gradient                   ...        0 min,  0.009 sec
 * total energy  :   -94.9434120 Eh     change       -0.1464987E-01 Eh
   gradient norm :     0.0369560 Eh/α   predicted    -0.1821176E-01 (  24.31%)
   displ. norm   :     0.7183171 α      lambda       -0.1342955E-01
   maximum displ.:     0.4081167 α      in ANC's #10, #27, #24, ...

........................................................................
.............................. CYCLE    9 ..............................
........................................................................

 iter      E             dE          RMSdq      gap      omega  full diag
   1    -96.5832302 -0.965832E+02  0.171E-01    1.64       0.0  T
   2    -96.5834099 -0.179700E-03  0.101E-01    1.68       1.0  T
   3    -96.5833935  0.163829E-04  0.410E-02    1.66       1.0  T
   4    -96.5834286 -0.351319E-04  0.157E-02    1.67       1.0  T
   5    -96.5834397 -0.110494E-04  0.425E-03    1.67       3.1  T
   6    -96.5834396  0.608917E-07  0.254E-03    1.67       5.2  T
   7    -96.5834399 -0.247893E-06  0.642E-04    1.67      20.5  T
   8    -96.5834399 -0.119912E-07  0.313E-04    1.67      42.0  T
     SCC iter.                  ...        0 min,  0.218 sec
     gradient                   ...        0 min,  0.012 sec
 * total energy  :   -94.9530043 Eh     change       -0.9592284E-02 Eh
   gradient norm :     0.0246222 Eh/α   predicted    -0.1017947E-01 (   6.12%)
   displ. norm   :     0.7025462 α      lambda       -0.8494853E-02
   maximum displ.:     0.5049309 α      in ANC's #10, #12, #16, ...

........................................................................
.............................. CYCLE   10 ..............................
........................................................................

 iter      E             dE          RMSdq      gap      omega  full diag
   1    -96.6075072 -0.966075E+02  0.148E-01    1.64       0.0  T
   2    -96.6075902 -0.830567E-04  0.905E-02    1.66       1.0  T
   3    -96.6075509  0.392883E-04  0.401E-02    1.65       1.0  T
   4    -96.6076035 -0.526177E-04  0.141E-02    1.65       1.0  T
   5    -96.6076142 -0.106930E-04  0.317E-03    1.65       4.1  T
   6    -96.6076146 -0.342138E-06  0.148E-03    1.65       8.9  T
   7    -96.6076146 -0.158716E-07  0.663E-04    1.65      19.8  T
   8    -96.6076146 -0.192804E-07  0.182E-04    1.65      72.0  T
     SCC iter.                  ...        0 min,  0.117 sec
     gradient                   ...        0 min,  0.009 sec
 * total energy  :   -94.9595050 Eh     change       -0.6500674E-02 Eh
   gradient norm :     0.0219873 Eh/α   predicted    -0.6343834E-02 (  -2.41%)
   displ. norm   :     0.7479271 α      lambda       -0.7282947E-02
   maximum displ.:     0.5740334 α      in ANC's #10, #12, #16, ...

........................................................................
.............................. CYCLE   11 ..............................
........................................................................

 iter      E             dE          RMSdq      gap      omega  full diag
   1    -96.6149053 -0.966149E+02  0.160E-01    1.62       0.0  T
   2    -96.6149698 -0.644823E-04  0.915E-02    1.63       1.0  T
   3    -96.6149450  0.248249E-04  0.305E-02    1.62       1.0  T
   4    -96.6149837 -0.386865E-04  0.916E-03    1.63       1.4  T
   5    -96.6149860 -0.237671E-05  0.373E-03    1.63       3.5  T
   6    -96.6149862 -0.114769E-06  0.174E-03    1.63       7.6  T
   7    -96.6149863 -0.133247E-06  0.529E-04    1.63      24.8  T
   8    -96.6149863 -0.704837E-08  0.290E-04    1.63      45.3  T
     SCC iter.                  ...        0 min,  0.118 sec
     gradient                   ...        0 min,  0.009 sec
 * total energy  :   -94.9646972 Eh     change       -0.5192226E-02 Eh
   gradient norm :     0.0233007 Eh/α   predicted    -0.5678495E-02 (   9.37%)
   displ. norm   :     0.6790068 α      lambda       -0.5904662E-02
   maximum displ.:     0.5286252 α      in ANC's #10, #12, #9, ...

........................................................................
.............................. CYCLE   12 ..............................
........................................................................

 iter      E             dE          RMSdq      gap      omega  full diag
   1    -96.6201510 -0.966202E+02  0.132E-01    1.66       0.0  T
   2    -96.6201804 -0.294069E-04  0.771E-02    1.66       1.0  T
   3    -96.6201211  0.592179E-04  0.350E-02    1.66       1.0  T
   4    -96.6201922 -0.710259E-04  0.828E-03    1.67       1.6  T
   5    -96.6201956 -0.340229E-05  0.311E-03    1.66       4.2  T
   6    -96.6201958 -0.190227E-06  0.155E-03    1.67       8.4  T
   7    -96.6201958 -0.491294E-07  0.559E-04    1.66      23.5  T
   8    -96.6201958 -0.125592E-07  0.234E-04    1.66      56.2  T
     SCC iter.                  ...        0 min,  0.105 sec
     gradient                   ...        0 min,  0.009 sec
 * total energy  :   -94.9690606 Eh     change       -0.4363357E-02 Eh
   gradient norm :     0.0172148 Eh/α   predicted    -0.4313507E-02 (  -1.14%)
   displ. norm   :     0.6753340 α      lambda       -0.4381899E-02
   maximum displ.:     0.5042768 α      in ANC's #10, #15, #12, ...

........................................................................
.............................. CYCLE   13 ..............................
........................................................................

 iter      E             dE          RMSdq      gap      omega  full diag
   1    -96.6242457 -0.966242E+02  0.141E-01    1.64       0.0  T
   2    -96.6243065 -0.607950E-04  0.841E-02    1.64       1.0  T
   3    -96.6242748  0.317097E-04  0.304E-02    1.64       1.0  T
   4    -96.6243193 -0.445290E-04  0.881E-03    1.64       1.5  T
   5    -96.6243226 -0.331855E-05  0.360E-03    1.64       3.6  T
   6    -96.6243229 -0.245693E-06  0.181E-03    1.64       7.3  T
   7    -96.6243230 -0.895308E-07  0.783E-04    1.64      16.8  T
   8    -96.6243230 -0.190468E-07  0.355E-04    1.64      37.0  T
     SCC iter.                  ...        0 min,  0.197 sec
     gradient                   ...        0 min,  0.010 sec
 * total energy  :   -94.9722950 Eh     change       -0.3234446E-02 Eh
   gradient norm :     0.0276209 Eh/α   predicted    -0.3190189E-02 (  -1.37%)
   displ. norm   :     0.6017412 α      lambda       -0.3275139E-02
   maximum displ.:     0.4623089 α      in ANC's #10, #12, #15, ...

........................................................................
.............................. CYCLE   14 ..............................
........................................................................

 iter      E             dE          RMSdq      gap      omega  full diag
   1    -96.6336493 -0.966336E+02  0.121E-01    1.64       0.0  T
   2    -96.6337747 -0.125393E-03  0.663E-02    1.62       1.0  T
   3    -96.6337697  0.502734E-05  0.309E-02    1.63       1.0  T
   4    -96.6337850 -0.152819E-04  0.109E-02    1.63       1.2  T
   5    -96.6337920 -0.703324E-05  0.337E-03    1.63       3.9  T
   6    -96.6337922 -0.188325E-06  0.159E-03    1.63       8.2  T
   7    -96.6337922 -0.663526E-07  0.566E-04    1.63      23.2  T
   8    -96.6337923 -0.104482E-07  0.276E-04    1.63      47.5  T
     SCC iter.                  ...        0 min,  0.174 sec
     gradient                   ...        0 min,  0.009 sec
 * total energy  :   -94.9742455 Eh     change       -0.1950492E-02 Eh
   gradient norm :     0.0128054 Eh/α   predicted    -0.2230523E-02 (  14.36%)
   displ. norm   :     0.4628212 α      lambda       -0.1478311E-02
   maximum displ.:     0.3448330 α      in ANC's #10, #15, #13, ...

........................................................................
.............................. CYCLE   15 ..............................
........................................................................

 iter      E             dE          RMSdq      gap      omega  full diag
   1    -96.6320028 -0.966320E+02  0.111E-01    1.63       0.0  T
   2    -96.6320732 -0.704710E-04  0.667E-02    1.63       1.0  T
   3    -96.6320536  0.196571E-04  0.294E-02    1.63       1.0  T
   4    -96.6320828 -0.291816E-04  0.847E-03    1.63       1.6  T
   5    -96.6320867 -0.396392E-05  0.253E-03    1.63       5.2  T
   6    -96.6320870 -0.238087E-06  0.127E-03    1.63      10.3  T
   7    -96.6320870 -0.164715E-07  0.671E-04    1.63      19.6  T
   8    -96.6320870 -0.131217E-07  0.276E-04    1.63      47.6  T
     SCC iter.                  ...        0 min,  0.225 sec
     gradient                   ...        0 min,  0.016 sec
 * total energy  :   -94.9748073 Eh     change       -0.5617973E-03 Eh
   gradient norm :     0.0206945 Eh/α   predicted    -0.8974860E-03 (  59.75%)
   displ. norm   :     0.1597240 α      lambda       -0.7055241E-03
   maximum displ.:     0.0975949 α      in ANC's #10, #7, #3, ...

........................................................................
.............................. CYCLE   16 ..............................
........................................................................

 iter      E             dE          RMSdq      gap      omega  full diag
   1    -96.6383030 -0.966383E+02  0.501E-02    1.64       0.0  T
   2    -96.6383292 -0.262042E-04  0.314E-02    1.64       1.0  T
   3    -96.6383298 -0.547109E-06  0.159E-02    1.64       1.0  T
   4    -96.6383341 -0.431831E-05  0.371E-03    1.64       3.5  T
   5    -96.6383348 -0.648771E-06  0.157E-03    1.64       8.4  T
   6    -96.6383349 -0.996728E-07  0.725E-04    1.64      18.1  T
   7    -96.6383349 -0.639315E-08  0.402E-04    1.64      32.6  T
     SCC iter.                  ...        0 min,  0.139 sec
     gradient                   ...        0 min,  0.009 sec
 * total energy  :   -94.9751760 Eh     change       -0.3687471E-03 Eh
   gradient norm :     0.0053054 Eh/α   predicted    -0.3617637E-03 (  -1.89%)
   displ. norm   :     0.1583963 α      lambda       -0.2684665E-03
   maximum displ.:     0.0874684 α      in ANC's #10, #7, #3, ...

........................................................................
.............................. CYCLE   17 ..............................
........................................................................

 iter      E             dE          RMSdq      gap      omega  full diag
   1    -96.6396977 -0.966397E+02  0.482E-02    1.64       0.0  T
   2    -96.6396996 -0.195910E-05  0.285E-02    1.63       1.0  T
   3    -96.6396928  0.684029E-05  0.110E-02    1.64       1.2  T
   4    -96.6397006 -0.780918E-05  0.209E-03    1.64       6.3  T
   5    -96.6397008 -0.230333E-06  0.827E-04    1.64      15.9  T
   6    -96.6397008 -0.161571E-07  0.388E-04    1.64      33.9  T
     SCC iter.                  ...        0 min,  0.148 sec
     gradient                   ...        0 min,  0.009 sec
 * total energy  :   -94.9753292 Eh     change       -0.1531782E-03 Eh
   gradient norm :     0.0057374 Eh/α   predicted    -0.1376030E-03 ( -10.17%)
   displ. norm   :     0.2127049 α      lambda       -0.2214389E-03
   maximum displ.:     0.1092828 α      in ANC's #7, #10, #3, ...

........................................................................
.............................. CYCLE   18 ..............................
........................................................................

 iter      E             dE          RMSdq      gap      omega  full diag
   1    -96.6403770 -0.966404E+02  0.612E-02    1.64       0.0  T
   2    -96.6403785 -0.155749E-05  0.359E-02    1.64       1.0  T
   3    -96.6403771  0.144117E-05  0.543E-03    1.64       2.4  T
   4    -96.6403787 -0.165476E-05  0.167E-03    1.64       7.8  T
   5    -96.6403789 -0.169068E-06  0.558E-04    1.64      23.5  T
   6    -96.6403789 -0.715686E-08  0.305E-04    1.64      43.1  T
     SCC iter.                  ...        0 min,  0.095 sec
     gradient                   ...        0 min,  0.010 sec
 * total energy  :   -94.9754833 Eh     change       -0.1540815E-03 Eh
   gradient norm :     0.0057052 Eh/α   predicted    -0.1157340E-03 ( -24.89%)
   displ. norm   :     0.2683022 α      lambda       -0.2015019E-03
   maximum displ.:     0.1534645 α      in ANC's #7, #3, #10, ...

........................................................................
.............................. CYCLE   19 ..............................
........................................................................

 iter      E             dE          RMSdq      gap      omega  full diag
   1    -96.6382209 -0.966382E+02  0.774E-02    1.63       0.0  T
   2    -96.6382234 -0.248919E-05  0.455E-02    1.63       1.0  T
   3    -96.6382167  0.664638E-05  0.102E-02    1.63       1.3  T
   4    -96.6382242 -0.748044E-05  0.185E-03    1.63       7.1  T
   5    -96.6382244 -0.174226E-06  0.727E-04    1.63      18.1  T
   6    -96.6382244 -0.152133E-07  0.357E-04    1.63      36.8  T
     SCC iter.                  ...        0 min,  0.116 sec
     gradient                   ...        0 min,  0.012 sec
 * total energy  :   -94.9756038 Eh     change       -0.1204868E-03 Eh
   gradient norm :     0.0034830 Eh/α   predicted    -0.1080054E-03 ( -10.36%)
   displ. norm   :     0.2209173 α      lambda       -0.1444305E-03
   maximum displ.:     0.1260530 α      in ANC's #7, #3, #12, ...

........................................................................
.............................. CYCLE   20 ..............................
........................................................................

 iter      E             dE          RMSdq      gap      omega  full diag
   1    -96.6385492 -0.966385E+02  0.626E-02    1.63       0.0  T
   2    -96.6385497 -0.539493E-06  0.368E-02    1.63       1.0  T
   3    -96.6385485  0.118815E-05  0.442E-03    1.63       3.0  T
   4    -96.6385500 -0.143694E-05  0.103E-03    1.63      12.8  T
   5    -96.6385500 -0.362816E-07  0.470E-04    1.63      27.9  T
   6    -96.6385500 -0.201359E-08  0.230E-04    1.63      57.0  T
     SCC iter.                  ...        0 min,  0.136 sec
     gradient                   ...        0 min,  0.008 sec
 * total energy  :   -94.9756979 Eh     change       -0.9412273E-04 Eh
   gradient norm :     0.0034102 Eh/α   predicted    -0.7574043E-04 ( -19.53%)
   displ. norm   :     0.2412394 α      lambda       -0.1497525E-03
   maximum displ.:     0.1465215 α      in ANC's #3, #7, #12, ...
 * RMSD in coord.:     1.0172838 α      energy gain  -0.6239055E+00 Eh

generating ANC from model Hessian ...
Using Lindh-Hessian (1995)
 Shifting diagonal of input Hessian by    9.8928069273503914E-003
 Lowest  eigenvalues of input Hessian
    0.000000    0.000000    0.000000    0.000000    0.000000    0.000000
    0.010000    0.010309    0.010405    0.010734    0.010959    0.011188
    0.011214    0.011829    0.012133    0.013036    0.014116    0.014810
 Highest eigenvalues
    2.105017    2.117682    2.130295    2.153682    2.290538    2.517188


........................................................................
.............................. CYCLE   21 ..............................
........................................................................

 iter      E             dE          RMSdq      gap      omega  full diag
   1    -96.6380053 -0.966380E+02  0.644E-02    1.63       0.0  T
   2    -96.6380059 -0.547967E-06  0.379E-02    1.63       1.0  T
   3    -96.6380035  0.239307E-05  0.627E-03    1.63       2.1  T
   4    -96.6380062 -0.277261E-05  0.915E-04    1.63      14.3  T
   5    -96.6380063 -0.222489E-07  0.508E-04    1.63      25.8  T
   6    -96.6380063 -0.289612E-08  0.245E-04    1.63      53.6  T
     SCC iter.                  ...        0 min,  0.133 sec
     gradient                   ...        0 min,  0.009 sec
 * total energy  :   -94.9758052 Eh     change       -0.1072736E-03 Eh
   gradient norm :     0.0033287 Eh/α   predicted     0.0000000E+00 (-100.00%)
   displ. norm   :     0.0650240 α      lambda       -0.7906894E-04
   maximum displ.:     0.0373900 α      in ANC's #2, #5, #14, ...

........................................................................
.............................. CYCLE   22 ..............................
........................................................................

 iter      E             dE          RMSdq      gap      omega  full diag
   1    -96.6391947 -0.966392E+02  0.191E-02    1.63       0.0  T
   2    -96.6391948 -0.145446E-06  0.113E-02    1.63       1.2  T
   3    -96.6391945  0.324286E-06  0.231E-03    1.63       5.7  T
   4    -96.6391948 -0.358459E-06  0.579E-04    1.63      22.7  T
   5    -96.6391949 -0.193739E-07  0.202E-04    1.63      65.1  T
     SCC iter.                  ...        0 min,  0.119 sec
     gradient                   ...        0 min,  0.010 sec
 * total energy  :   -94.9758704 Eh     change       -0.6518291E-04 Eh
   gradient norm :     0.0014204 Eh/α   predicted    -0.3972193E-04 ( -39.06%)
   displ. norm   :     0.2698076 α      lambda       -0.1366839E-03
   maximum displ.:     0.1557165 α      in ANC's #2, #5, #4, ...

........................................................................
.............................. CYCLE   23 ..............................
........................................................................

 iter      E             dE          RMSdq      gap      omega  full diag
   1    -96.6410234 -0.966410E+02  0.714E-02    1.63       0.0  T
   2    -96.6410245 -0.117771E-05  0.420E-02    1.63       1.0  T
   3    -96.6410218  0.268518E-05  0.660E-03    1.63       2.0  T
   4    -96.6410249 -0.301715E-05  0.168E-03    1.63       7.8  T
   5    -96.6410250 -0.160311E-06  0.600E-04    1.63      21.9  T
   6    -96.6410250 -0.361128E-08  0.330E-04    1.63      39.8  T
     SCC iter.                  ...        0 min,  0.123 sec
     gradient                   ...        0 min,  0.016 sec
 * total energy  :   -94.9759847 Eh     change       -0.1142929E-03 Eh
   gradient norm :     0.0038823 Eh/α   predicted    -0.7055519E-04 ( -38.27%)
   displ. norm   :     0.0974353 α      lambda       -0.5306835E-04
   maximum displ.:     0.0618801 α      in ANC's #2, #5, #4, ...

........................................................................
.............................. CYCLE   24 ..............................
........................................................................

 iter      E             dE          RMSdq      gap      omega  full diag
   1    -96.6406832 -0.966407E+02  0.237E-02    1.63       0.0  T
   2    -96.6406833 -0.884872E-07  0.139E-02    1.63       1.0  T
   3    -96.6406831  0.130850E-06  0.148E-03    1.63       8.9  T
   4    -96.6406833 -0.169429E-06  0.343E-04    1.63      38.2  T
   5    -96.6406833 -0.294195E-08  0.181E-04    1.63      72.6  T
     SCC iter.                  ...        0 min,  0.082 sec
     gradient                   ...        0 min,  0.009 sec
 * total energy  :   -94.9760341 Eh     change       -0.4941898E-04 Eh
   gradient norm :     0.0030431 Eh/α   predicted    -0.2678792E-04 ( -45.79%)
   displ. norm   :     0.2379452 α      lambda       -0.1366128E-03
   maximum displ.:     0.1446024 α      in ANC's #2, #5, #4, ...

........................................................................
.............................. CYCLE   25 ..............................
........................................................................

 iter      E             dE          RMSdq      gap      omega  full diag
   1    -96.6394081 -0.966394E+02  0.589E-02    1.63       0.0  T
   2    -96.6394088 -0.732583E-06  0.346E-02    1.63       1.0  T
   3    -96.6394079  0.977147E-06  0.410E-03    1.63       3.2  T
   4    -96.6394091 -0.122654E-05  0.962E-04    1.63      13.7  T
   5    -96.6394091 -0.358728E-07  0.447E-04    1.63      29.3  T
   6    -96.6394091 -0.111378E-08  0.200E-04    1.63      65.7  T
     SCC iter.                  ...        0 min,  0.161 sec
     gradient                   ...        0 min,  0.010 sec
 * total energy  :   -94.9761477 Eh     change       -0.1136653E-03 Eh
   gradient norm :     0.0016048 Eh/α   predicted    -0.7219056E-04 ( -36.49%)
   displ. norm   :     0.5201024 α      lambda       -0.1435609E-03
   maximum displ.:     0.3151803 α      in ANC's #2, #5, #4, ...

........................................................................
.............................. CYCLE   26 ..............................
........................................................................

 iter      E             dE          RMSdq      gap      omega  full diag
   1    -96.6357430 -0.966357E+02  0.130E-01    1.63       0.0  T
   2    -96.6357458 -0.283878E-05  0.765E-02    1.63       1.0  T
   3    -96.6357430  0.282072E-05  0.758E-03    1.63       1.7  T
   4    -96.6357468 -0.379689E-05  0.192E-03    1.63       6.9  T
   5    -96.6357469 -0.125936E-06  0.949E-04    1.63      13.8  T
   6    -96.6357469 -0.685770E-08  0.422E-04    1.63      31.1  T
     SCC iter.                  ...        0 min,  0.130 sec
     gradient                   ...        0 min,  0.009 sec
 * total energy  :   -94.9762932 Eh     change       -0.1454199E-03 Eh
   gradient norm :     0.0049882 Eh/α   predicted    -0.8041047E-04 ( -44.70%)
   displ. norm   :     0.2225960 α      lambda       -0.8530721E-04
   maximum displ.:     0.1374197 α      in ANC's #2, #5, #4, ...

........................................................................
.............................. CYCLE   27 ..............................
........................................................................

 iter      E             dE          RMSdq      gap      omega  full diag
   1    -96.6362730 -0.966363E+02  0.575E-02    1.63       0.0  T
   2    -96.6362734 -0.393260E-06  0.338E-02    1.63       1.0  T
   3    -96.6362731  0.294897E-06  0.259E-03    1.63       5.1  T
   4    -96.6362735 -0.441335E-06  0.744E-04    1.63      17.6  T
   5    -96.6362735 -0.166541E-07  0.381E-04    1.63      34.5  T
     SCC iter.                  ...        0 min,  0.104 sec
     gradient                   ...        0 min,  0.009 sec
 * total energy  :   -94.9763708 Eh     change       -0.7767649E-04 Eh
   gradient norm :     0.0045723 Eh/α   predicted    -0.4477127E-04 ( -42.36%)
   displ. norm   :     0.4569977 α      lambda       -0.2077760E-03
   maximum displ.:     0.2830156 α      in ANC's #2, #4, #5, ...

........................................................................
.............................. CYCLE   28 ..............................
........................................................................

 iter      E             dE          RMSdq      gap      omega  full diag
   1    -96.6380599 -0.966381E+02  0.122E-01    1.62       0.0  T
   2    -96.6380617 -0.180115E-05  0.714E-02    1.63       1.0  T
   3    -96.6380605  0.120309E-05  0.535E-03    1.63       2.5  T
   4    -96.6380623 -0.181936E-05  0.153E-03    1.63       8.6  T
   5    -96.6380624 -0.712148E-07  0.761E-04    1.63      17.3  T
   6    -96.6380624 -0.722497E-08  0.389E-04    1.63      33.7  T
     SCC iter.                  ...        0 min,  0.129 sec
     gradient                   ...        0 min,  0.011 sec
 * total energy  :   -94.9765433 Eh     change       -0.1724122E-03 Eh
   gradient norm :     0.0026199 Eh/α   predicted    -0.1255847E-03 ( -27.16%)
   displ. norm   :     0.5501669 α      lambda       -0.2039839E-03
   maximum displ.:     0.3419626 α      in ANC's #2, #4, #5, ...

........................................................................
.............................. CYCLE   29 ..............................
........................................................................

 iter      E             dE          RMSdq      gap      omega  full diag
   1    -96.6379783 -0.966380E+02  0.150E-01    1.62       0.0  T
   2    -96.6379811 -0.280608E-05  0.881E-02    1.62       1.0  T
   3    -96.6379792  0.192572E-05  0.671E-03    1.62       2.0  T
   4    -96.6379820 -0.279396E-05  0.200E-03    1.62       6.6  T
   5    -96.6379821 -0.143212E-06  0.960E-04    1.62      13.7  T
   6    -96.6379821 -0.152702E-07  0.497E-04    1.62      26.4  T
     SCC iter.                  ...        0 min,  0.144 sec
     gradient                   ...        0 min,  0.009 sec
 * total energy  :   -94.9766992 Eh     change       -0.1559137E-03 Eh
   gradient norm :     0.0031352 Eh/α   predicted    -0.1328647E-03 ( -14.78%)
   displ. norm   :     0.4266031 α      lambda       -0.1584558E-03
   maximum displ.:     0.2666750 α      in ANC's #2, #4, #5, ...

........................................................................
.............................. CYCLE   30 ..............................
........................................................................

 iter      E             dE          RMSdq      gap      omega  full diag
   1    -96.6408249 -0.966408E+02  0.122E-01    1.62       0.0  T
   2    -96.6408268 -0.196674E-05  0.713E-02    1.62       1.0  T
   3    -96.6408251  0.169607E-05  0.585E-03    1.62       2.2  T
   4    -96.6408274 -0.222253E-05  0.175E-03    1.62       7.5  T
   5    -96.6408275 -0.130218E-06  0.750E-04    1.62      17.5  T
   6    -96.6408275 -0.926920E-08  0.394E-04    1.62      33.3  T
     SCC iter.                  ...        0 min,  0.109 sec
     gradient                   ...        0 min,  0.011 sec
 * total energy  :   -94.9768127 Eh     change       -0.1135500E-03 Eh
   gradient norm :     0.0030586 Eh/α   predicted    -0.9364836E-04 ( -17.53%)
   displ. norm   :     0.4540048 α      lambda       -0.1013974E-03
   maximum displ.:     0.2825637 α      in ANC's #2, #4, #5, ...

........................................................................
.............................. CYCLE   31 ..............................
........................................................................

 iter      E             dE          RMSdq      gap      omega  full diag
   1    -96.6383749 -0.966384E+02  0.129E-01    1.62       0.0  T
   2    -96.6383769 -0.202185E-05  0.755E-02    1.62       1.0  T
   3    -96.6383756  0.129785E-05  0.584E-03    1.62       2.2  T
   4    -96.6383775 -0.190693E-05  0.172E-03    1.62       7.6  T
   5    -96.6383776 -0.973199E-07  0.870E-04    1.62      15.1  T
   6    -96.6383776 -0.164054E-07  0.406E-04    1.62      32.3  T
     SCC iter.                  ...        0 min,  0.088 sec
     gradient                   ...        0 min,  0.009 sec
 * total energy  :   -94.9768794 Eh     change       -0.6665681E-04 Eh
   gradient norm :     0.0044594 Eh/α   predicted    -0.6115294E-04 (  -8.26%)
   displ. norm   :     0.3293291 α      lambda       -0.1431673E-03
   maximum displ.:     0.1899657 α      in ANC's #2, #4, #10, ...

........................................................................
.............................. CYCLE   32 ..............................
........................................................................

 iter      E             dE          RMSdq      gap      omega  full diag
   1    -96.6430984 -0.966431E+02  0.976E-02    1.62       0.0  T
   2    -96.6431000 -0.154349E-05  0.574E-02    1.62       1.0  T
   3    -96.6430975  0.247369E-05  0.673E-03    1.62       2.0  T
   4    -96.6431005 -0.298829E-05  0.145E-03    1.62       9.0  T
   5    -96.6431005 -0.699687E-07  0.716E-04    1.62      18.3  T
   6    -96.6431006 -0.106791E-07  0.351E-04    1.62      37.4  T
     SCC iter.                  ...        0 min,  0.114 sec
     gradient                   ...        0 min,  0.010 sec
 * total energy  :   -94.9769546 Eh     change       -0.7518539E-04 Eh
   gradient norm :     0.0025347 Eh/α   predicted    -0.7934760E-04 (   5.54%)
   displ. norm   :     0.3472026 α      lambda       -0.6119935E-04
   maximum displ.:     0.2158345 α      in ANC's #2, #4, #5, ...

........................................................................
.............................. CYCLE   33 ..............................
........................................................................

 iter      E             dE          RMSdq      gap      omega  full diag
   1    -96.6397737 -0.966398E+02  0.101E-01    1.62       0.0  T
   2    -96.6397750 -0.130573E-05  0.592E-02    1.62       1.0  T
   3    -96.6397742  0.784573E-06  0.484E-03    1.62       2.7  T
   4    -96.6397755 -0.122067E-05  0.133E-03    1.62       9.9  T
   5    -96.6397755 -0.341486E-07  0.744E-04    1.62      17.6  T
   6    -96.6397755 -0.121590E-07  0.318E-04    1.62      41.2  T
     SCC iter.                  ...        0 min,  0.086 sec
     gradient                   ...        0 min,  0.010 sec
 * total energy  :   -94.9769896 Eh     change       -0.3508714E-04 Eh
   gradient norm :     0.0027188 Eh/α   predicted    -0.3429003E-04 (  -2.27%)
   displ. norm   :     0.1019975 α      lambda       -0.4374646E-04
   maximum displ.:     0.0652230 α      in ANC's #4, #2, #1, ...

........................................................................
.............................. CYCLE   34 ..............................
........................................................................

 iter      E             dE          RMSdq      gap      omega  full diag
   1    -96.6406208 -0.966406E+02  0.287E-02    1.62       0.0  T
   2    -96.6406210 -0.209293E-06  0.168E-02    1.62       1.0  T
   3    -96.6406207  0.376985E-06  0.264E-03    1.62       5.0  T
   4    -96.6406211 -0.473106E-06  0.630E-04    1.62      20.8  T
   5    -96.6406211 -0.374791E-08  0.339E-04    1.62      38.7  T
     SCC iter.                  ...        0 min,  0.107 sec
     gradient                   ...        0 min,  0.011 sec
 * total energy  :   -94.9770250 Eh     change       -0.3531482E-04 Eh
   gradient norm :     0.0017681 Eh/α   predicted    -0.2210287E-04 ( -37.41%)
   displ. norm   :     0.3250884 α      lambda       -0.6693660E-04
   maximum displ.:     0.2163147 α      in ANC's #4, #2, #1, ...

........................................................................
.............................. CYCLE   35 ..............................
........................................................................

 iter      E             dE          RMSdq      gap      omega  full diag
   1    -96.6417202 -0.966417E+02  0.893E-02    1.62       0.0  T
   2    -96.6417221 -0.193071E-05  0.522E-02    1.62       1.0  T
   3    -96.6417189  0.321109E-05  0.779E-03    1.62       1.7  T
   4    -96.6417230 -0.408486E-05  0.198E-03    1.62       6.6  T
   5    -96.6417230 -0.458564E-07  0.105E-03    1.62      12.6  T
   6    -96.6417230 -0.419901E-07  0.368E-04    1.62      35.6  T
   7    -96.6417231 -0.349738E-08  0.189E-04    1.62      69.6  T
     SCC iter.                  ...        0 min,  0.100 sec
     gradient                   ...        0 min,  0.009 sec
 * total energy  :   -94.9770770 Eh     change       -0.5199277E-04 Eh
   gradient norm :     0.0031606 Eh/α   predicted    -0.3504064E-04 ( -32.60%)
   displ. norm   :     0.1150371 α      lambda       -0.2878836E-04
   maximum displ.:     0.0805299 α      in ANC's #4, #2, #1, ...

........................................................................
.............................. CYCLE   36 ..............................
........................................................................

 iter      E             dE          RMSdq      gap      omega  full diag
   1    -96.6416857 -0.966417E+02  0.319E-02    1.62       0.0  T
   2    -96.6416858 -0.174153E-06  0.186E-02    1.62       1.0  T
   3    -96.6416857  0.120906E-06  0.168E-03    1.62       7.8  T
   4    -96.6416859 -0.188869E-06  0.531E-04    1.62      24.7  T
   5    -96.6416859 -0.426623E-08  0.271E-04    1.62      48.4  T
     SCC iter.                  ...        0 min,  0.121 sec
     gradient                   ...        0 min,  0.009 sec
 * total energy  :   -94.9771013 Eh     change       -0.2434460E-04 Eh
   gradient norm :     0.0023988 Eh/α   predicted    -0.1458550E-04 ( -40.09%)
   displ. norm   :     0.3431010 α      lambda       -0.8972079E-04
   maximum displ.:     0.2455153 α      in ANC's #4, #2, #3, ...

........................................................................
.............................. CYCLE   37 ..............................
........................................................................

 iter      E             dE          RMSdq      gap      omega  full diag
   1    -96.6417225 -0.966417E+02  0.923E-02    1.62       0.0  T
   2    -96.6417241 -0.162053E-05  0.539E-02    1.62       1.0  T
   3    -96.6417230  0.117349E-05  0.521E-03    1.62       2.5  T
   4    -96.6417247 -0.174331E-05  0.168E-03    1.62       7.8  T
   5    -96.6417248 -0.681051E-07  0.818E-04    1.62      16.0  T
   6    -96.6417248 -0.114250E-07  0.360E-04    1.62      36.5  T
     SCC iter.                  ...        0 min,  0.153 sec
     gradient                   ...        0 min,  0.010 sec
 * total energy  :   -94.9771624 Eh     change       -0.6106996E-04 Eh
   gradient norm :     0.0021608 Eh/α   predicted    -0.5014319E-04 ( -17.89%)
   displ. norm   :     0.2630333 α      lambda       -0.4510814E-04
   maximum displ.:     0.1907309 α      in ANC's #4, #2, #3, ...

........................................................................
.............................. CYCLE   38 ..............................
........................................................................

 iter      E             dE          RMSdq      gap      omega  full diag
   1    -96.6416135 -0.966416E+02  0.678E-02    1.62       0.0  T
   2    -96.6416145 -0.955270E-06  0.396E-02    1.62       1.0  T
   3    -96.6416142  0.307543E-06  0.354E-03    1.62       3.7  T
   4    -96.6416148 -0.593932E-06  0.134E-03    1.62       9.8  T
   5    -96.6416148 -0.441231E-07  0.689E-04    1.62      19.1  T
   6    -96.6416148 -0.126333E-07  0.279E-04    1.62      47.0  T
     SCC iter.                  ...        0 min,  0.122 sec
     gradient                   ...        0 min,  0.012 sec
 * total energy  :   -94.9771873 Eh     change       -0.2497349E-04 Eh
   gradient norm :     0.0027563 Eh/α   predicted    -0.2411967E-04 (  -3.42%)
   displ. norm   :     0.1263969 α      lambda       -0.2538499E-04
   maximum displ.:     0.0836743 α      in ANC's #4, #3, #10, ...

........................................................................
.............................. CYCLE   39 ..............................
........................................................................

 iter      E             dE          RMSdq      gap      omega  full diag
   1    -96.6428279 -0.966428E+02  0.270E-02    1.62       0.0  T
   2    -96.6428282 -0.285516E-06  0.158E-02    1.62       1.0  T
   3    -96.6428276  0.627159E-06  0.322E-03    1.62       4.1  T
   4    -96.6428283 -0.752786E-06  0.693E-04    1.62      18.9  T
   5    -96.6428283 -0.957938E-08  0.384E-04    1.62      34.2  T
     SCC iter.                  ...        0 min,  0.083 sec
     gradient                   ...        0 min,  0.009 sec
 * total energy  :   -94.9771995 Eh     change       -0.1213799E-04 Eh
   gradient norm :     0.0019804 Eh/α   predicted    -0.1289602E-04 (   6.25%)
   displ. norm   :     0.3174072 α      lambda       -0.1968735E-04
   maximum displ.:     0.2311702 α      in ANC's #4, #2, #1, ...

........................................................................
.............................. CYCLE   40 ..............................
........................................................................

 iter      E             dE          RMSdq      gap      omega  full diag
   1    -96.6382211 -0.966382E+02  0.916E-02    1.62       0.0  T
   2    -96.6382228 -0.170836E-05  0.537E-02    1.62       1.0  T
   3    -96.6382215  0.131858E-05  0.594E-03    1.62       2.2  T
   4    -96.6382234 -0.187887E-05  0.144E-03    1.62       9.1  T
   5    -96.6382234 -0.290654E-07  0.770E-04    1.62      17.0  T
   6    -96.6382234 -0.126795E-07  0.312E-04    1.62      42.1  T
     SCC iter.                  ...        0 min,  0.090 sec
     gradient                   ...        0 min,  0.009 sec
 * total energy  :   -94.9771903 Eh     change        0.9175688E-05 Eh
   gradient norm :     0.0038470 Eh/α   predicted    -0.1028489E-04 (-212.09%)
   displ. norm   :     0.1194427 α      lambda       -0.4037171E-04
   maximum displ.:     0.0756126 α      in ANC's #2, #4, #5, ...

........................................................................
.............................. CYCLE   41 ..............................
........................................................................

 iter      E             dE          RMSdq      gap      omega  full diag
   1    -96.6412040 -0.966412E+02  0.353E-02    1.62       0.0  T
   2    -96.6412045 -0.458663E-06  0.207E-02    1.62       1.0  T
   3    -96.6412041  0.370586E-06  0.300E-03    1.62       4.4  T
   4    -96.6412046 -0.487801E-06  0.686E-04    1.62      19.1  T
   5    -96.6412046 -0.112800E-07  0.376E-04    1.62      34.9  T
     SCC iter.                  ...        0 min,  0.071 sec
     gradient                   ...        0 min,  0.011 sec
 * total energy  :   -94.9772130 Eh     change       -0.2273455E-04 Eh
   gradient norm :     0.0021951 Eh/α   predicted    -0.2047400E-04 (  -9.94%)
   displ. norm   :     0.0624900 α      lambda       -0.1782134E-04
   maximum displ.:     0.0417327 α      in ANC's #2, #4, #5, ...

........................................................................
.............................. CYCLE   42 ..............................
........................................................................

 iter      E             dE          RMSdq      gap      omega  full diag
   1    -96.6425575 -0.966426E+02  0.191E-02    1.62       0.0  T
   2    -96.6425577 -0.257510E-06  0.112E-02    1.62       1.2  T
   3    -96.6425576  0.154032E-06  0.180E-03    1.62       7.3  T
   4    -96.6425577 -0.183992E-06  0.606E-04    1.62      21.7  T
   5    -96.6425578 -0.196617E-07  0.228E-04    1.62      57.5  T
     SCC iter.                  ...        0 min,  0.093 sec
     gradient                   ...        0 min,  0.011 sec
 * total energy  :   -94.9772180 Eh     change       -0.4955504E-05 Eh
   gradient norm :     0.0019529 Eh/α   predicted    -0.8949784E-05 (  80.60%)
   displ. norm   :     0.0407295 α      lambda       -0.8549898E-05
   maximum displ.:     0.0272717 α      in ANC's #4, #3, #1, ...
 * RMSD in coord.:     0.6317451 α      energy gain  -0.1520083E-02 Eh

generating ANC from model Hessian ...
Using Lindh-Hessian (1995)
 Shifting diagonal of input Hessian by    9.8909915184217656E-003
 Lowest  eigenvalues of input Hessian
    0.000000    0.000000    0.000000    0.000000    0.000000    0.000000
    0.010000    0.010298    0.010373    0.010715    0.011011    0.011082
    0.011121    0.011734    0.012208    0.013049    0.014251    0.014779
 Highest eigenvalues
    2.108097    2.119182    2.130866    2.158590    2.294252    2.529556


........................................................................
.............................. CYCLE   43 ..............................
........................................................................

 iter      E             dE          RMSdq      gap      omega  full diag
   1    -96.6426262 -0.966426E+02  0.111E-02    1.62       0.0  T
   2    -96.6426263 -0.593009E-07  0.658E-03    1.62       2.0  T
   3    -96.6426261  0.151658E-06  0.160E-03    1.62       8.2  T
   4    -96.6426263 -0.173321E-06  0.309E-04    1.62      42.5  T
   5    -96.6426263 -0.350119E-08  0.162E-04    1.62      81.3  T
     SCC iter.                  ...        0 min,  0.069 sec
     gradient                   ...        0 min,  0.011 sec
 * total energy  :   -94.9772246 Eh     change       -0.6572849E-05 Eh
   gradient norm :     0.0012013 Eh/α   predicted     0.0000000E+00 (-100.00%)
   displ. norm   :     0.0246363 α      lambda       -0.5243836E-05
   maximum displ.:     0.0146477 α      in ANC's #2, #6, #4, ...

........................................................................
.............................. CYCLE   44 ..............................
........................................................................

 iter      E             dE          RMSdq      gap      omega  full diag
   1    -96.6420671 -0.966421E+02  0.740E-03    1.62       0.0  T
   2    -96.6420671 -0.153125E-07  0.436E-03    1.62       3.0  T
   3    -96.6420671  0.320792E-07  0.807E-04    1.62      16.3  T
   4    -96.6420671 -0.381805E-07  0.143E-04    1.62      92.0  T
     SCC iter.                  ...        0 min,  0.076 sec
     gradient                   ...        0 min,  0.013 sec
 * total energy  :   -94.9772302 Eh     change       -0.5647563E-05 Eh
   gradient norm :     0.0003551 Eh/α   predicted    -0.2686395E-05 ( -52.43%)
   displ. norm   :     0.0545831 α      lambda       -0.6191747E-05
   maximum displ.:     0.0308877 α      in ANC's #2, #6, #4, ...

........................................................................
.............................. CYCLE   45 ..............................
........................................................................

 iter      E             dE          RMSdq      gap      omega  full diag
   1    -96.6417713 -0.966418E+02  0.141E-02    1.62       0.0  T
   2    -96.6417714 -0.409836E-07  0.827E-03    1.62       1.6  T
   3    -96.6417712  0.179139E-06  0.171E-03    1.62       7.7  T
   4    -96.6417714 -0.204976E-06  0.251E-04    1.62      52.4  T
   5    -96.6417714 -0.253428E-08  0.128E-04    1.62     102.3  T
     SCC iter.                  ...        0 min,  0.079 sec
     gradient                   ...        0 min,  0.008 sec
 * total energy  :   -94.9772380 Eh     change       -0.7783827E-05 Eh
   gradient norm :     0.0010753 Eh/α   predicted    -0.3106408E-05 ( -60.09%)
   displ. norm   :     0.1067102 α      lambda       -0.1026675E-04
   maximum displ.:     0.0590646 α      in ANC's #2, #6, #4, ...

........................................................................
.............................. CYCLE   46 ..............................
........................................................................

 iter      E             dE          RMSdq      gap      omega  full diag
   1    -96.6417558 -0.966418E+02  0.272E-02    1.62       0.0  T
   2    -96.6417559 -0.134301E-06  0.160E-02    1.62       1.0  T
   3    -96.6417554  0.518273E-06  0.289E-03    1.62       4.5  T
   4    -96.6417560 -0.597157E-06  0.425E-04    1.62      30.9  T
   5    -96.6417560 -0.667332E-08  0.225E-04    1.62      58.4  T
     SCC iter.                  ...        0 min,  0.074 sec
     gradient                   ...        0 min,  0.009 sec
 * total energy  :   -94.9772510 Eh     change       -0.1298034E-04 Eh
   gradient norm :     0.0013481 Eh/α   predicted    -0.5195557E-05 ( -59.97%)
   displ. norm   :     0.1619046 α      lambda       -0.1309029E-04
   maximum displ.:     0.0895716 α      in ANC's #2, #6, #4, ...

........................................................................
.............................. CYCLE   47 ..............................
........................................................................

 iter      E             dE          RMSdq      gap      omega  full diag
   1    -96.6418102 -0.966418E+02  0.405E-02    1.62       0.0  T
   2    -96.6418105 -0.273354E-06  0.238E-02    1.62       1.0  T
   3    -96.6418097  0.776651E-06  0.359E-03    1.62       3.7  T
   4    -96.6418106 -0.911273E-06  0.585E-04    1.62      22.4  T
   5    -96.6418106 -0.106916E-07  0.324E-04    1.62      40.6  T
     SCC iter.                  ...        0 min,  0.099 sec
     gradient                   ...        0 min,  0.010 sec
 * total energy  :   -94.9772660 Eh     change       -0.1503745E-04 Eh
   gradient norm :     0.0010820 Eh/α   predicted    -0.6621564E-05 ( -55.97%)
   displ. norm   :     0.1524277 α      lambda       -0.8853457E-05
   maximum displ.:     0.0856388 α      in ANC's #2, #4, #6, ...

........................................................................
.............................. CYCLE   48 ..............................
........................................................................

 iter      E             dE          RMSdq      gap      omega  full diag
   1    -96.6420752 -0.966421E+02  0.377E-02    1.62       0.0  T
   2    -96.6420754 -0.209304E-06  0.221E-02    1.62       1.0  T
   3    -96.6420750  0.469731E-06  0.278E-03    1.62       4.7  T
   4    -96.6420755 -0.558804E-06  0.483E-04    1.62      27.2  T
   5    -96.6420755 -0.736192E-08  0.268E-04    1.62      49.0  T
     SCC iter.                  ...        0 min,  0.086 sec
     gradient                   ...        0 min,  0.008 sec
 * total energy  :   -94.9772755 Eh     change       -0.9527277E-05 Eh
   gradient norm :     0.0005984 Eh/α   predicted    -0.4475093E-05 ( -53.03%)
   displ. norm   :     0.0949511 α      lambda       -0.4195299E-05
   maximum displ.:     0.0547065 α      in ANC's #2, #4, #6, ...

........................................................................
.............................. CYCLE   49 ..............................
........................................................................

 iter      E             dE          RMSdq      gap      omega  full diag
   1    -96.6422644 -0.966423E+02  0.234E-02    1.62       0.0  T
   2    -96.6422645 -0.813358E-07  0.137E-02    1.62       1.0  T
   3    -96.6422643  0.116854E-06  0.142E-03    1.62       9.2  T
   4    -96.6422645 -0.142418E-06  0.304E-04    1.62      43.2  T
   5    -96.6422645 -0.327630E-08  0.161E-04    1.62      81.6  T
     SCC iter.                  ...        0 min,  0.074 sec
     gradient                   ...        0 min,  0.010 sec
 * total energy  :   -94.9772804 Eh     change       -0.4810941E-05 Eh
   gradient norm :     0.0002939 Eh/α   predicted    -0.2114084E-05 ( -56.06%)
   displ. norm   :     0.0729689 α      lambda       -0.3335073E-05
   maximum displ.:     0.0421529 α      in ANC's #2, #4, #7, ...

   *** GEOMETRY OPTIMIZATION CONVERGED AFTER 49 ITERATIONS ***

------------------------------------------------------------------------
 total energy gain   :        -0.6254880 Eh     -392.4996 kcal/mol
 total RMSD          :         1.2676351 a0        0.6708 Å
 total power (kW/mol):       -33.5146622 (step) -220.5625 (real)
------------------------------------------------------------------------

 ANCopt (total)                0 d,  0 h,  0 min,  7.446 sec
 optimizer setup                ...        0 min,  0.000 sec (  0.005%)
 model hessian                  ...        0 min,  0.022 sec (  0.297%)
 ANC generation                 ...        0 min,  0.021 sec (  0.286%)
 coordinate transformation      ...        0 min,  0.001 sec (  0.009%)
 single point calculation       ...        0 min,  7.383 sec ( 99.153%)
 optimization log               ...        0 min,  0.007 sec (  0.096%)
 hessian update                 ...        0 min,  0.003 sec (  0.034%)
 rational function              ...        0 min,  0.007 sec (  0.097%)

================
 final structure:
================
 xtb: 6.6.1 (8d0f1dd)
          11142413583D

 58 64  0     0  0            999 V2000
    2.3755    3.4014   -0.3602 C   0  0  0  0  0  0  0  0  0  0  0  0
    2.3820    1.9674   -0.2848 C   0  0  0  0  0  0  0  0  0  0  0  0
    1.2184    4.2066   -0.0877 C   0  0  0  0  0  0  0  0  0  0  0  0
    3.5680    4.0493   -0.7245 C   0  0  0  0  0  0  0  0  0  0  0  0
    3.6232    1.2797   -0.2485 C   0  0  0  0  0  0  0  0  0  0  0  0
    1.2098    5.5600   -0.5123 C   0  0  0  0  0  0  0  0  0  0  0  0
    4.7899    3.3272   -0.7377 C   0  0  0  0  0  0  0  0  0  0  0  0
    3.5463    5.4232   -1.0808 C   0  0  0  0  0  0  0  0  0  0  0  0
    4.8270    2.0061   -0.4321 C   0  0  0  0  0  0  0  0  0  0  0  0
    2.3906    6.1310   -1.0552 C   0  0  0  0  0  0  0  0  0  0  0  0
    1.2123    1.1965   -0.3500 C   0  0  0  0  0  0  0  0  0  0  0  0
    0.1217    3.7556    0.6721 C   0  0  0  0  0  0  0  0  0  0  0  0
    3.6346   -0.1203   -0.1018 C   0  0  0  0  0  0  0  0  0  0  0  0
    0.0536    6.3382   -0.3280 C   0  0  0  0  0  0  0  0  0  0  0  0
    1.2444   -0.1774   -0.2248 C   0  0  0  0  0  0  0  0  0  0  0  0
   -0.9812    4.5467    0.8694 C   0  0  0  0  0  0  0  0  0  0  0  0
    2.4725   -0.8392   -0.0589 C   0  0  0  0  0  0  0  0  0  0  0  0
   -1.0385    5.8330    0.3261 C   0  0  0  0  0  0  0  0  0  0  0  0
    5.6976    3.8661   -0.9694 H   0  0  0  0  0  0  0  0  0  0  0  0
    4.4696    5.8814   -1.4056 H   0  0  0  0  0  0  0  0  0  0  0  0
    5.7655    1.4728   -0.3836 H   0  0  0  0  0  0  0  0  0  0  0  0
    2.3603    7.1585   -1.3884 H   0  0  0  0  0  0  0  0  0  0  0  0
    0.2646    1.6612   -0.5636 H   0  0  0  0  0  0  0  0  0  0  0  0
    0.1744    2.7948    1.1593 H   0  0  0  0  0  0  0  0  0  0  0  0
    4.5893   -0.6237   -0.0457 H   0  0  0  0  0  0  0  0  0  0  0  0
    0.0536    7.3569   -0.6893 H   0  0  0  0  0  0  0  0  0  0  0  0
   -0.0101   -0.9306   -0.2671 C   0  0  0  0  0  0  0  0  0  0  0  0
   -1.8057    4.1816    1.4646 H   0  0  0  0  0  0  0  0  0  0  0  0
    2.4770   -1.9114    0.0532 H   0  0  0  0  0  0  0  0  0  0  0  0
   -1.9228    6.4376    0.4650 H   0  0  0  0  0  0  0  0  0  0  0  0
   -1.1266   -0.2275   -0.3179 N   0  0  0  0  0  0  0  0  0  0  0  0
   -2.2943   -0.9059   -0.3007 N   0  0  0  0  0  0  0  0  0  0  0  0
   -2.3573   -2.2888   -0.1696 C   0  0  0  0  0  0  0  0  0  0  0  0
   -1.1202   -2.9175   -0.2628 N   0  0  0  0  0  0  0  0  0  0  0  0
    0.0545   -2.2483   -0.2649 N   0  0  0  0  0  0  0  0  0  0  0  0
   -3.3860   -2.8916    0.0319 O   0  0  0  0  0  0  0  0  0  0  0  0
   -3.4423   -0.0922   -0.3320 C   0  0  0  0  0  0  0  0  0  0  0  0
   -3.3088    1.2425    0.0540 C   0  0  0  0  0  0  0  0  0  0  0  0
   -4.3980    2.0878    0.0084 C   0  0  0  0  0  0  0  0  0  0  0  0
   -5.6302    1.6183   -0.4183 C   0  0  0  0  0  0  0  0  0  0  0  0
   -5.7599    0.2959   -0.8086 C   0  0  0  0  0  0  0  0  0  0  0  0
   -4.6762   -0.5620   -0.7752 C   0  0  0  0  0  0  0  0  0  0  0  0
   -1.0012   -4.3201   -0.2619 C   0  0  0  0  0  0  0  0  0  0  0  0
   -1.9806   -5.1420   -0.8124 C   0  0  0  0  0  0  0  0  0  0  0  0
   -1.7992   -6.5124   -0.8093 C   0  0  0  0  0  0  0  0  0  0  0  0
   -0.6511   -7.0731   -0.2750 C   0  0  0  0  0  0  0  0  0  0  0  0
    0.3290   -6.2517    0.2592 C   0  0  0  0  0  0  0  0  0  0  0  0
    0.1597   -4.8822    0.2674 C   0  0  0  0  0  0  0  0  0  0  0  0
   -2.3458    1.5961    0.3846 H   0  0  0  0  0  0  0  0  0  0  0  0
   -4.2853    3.1186    0.3096 H   0  0  0  0  0  0  0  0  0  0  0  0
   -6.4831    2.2793   -0.4487 H   0  0  0  0  0  0  0  0  0  0  0  0
   -6.7143   -0.0752   -1.1507 H   0  0  0  0  0  0  0  0  0  0  0  0
   -4.7940   -1.5854   -1.0874 H   0  0  0  0  0  0  0  0  0  0  0  0
    0.9116   -4.2300    0.6817 H   0  0  0  0  0  0  0  0  0  0  0  0
    1.2279   -6.6808    0.6764 H   0  0  0  0  0  0  0  0  0  0  0  0
   -0.5195   -8.1446   -0.2768 H   0  0  0  0  0  0  0  0  0  0  0  0
   -2.5619   -7.1463   -1.2361 H   0  0  0  0  0  0  0  0  0  0  0  0
   -2.8752   -4.7193   -1.2376 H   0  0  0  0  0  0  0  0  0  0  0  0
  1  2  1  0  0  0  0
  1  3  1  0  0  0  0
  1  4  2  0  0  0  0
  2  5  1  0  0  0  0
  2 11  2  0  0  0  0
  3  6  1  0  0  0  0
  3 12  2  0  0  0  0
  4  7  1  0  0  0  0
  4  8  1  0  0  0  0
  5  9  1  0  0  0  0
  5 13  2  0  0  0  0
  6 10  1  0  0  0  0
  6 14  2  0  0  0  0
  7  9  2  0  0  0  0
  7 19  1  0  0  0  0
  8 10  2  0  0  0  0
  8 20  1  0  0  0  0
  9 21  1  0  0  0  0
 10 22  1  0  0  0  0
 11 15  1  0  0  0  0
 11 23  1  0  0  0  0
 12 16  1  0  0  0  0
 12 24  1  0  0  0  0
 13 17  1  0  0  0  0
 13 25  1  0  0  0  0
 14 18  1  0  0  0  0
 14 26  1  0  0  0  0
 15 17  2  0  0  0  0
 15 27  1  0  0  0  0
 16 18  2  0  0  0  0
 16 28  1  0  0  0  0
 17 29  1  0  0  0  0
 18 30  1  0  0  0  0
 27 31  2  0  0  0  0
 31 32  1  0  0  0  0
 32 37  1  0  0  0  0
 32 33  1  0  0  0  0
 33 34  1  0  0  0  0
 33 36  2  0  0  0  0
 34 43  1  0  0  0  0
 34 35  1  0  0  0  0
 35 27  1  0  0  0  0
 37 38  2  0  0  0  0
 37 42  1  0  0  0  0
 38 39  1  0  0  0  0
 38 49  1  0  0  0  0
 39 40  2  0  0  0  0
 39 50  1  0  0  0  0
 40 41  1  0  0  0  0
 40 51  1  0  0  0  0
 41 42  2  0  0  0  0
 41 52  1  0  0  0  0
 42 53  1  0  0  0  0
 43 44  2  0  0  0  0
 43 48  1  0  0  0  0
 44 45  1  0  0  0  0
 44 58  1  0  0  0  0
 45 46  2  0  0  0  0
 45 57  1  0  0  0  0
 46 47  1  0  0  0  0
 46 56  1  0  0  0  0
 47 48  2  0  0  0  0
 47 55  1  0  0  0  0
 48 54  1  0  0  0  0
M  END

 Bond Distances (Angstroems)
 ---------------------------
C1-C2=1.4361         C1-C3=1.4358         C1-C4=1.4052         C2-C1=1.4361         C2-C5=1.4194         C2-C11=1.4024        
C3-C1=1.4358         C3-C6=1.4185         C3-C12=1.4083        C4-C1=1.4052         C4-C7=1.4194         C4-C8=1.4195         
C5-C2=1.4194         C5-C9=1.4179         C5-C13=1.4077        C6-C3=1.4185         C6-C10=1.4195        C6-C14=1.4059        
C7-C4=1.4194         C7-C9=1.3565         C7-H19=1.0808        C8-C4=1.4195         C8-C10=1.3554        C8-H20=1.0807        
C9-C5=1.4179         C9-C7=1.3565         C9-H21=1.0805        C10-C6=1.4195        C10-C8=1.3554        C10-H22=1.0806       
C11-C2=1.4024        C11-C15=1.3800       C11-H23=1.0769       C12-C3=1.4083        C12-C16=1.3716       C12-H24=1.0786       
C13-C5=1.4077        C13-C17=1.3672       C13-H25=1.0808       C14-C6=1.4059        C14-C18=1.3696       C14-H26=1.0809       
C15-C11=1.3800       C15-C17=1.4048       C15-C27=1.4639       C16-C12=1.3716       C16-C18=1.3975       C16-H28=1.0805       
C17-C13=1.3672       C17-C15=1.4048       C17-H29=1.0780       C18-C14=1.3696       C18-C16=1.3975       C18-H30=1.0801       
H19-C7=1.0808        H20-C8=1.0807        H21-C9=1.0805        H22-C10=1.0806       H23-C11=1.0769       H24-C12=1.0786       
H25-C13=1.0808       H26-C14=1.0809       C27-C15=1.4639       C27-N31=1.3204       C27-N35=1.3193       H28-C16=1.0805       
H29-C17=1.0780       H30-C18=1.0801       N31-C27=1.3204       N31-N32=1.3506       N32-N31=1.3506       N32-C33=1.3905       
N32-C37=1.4075       C33-N32=1.3905       C33-N34=1.3908       C33-O36=1.2092       N34-C33=1.3908       N34-N35=1.3519       
N34-C43=1.4076       N35-C27=1.3193       N35-N34=1.3519       O36-C33=1.2092       C37-N32=1.4075       C37-C38=1.3958       
C37-C42=1.3927       C38-C37=1.3958       C38-C39=1.3794       C38-H49=1.0778       C39-C38=1.3794       C39-C40=1.3860       
C39-H50=1.0798       C40-C39=1.3860       C40-C41=1.3848       C40-H51=1.0795       C41-C40=1.3848       C41-C42=1.3826       
C41-H52=1.0796       C42-C37=1.3927       C42-C41=1.3826       C42-H53=1.0764       C43-N34=1.4076       C43-C44=1.3921       
C43-C48=1.3942       C44-C43=1.3921       C44-C45=1.3824       C44-H58=1.0769       C45-C44=1.3824       C45-C46=1.3850       
C45-H57=1.0796       C46-C45=1.3850       C46-C47=1.3859       C46-H56=1.0795       C47-C46=1.3859       C47-C48=1.3799       
C47-H55=1.0798       C48-C43=1.3942       C48-C47=1.3799       C48-H54=1.0781       H49-C38=1.0778       H50-C39=1.0798       
H51-C40=1.0795       H52-C41=1.0796       H53-C42=1.0764       H54-C48=1.0781       H55-C47=1.0798       H56-C46=1.0795       
H57-C45=1.0796       H58-C44=1.0769       
 C  H  Rav=1.0793 sigma=0.0014  Rmin=1.0764  Rmax=1.0809    21
 C  C  Rav=1.3977 sigma=0.0233  Rmin=1.3554  Rmax=1.4639    34
 N  C  Rav=1.3727 sigma=0.0380  Rmin=1.3193  Rmax=1.4076     6
 N  N  Rav=1.3512 sigma=0.0007  Rmin=1.3506  Rmax=1.3519     2
 O  C  Rav=1.2092 sigma=0.0000  Rmin=1.2092  Rmax=1.2092     1

 selected bond angles (degree)
 --------------------
C3-C1-C2=123.62                C4-C1-C2=118.05                C4-C1-C3=118.33                C5-C2-C1=119.28                
C11-C2-C1=122.87               C11-C2-C5=117.66               C6-C3-C1=118.89                C12-C3-C1=123.40               
C12-C3-C6=117.54               C7-C4-C1=119.90                C8-C4-C1=119.89                C8-C4-C7=120.21                
C9-C5-C2=119.40                C13-C5-C2=119.44               C13-C5-C9=121.07               C10-C6-C3=119.55               
C14-C6-C3=119.59               C14-C6-C10=120.77              C9-C7-C4=121.13                H19-C7-C4=118.12               
H19-C7-C9=120.73               C10-C8-C4=120.91               H20-C8-C4=118.21               H20-C8-C10=120.85              
[...]
        92                         -0.2357658              -6.4155
        93                         -0.2304724              -6.2715
       ...                                ...                  ...
       169                          0.7129917              19.4015
      -------------------------------------------------------------
                  HL-Gap            0.0595470 Eh            1.6204 eV
             Fermi-level           -0.3287649 Eh           -8.9461 eV

 SCC (total)                   0 d,  0 h,  0 min,  0.079 sec
 SCC setup                      ...        0 min,  0.000 sec (  0.180%)
 Dispersion                     ...        0 min,  0.000 sec (  0.396%)
 classical contributions        ...        0 min,  0.000 sec (  0.112%)
 integral evaluation            ...        0 min,  0.002 sec (  2.453%)
 iterations                     ...        0 min,  0.066 sec ( 84.280%)
 molecular gradient             ...        0 min,  0.009 sec ( 11.208%)
 printout                       ...        0 min,  0.001 sec (  1.360%)

         :::::::::::::::::::::::::::::::::::::::::::::::::::::
         ::                     SUMMARY                     ::
         :::::::::::::::::::::::::::::::::::::::::::::::::::::
         :: total energy             -94.977280358671 Eh    ::
         :: gradient norm              0.000293665074 Eh/a0 ::
         :: HOMO-LUMO gap              1.620355088205 eV    ::
         ::.................................................::
         :: SCC energy               -96.642264485937 Eh    ::
         :: -> isotropic ES            0.051702655632 Eh    ::
         :: -> anisotropic ES          0.004106484500 Eh    ::
         :: -> anisotropic XC          0.058782690155 Eh    ::
         :: -> dispersion             -0.079037005147 Eh    ::
         :: repulsion energy           1.665571165520 Eh    ::
         :: add. restraining           0.000000000000 Eh    ::
         :: total charge               0.000000000074 e     ::
         :::::::::::::::::::::::::::::::::::::::::::::::::::::

           -------------------------------------------------
          |                Property Printout                |
           -------------------------------------------------

    * Orbital Energies and Occupations

         #    Occupation            Energy/Eh            Energy/eV
      -------------------------------------------------------------
         1        2.0000           -0.7294288             -19.8488
       ...           ...                  ...                  ...
        76        2.0000           -0.4233826             -11.5208
        77        2.0000           -0.4146169             -11.2823
        78        2.0000           -0.4134516             -11.2506
        79        2.0000           -0.4128658             -11.2346
        80        2.0000           -0.4119279             -11.2091
        81        2.0000           -0.4110131             -11.1842
        82        2.0000           -0.4084526             -11.1146
        83        2.0000           -0.4053564             -11.0303
        84        2.0000           -0.3953049             -10.7568
        85        2.0000           -0.3792930             -10.3211
        86        2.0000           -0.3752689             -10.2116
        87        2.0000           -0.3719459             -10.1212
        88        1.0000           -0.3342298              -9.0949 (HOMO)
        89                         -0.2746828              -7.4745 (LUMO)
        90                         -0.2652256              -7.2172
        91                         -0.2496767              -6.7940
        92                         -0.2357658              -6.4155
        93                         -0.2304724              -6.2715
        94                         -0.2298350              -6.2541
        95                         -0.2262728              -6.1572
        96                         -0.2222438              -6.0476
        97                         -0.2054011              -5.5892
        98                         -0.1840161              -5.0073
        99                         -0.1786767              -4.8620
       ...                                ...                  ...
       169                          0.7129917              19.4015
      -------------------------------------------------------------
                  HL-Gap            0.0595470 Eh            1.6204 eV
             Fermi-level           -0.3287649 Eh           -8.9461 eV

     #   Z          covCN         q      C6AA      α(0)
     1   6 C        2.979     0.002    27.979     8.677
     2   6 C        2.981     0.010    27.781     8.646
     3   6 C        2.981     0.009    27.808     8.650
     4   6 C        2.986     0.011    27.765     8.643
     5   6 C        2.988     0.013    27.711     8.635
     6   6 C        2.989     0.012    27.736     8.639
     7   6 C        2.917    -0.035    28.876     8.812
     8   6 C        2.917    -0.037    28.914     8.818
     9   6 C        2.915    -0.037    28.910     8.817
    10   6 C        2.915    -0.036    28.907     8.817
    11   6 C        2.927    -0.037    28.921     8.819
    12   6 C        2.919    -0.036    28.891     8.814
    13   6 C        2.921    -0.035    28.875     8.812
    14   6 C        2.922    -0.035    28.880     8.813
    15   6 C        2.985    -0.001    28.050     8.688
    16   6 C        2.917    -0.031    28.779     8.797
    17   6 C        2.918    -0.031    28.775     8.797
    18   6 C        2.916    -0.030    28.752     8.793
    19   1 H        0.926     0.033     2.539     2.492
    20   1 H        0.926     0.032     2.558     2.501
    21   1 H        0.926     0.033     2.542     2.493
    22   1 H        0.926     0.032     2.559     2.502
    23   1 H        0.926     0.063     2.169     2.303
    24   1 H        0.926     0.041     2.442     2.444
    25   1 H        0.926     0.036     2.501     2.473
    26   1 H        0.926     0.031     2.572     2.508
    27   6 C        2.874     0.162    24.498     8.114
    28   1 H        0.926     0.030     2.593     2.518
    29   1 H        0.926     0.050     2.322     2.383
    30   1 H        0.926     0.029     2.596     2.519
    31   7 N        1.930    -0.248    27.303     7.748
    32   7 N        2.845     0.033    20.667     6.752
    33   6 C        2.702     0.304    21.833     7.648
    34   7 N        2.848     0.031    20.702     6.758
    35   7 N        1.926    -0.245    27.226     7.737
    36   8 O        0.858    -0.436    22.403     6.346
    37   6 C        2.929     0.066    26.532     8.447
    38   6 C        2.924    -0.037    28.909     8.817
    39   6 C        2.920    -0.026    28.662     8.779
    40   6 C        2.919    -0.030    28.749     8.793
    41   6 C        2.921    -0.026    28.657     8.779
    42   6 C        2.919    -0.038    28.938     8.821
    43   6 C        2.930     0.067    26.507     8.443
    44   6 C        2.919    -0.035    28.873     8.812
    45   6 C        2.921    -0.026    28.645     8.777
    46   6 C        2.919    -0.030    28.739     8.791
    47   6 C        2.920    -0.026    28.663     8.780
    48   6 C        2.924    -0.035    28.866     8.811
    49   1 H        0.926     0.061     2.184     2.311
    50   1 H        0.926     0.040     2.453     2.449
    51   1 H        0.926     0.038     2.469     2.457
    52   1 H        0.926     0.042     2.423     2.434
    53   1 H        0.926     0.065     2.138     2.286
    54   1 H        0.926     0.059     2.214     2.327
    55   1 H        0.926     0.041     2.438     2.442
    56   1 H        0.926     0.039     2.459     2.452
    57   1 H        0.926     0.042     2.416     2.431
    58   1 H        0.926     0.061     2.184     2.311

 Mol. C6AA /au·bohr⁶  :      51217.892765
 Mol. C8AA /au·bohr⁸  :    1294419.562660
 Mol. α(0) /au        :        364.472809


Wiberg/Mayer (AO) data.
largest (>0.10) Wiberg bond orders for each atom

 ---------------------------------------------------------------------------
     #   Z sym  total        # sym  WBO       # sym  WBO       # sym  WBO
 ---------------------------------------------------------------------------
     1   6 C    3.985 --     4 C    1.337     3 C    1.196     2 C    1.191
     2   6 C    3.988 --    11 C    1.330     5 C    1.261     1 C    1.191
     3   6 C    3.989 --    12 C    1.311     6 C    1.270     1 C    1.196
     4   6 C    3.990 --     1 C    1.337     7 C    1.231     8 C    1.229
     5   6 C    3.981 --    13 C    1.297     2 C    1.261     9 C    1.234
     6   6 C    3.985 --    14 C    1.306     3 C    1.270    10 C    1.227
     7   6 C    3.978 --     9 C    1.613     4 C    1.231    19 H    0.967
     8   6 C    3.987 --    10 C    1.620     4 C    1.229    20 H    0.967
     9   6 C    3.983 --     7 C    1.613     5 C    1.234    21 H    0.967
    10   6 C    3.984 --     8 C    1.620     6 C    1.227    22 H    0.967
    11   6 C    3.982 --    15 C    1.452     2 C    1.330    23 H    0.955
                            13 C    0.103
    12   6 C    3.991 --    16 C    1.522     3 C    1.311    24 H    0.961
                            14 C    0.112
    13   6 C    3.985 --    17 C    1.544     5 C    1.297    25 H    0.967
                            11 C    0.103
    14   6 C    3.986 --    18 C    1.527     6 C    1.306    26 H    0.968
                            12 C    0.112
    15   6 C    3.980 --    11 C    1.452    17 C    1.299    27 C    1.045
    16   6 C    3.987 --    12 C    1.522    18 C    1.347    28 H    0.970
    17   6 C    3.976 --    13 C    1.544    15 C    1.299    29 H    0.966
    18   6 C    3.981 --    14 C    1.527    16 C    1.347    30 H    0.971
    19   1 H    0.998 --     7 C    0.967
    20   1 H    0.998 --     8 C    0.967
    21   1 H    0.997 --     9 C    0.967
    22   1 H    0.998 --    10 C    0.967
    23   1 H    0.996 --    11 C    0.955
    24   1 H    0.998 --    12 C    0.961
    25   1 H    0.998 --    13 C    0.967
    26   1 H    0.999 --    14 C    0.968
    27   6 C    3.966 --    35 N    1.386    31 N    1.381    15 C    1.045
    28   1 H    0.999 --    16 C    0.970
    29   1 H    0.997 --    17 C    0.966
    30   1 H    0.998 --    18 C    0.971
    31   7 N    2.906 --    27 C    1.381    32 N    1.159    35 N    0.125
    32   7 N    3.623 --    31 N    1.159    33 C    1.090    37 C    1.045
                            36 O    0.123
    33   6 C    3.960 --    36 O    1.642    34 N    1.091    32 N    1.090
    34   7 N    3.618 --    35 N    1.157    33 C    1.091    43 C    1.040
                            36 O    0.125
    35   7 N    2.905 --    27 C    1.386    34 N    1.157    31 N    0.125
    36   8 O    2.005 --    33 C    1.642    34 N    0.125    32 N    0.123
    37   6 C    3.952 --    42 C    1.368    38 C    1.358    32 N    1.045
    38   6 C    3.984 --    39 C    1.463    37 C    1.358    49 H    0.962
                            41 C    0.106
    39   6 C    3.991 --    38 C    1.463    40 C    1.424    50 H    0.970
                            42 C    0.104
    40   6 C    3.974 --    41 C    1.432    39 C    1.424    51 H    0.971
    41   6 C    3.990 --    42 C    1.452    40 C    1.432    52 H    0.970
                            38 C    0.106
    42   6 C    3.984 --    41 C    1.452    37 C    1.368    53 H    0.963
                            39 C    0.104
    43   6 C    3.953 --    44 C    1.370    48 C    1.363    34 N    1.040
    44   6 C    3.984 --    45 C    1.452    43 C    1.370    58 H    0.965
                            47 C    0.105
    45   6 C    3.990 --    44 C    1.452    46 C    1.432    57 H    0.970
                            48 C    0.106
    46   6 C    3.975 --    45 C    1.432    47 C    1.426    56 H    0.971
    47   6 C    3.991 --    48 C    1.461    46 C    1.426    55 H    0.970
                            44 C    0.105
    48   6 C    3.984 --    47 C    1.461    43 C    1.363    54 H    0.964
                            45 C    0.106
    49   1 H    0.996 --    38 C    0.962
    50   1 H    0.998 --    39 C    0.970
    51   1 H    0.998 --    40 C    0.971
    52   1 H    0.998 --    41 C    0.970
    53   1 H    0.996 --    42 C    0.963
    54   1 H    0.996 --    48 C    0.964
    55   1 H    0.998 --    47 C    0.970
    56   1 H    0.998 --    46 C    0.971
    57   1 H    0.997 --    45 C    0.970
    58   1 H    0.996 --    44 C    0.965
 ---------------------------------------------------------------------------

Topologies differ in bond orders
Writing corrected topology to xtbtopo.mol

molecular dipole:
                 x           y           z       tot (Debye)
 q only:        0.570       0.482      -0.210
   full:        0.481       0.420      -0.216       1.713
molecular quadrupole (traceless):
                xx          xy          yy          xz          yz          zz
 q only:       -0.397      -9.487      10.320       3.502       1.495      -9.924
  q+dip:        4.478      -9.526      15.421       4.600       0.258     -19.899
   full:       -0.559      -8.284       9.361       3.827       1.434      -8.802

           -------------------------------------------------
          |                Geometry Summary                 |
           -------------------------------------------------

      molecular mass/u    :      477.5365223
   center of mass at/Å    :       -0.2049593       0.3757977      -0.2724378
  moments of inertia/u·Å² :        0.3208080E+04   0.7418475E+04   0.1044247E+05
rotational constants/cm⁻¹ :        0.5254742E-02   0.2272385E-02   0.1614333E-02

 * 61 selected distances

     #   Z          #   Z                                           value/Å
     1   6 C        4   6 C                                       1.4051853
     2   6 C        5   6 C                                       1.4194152
     3   6 C        6   6 C                                       1.4185390
     4   6 C        7   6 C                                       1.4193982
     4   6 C        8   6 C                                       1.4195084 (max)
     5   6 C        9   6 C                                       1.4179162
     7   6 C        9   6 C                                       1.3564914
     6   6 C       10   6 C                                       1.4194789
     8   6 C       10   6 C                                       1.3554471
     2   6 C       11   6 C                                       1.4024170
     3   6 C       12   6 C                                       1.4082895
     5   6 C       13   6 C                                       1.4076554
     6   6 C       14   6 C                                       1.4058606
    11   6 C       15   6 C                                       1.3799877
    12   6 C       16   6 C                                       1.3715598
    13   6 C       17   6 C                                       1.3671521
    15   6 C       17   6 C                                       1.4048356
    14   6 C       18   6 C                                       1.3695597
    16   6 C       18   6 C                                       1.3975123
     7   6 C       19   1 H                                       1.0807676
     8   6 C       20   1 H                                       1.0807147
     9   6 C       21   1 H                                       1.0805149
    10   6 C       22   1 H                                       1.0806154
    11   6 C       23   1 H                                       1.0769010
    12   6 C       24   1 H                                       1.0785999
    13   6 C       25   1 H                                       1.0808027
    14   6 C       26   1 H                                       1.0808794
    16   6 C       28   1 H                                       1.0804579
    17   6 C       29   1 H                                       1.0780336
    18   6 C       30   1 H                                       1.0801094
    27   6 C       31   7 N                                       1.3203957
    31   7 N       32   7 N                                       1.3505625
    32   7 N       33   6 C                                       1.3904776
    33   6 C       34   7 N                                       1.3908014
    27   6 C       35   7 N                                       1.3192916
    34   7 N       35   7 N                                       1.3519036
Note: The following floating-point exceptions are signalling: IEEE_UNDERFLOW_FLAG
normal termination of xtb
    33   6 C       36   8 O                                       1.2092317
    32   7 N       37   6 C                                       1.4074802
    37   6 C       38   6 C                                       1.3957864
    38   6 C       39   6 C                                       1.3794386
    39   6 C       40   6 C                                       1.3860158
    40   6 C       41   6 C                                       1.3847998
    37   6 C       42   6 C                                       1.3927008
    41   6 C       42   6 C                                       1.3825658
    34   7 N       43   6 C                                       1.4076166
    43   6 C       44   6 C                                       1.3921453
    44   6 C       45   6 C                                       1.3823631
    45   6 C       46   6 C                                       1.3849585
    46   6 C       47   6 C                                       1.3859309
    43   6 C       48   6 C                                       1.3941968
    47   6 C       48   6 C                                       1.3799043
    38   6 C       49   1 H                                       1.0778147
    39   6 C       50   1 H                                       1.0797961
    40   6 C       51   1 H                                       1.0795286
    41   6 C       52   1 H                                       1.0796317
    42   6 C       53   1 H                                       1.0764264 (min)
    48   6 C       54   1 H                                       1.0781263
    47   6 C       55   1 H                                       1.0798463
    46   6 C       56   1 H                                       1.0795222
    45   6 C       57   1 H                                       1.0796150
    44   6 C       58   1 H                                       1.0768533

 * 5 distinct bonds (by element types)

   Z      Z             #   av. dist./Å        max./Å        min./Å
   1 H    6 C          21     1.0793122     1.0808794     1.0764264
   6 C    6 C          31     1.3931295     1.4195084     1.3554471
   6 C    7 N           6     1.3726772     1.4076166     1.3192916
   7 N    7 N           2     1.3512331     1.3519036     1.3505625
   6 C    8 O           1     1.2092317     1.2092317     1.2092317


optimized geometry written to: xtbopt.mol


           -------------------------------------------------
          | TOTAL ENERGY              -94.977280358671 Eh   |
          | GRADIENT NORM               0.000293665074 Eh/α |
          | HOMO-LUMO GAP               1.620355088205 eV   |
           -------------------------------------------------

------------------------------------------------------------------------
 * finished run on 2024/11/14 at 13:58:44.844     
------------------------------------------------------------------------
 total:
 * wall-time:     0 d,  0 h,  0 min,  8.052 sec
 *  cpu-time:     0 d,  0 h,  0 min, 25.816 sec
 * ratio c/w:     3.206 speedup
 SCF:
 * wall-time:     0 d,  0 h,  0 min,  0.505 sec
 *  cpu-time:     0 d,  0 h,  0 min,  1.857 sec
 * ratio c/w:     3.674 speedup
 ANC optimizer:
 * wall-time:     0 d,  0 h,  0 min,  7.528 sec
 *  cpu-time:     0 d,  0 h,  0 min, 23.945 sec
 * ratio c/w:     3.181 speedup

