      -----------------------------------------------------------      
     |                   =====================                   |     
     |                           x T B                           |     
     |                   =====================                   |     
     |                         S. Grimme                         |     
     |          Mulliken Center for Theoretical Chemistry        |     
     |                    University of Bonn                     |     
      -----------------------------------------------------------      

   * xtb version 6.6.1 (8d0f1dd) compiled by 'runner@Mac-1690902418499.local' on 2023-08-01

   xtb is free software: you can redistribute it and/or modify it under
   the terms of the GNU Lesser General Public License as published by
   the Free Software Foundation, either version 3 of the License, or
   (at your option) any later version.
   
   xtb is distributed in the hope that it will be useful,
   but WITHOUT ANY WARRANTY; without even the implied warranty of
   MERCHANTABILITY or FITNESS FOR A PARTICULAR PURPOSE.  See the
   GNU Lesser General Public License for more details.
   
   Cite this work as:
   * C. Bannwarth, E. Caldeweyher, S. Ehlert, A. Hansen, P. Pracht,
     J. Seibert, S. Spicher, S. Grimme, WIREs Comput. Mol. Sci., 2020, 11,
     e01493. DOI: 10.1002/wcms.1493
   
   for GFN2-xTB:
   * C. Bannwarth, S. Ehlert and S. Grimme., J. Chem. Theory Comput., 2019,
     15, 1652-1671. DOI: 10.1021/acs.jctc.8b01176
   for GFN1-xTB:
   * S. Grimme, C. Bannwarth, P. Shushkov, J. Chem. Theory Comput., 2017,
     13, 1989-2009. DOI: 10.1021/acs.jctc.7b00118
   for GFN0-xTB:
   * P. Pracht, E. Caldeweyher, S. Ehlert, S. Grimme, ChemRxiv, 2019, preprint.
     DOI: 10.26434/chemrxiv.8326202.v1
   for GFN-FF:
   * S. Spicher and S. Grimme, Angew. Chem. Int. Ed., 2020, 59, 15665-15673.
     DOI: 10.1002/anie.202004239
   
   for ALPB and GBSA implicit solvation:
   * S. Ehlert, M. Stahn, S. Spicher, S. Grimme, J. Chem. Theory Comput.,
     2021, 17, 4250-4261. DOI: 10.1021/acs.jctc.1c00471
   
   for DFT-D4:
   * E. Caldeweyher, C. Bannwarth and S. Grimme, J. Chem. Phys., 2017,
     147, 034112. DOI: 10.1063/1.4993215
   * E. Caldeweyher, S. Ehlert, A. Hansen, H. Neugebauer, S. Spicher,
     C. Bannwarth and S. Grimme, J. Chem. Phys., 2019, 150, 154122.
     DOI: 10.1063/1.5090222
   * E. Caldeweyher, J.-M. Mewes, S. Ehlert and S. Grimme, Phys. Chem. Chem. Phys.
     2020, 22, 8499-8512. DOI: 10.1039/D0CP00502A
   
   for sTDA-xTB:
   * S. Grimme and C. Bannwarth, J. Chem. Phys., 2016, 145, 054103.
     DOI: 10.1063/1.4959605
   
   in the mass-spec context:
   * V. Asgeirsson, C. Bauer and S. Grimme, Chem. Sci., 2017, 8, 4879.
     DOI: 10.1039/c7sc00601b
   * J. Koopman and S. Grimme, ACS Omega 2019, 4, 12, 15120-15133.
     DOI: 10.1021/acsomega.9b02011
   
   for metadynamics refer to:
   * S. Grimme, J. Chem. Theory Comput., 2019, 155, 2847-2862
     DOI: 10.1021/acs.jctc.9b00143
   
   for SPH calculations refer to:
   * S. Spicher and S. Grimme, J. Chem. Theory Comput., 2021, 17, 1701-1714
     DOI: 10.1021/acs.jctc.0c01306
   
   with help from (in alphabetical order)
   P. Atkinson, C. Bannwarth, F. Bohle, G. Brandenburg, E. Caldeweyher
   M. Checinski, S. Dohm, S. Ehlert, S. Ehrlich, I. Gerasimov, C. Hölzer
   A. Katbashev, J. Koopman, C. Lavigne, S. Lehtola, F. März, M. Müller,
   F. Musil, H. Neugebauer, J. Pisarek, C. Plett, P. Pracht, F. Pultar,
   J. Seibert, P. Shushkov, S. Spicher, M. Stahn, M. Steiner, T. Strunk,
   J. Stückrath, T. Rose, and J. Unsleber
   
 * started run on 2024/11/14 at 14:01:49.198     

           -------------------------------------------------
          |                Calculation Setup                |
           -------------------------------------------------

          program call               : xtb stacked_dimer_Verdazyl1.mol --opt --gfn2 --chrg 0 --uhf 2 --tight
          coordinate file            : stacked_dimer_Verdazyl1.mol
          omp threads                :                     8

   ID    Z sym.   atoms
    1    6 C      1-18, 27, 33, 37-48, 59-76, 85, 91, 95-106
    2    1 H      19-26, 28-30, 49-58, 77-84, 86-88, 107-116
    3    7 N      31, 32, 34, 35, 89, 90, 92, 93
    4    8 O      36, 94

molecular fragmentation (1/2 indicates fragments):
111111111111111111111111111111111111111111111111111111111122222222222222
22222222222222222222222222222222222222222222
# atoms in fragment 1/2:    58    58
 fragment masses (1/2) :      477.54      477.54
CMA distance (Bohr)    :   7.559
constraining FC (au)   :  0.0500
########################################################################
[WARNING] Please study the warnings concerning your input carefully
-1- prog_main_parseArguments: Unknown option '--tight' provided
########################################################################

           -------------------------------------------------
          |                 G F N 2 - x T B                 |
           -------------------------------------------------

        Reference                      10.1021/acs.jctc.8b01176
      * Hamiltonian:
        H0-scaling (s, p, d)           1.850000    2.230000    2.230000
        zeta-weighting                 0.500000
      * Dispersion:
        s8                             2.700000
        a1                             0.520000
        a2                             5.000000
        s9                             5.000000
      * Repulsion:
        kExp                           1.500000    1.000000
        rExp                           1.000000
      * Coulomb:
        alpha                          2.000000
        third order                    shell-resolved
        anisotropic                    true
        a3                             3.000000
        a5                             4.000000
        cn-shift                       1.200000
        cn-exp                         4.000000
        max-rad                        5.000000


          ...................................................
          :                      SETUP                      :
          :.................................................:
          :  # basis functions                 338          :
          :  # atomic orbitals                 338          :
          :  # shells                          190          :
          :  # electrons                       350          :
          :  max. iterations                   250          :
          :  Hamiltonian                  GFN2-xTB          :
          :  restarted?                      false          :
          :  GBSA solvation                  false          :
          :  PC potential                    false          :
          :  electronic temp.          300.0000000     K    :
          :  accuracy                    1.0000000          :
          :  -> integral cutoff          0.2500000E+02      :
          :  -> integral neglect         0.1000000E-07      :
          :  -> SCF convergence          0.1000000E-05 Eh   :
          :  -> wf. convergence          0.1000000E-03 e    :
          :  Broyden damping             0.4000000          :
          ...................................................

 iter      E             dE          RMSdq      gap      omega  full diag
   1   -193.0754766 -0.193075E+03  0.449E+00    0.39       0.0  T
   2   -193.2974509 -0.221974E+00  0.280E+00    1.68       1.0  T
   3   -193.2635053  0.339456E-01  0.119E+00    1.28       1.0  T
   4   -193.3188464 -0.553411E-01  0.383E-01    1.67       1.0  T
   5   -193.3327879 -0.139415E-01  0.147E-01    1.60       1.0  T
   6   -193.3350532 -0.226531E-02  0.680E-02    1.61       1.0  T
   7   -193.3355690 -0.515817E-03  0.227E-02    1.59       1.0  T
   8   -193.3355799 -0.108836E-04  0.115E-02    1.59       1.0  T
   9   -193.3355847 -0.480076E-05  0.359E-03    1.59       2.6  T
  10   -193.3355859 -0.116460E-05  0.148E-03    1.59       6.3  T
  11   -193.3355860 -0.113370E-06  0.609E-04    1.59      15.2  T
  12   -193.3355860 -0.546194E-08  0.338E-04    1.59      27.5  T

   *** convergence criteria satisfied after 12 iterations ***

         #    Occupation            Energy/Eh            Energy/eV
      -------------------------------------------------------------
         1        2.0000           -0.7305612             -19.8796
       ...           ...                  ...                  ...
       170        2.0000           -0.3778325             -10.2813
       171        2.0000           -0.3749583             -10.2031
       172        2.0000           -0.3738144             -10.1720
       173        2.0000           -0.3711817             -10.1004
       174        2.0000           -0.3696831             -10.0596
       175        1.0000           -0.3340333              -9.0895
       176        1.0000           -0.3323266              -9.0431 (HOMO)
       177                         -0.2738698              -7.4524 (LUMO)
       178                         -0.2729002              -7.4260
       179                         -0.2639664              -7.1829
       180                         -0.2636925              -7.1754
       181                         -0.2494801              -6.7887
       ...                                ...                  ...
       338                          0.7150832              19.4584
      -------------------------------------------------------------
                  HL-Gap            0.0584569 Eh            1.5907 eV
             Fermi-level           -0.3275895 Eh           -8.9142 eV

 transition dipole moment (au) for excitation:         175         176
     X       Y       Z   
   0.0053   0.0048   1.7703  total (au/Debye):    1.770   4.500
 dE (eV)             :    0.046
 oscillator strength :  0.50427E-02

 SCC (total)                   0 d,  0 h,  0 min,  0.855 sec
 SCC setup                      ...        0 min,  0.002 sec (  0.179%)
 Dispersion                     ...        0 min,  0.002 sec (  0.280%)
 classical contributions        ...        0 min,  0.001 sec (  0.081%)
 integral evaluation            ...        0 min,  0.010 sec (  1.209%)
 iterations                     ...        0 min,  0.699 sec ( 81.746%)
 molecular gradient             ...        0 min,  0.071 sec (  8.279%)
 printout                       ...        0 min,  0.070 sec (  8.224%)

         :::::::::::::::::::::::::::::::::::::::::::::::::::::
         ::                     SUMMARY                     ::
         :::::::::::::::::::::::::::::::::::::::::::::::::::::
         :: total energy            -189.991483395190 Eh    ::
         :: gradient norm              0.006612362665 Eh/a0 ::
         :: HOMO-LUMO gap              1.590692124587 eV    ::
         ::.................................................::
         :: SCC energy              -193.335585986261 Eh    ::
         :: -> isotropic ES            0.104424911641 Eh    ::
         :: -> anisotropic ES          0.008300804379 Eh    ::
         :: -> anisotropic XC          0.117427009307 Eh    ::
         :: -> dispersion             -0.197737535179 Eh    ::
         :: repulsion energy           3.331070674161 Eh    ::
         :: add. restraining           0.000000000000 Eh    ::
         :: total charge               0.000000000409 e     ::
         :::::::::::::::::::::::::::::::::::::::::::::::::::::

      ----------------------------------------------------------- 
     |                   =====================                   |
     |                        A N C O P T                        |
     |                   =====================                   |
     |               Approximate Normal Coordinate               |
     |                Rational Function Optimizer                |
      ----------------------------------------------------------- 

          ...................................................
          :                      SETUP                      :
          :.................................................:
          :   optimization level            normal          :
          :   max. optcycles                   348          :
          :   ANC micro-cycles                  20          :
          :   degrees of freedom               342          :
          :.................................................:
          :   RF solver                   davidson          :
          :   write xtbopt.log                true          :
          :   linear?                        false          :
          :   energy convergence         0.5000000E-05 Eh   :
          :   grad. convergence          0.1000000E-02 Eh/α :
          :   maxmium RF displ.          1.0000000          :
          :   Hlow (freq-cutoff)         0.1000000E-01      :
          :   Hmax (freq-cutoff)         5.0000000          :
          :   S6 in model hess.         20.0000000          :
          ...................................................

generating ANC from model Hessian ...
Using Lindh-Hessian (1995)
 Shifting diagonal of input Hessian by    1.0006933023975413E-002
 Lowest  eigenvalues of input Hessian
    0.010000    0.000000    0.000000    0.000000    0.000000    0.000000
    0.000000    0.010031    0.010075    0.010206    0.010399    0.010468
    0.010491    0.010631    0.010683    0.010692    0.010871    0.010972
 Highest eigenvalues
    2.157223    2.157241    2.293142    2.293156    2.530889    2.530908


........................................................................
.............................. CYCLE    1 ..............................
........................................................................

 iter      E             dE          RMSdq      gap      omega  full diag
   1   -193.3355860 -0.193336E+03  0.139E-04    1.59       0.0  T
   2   -193.3355860 -0.289447E-09  0.102E-04    1.59      90.9  T
   3   -193.3355860 -0.917709E-09  0.544E-05    1.59     170.7  T
     SCC iter.                  ...        0 min,  0.194 sec
     gradient                   ...        0 min,  0.040 sec
 * total energy  :  -189.9914834 Eh     change       -0.7652091E-08 Eh
   gradient norm :     0.0066142 Eh/α   predicted     0.0000000E+00 (-100.00%)
   displ. norm   :     0.2920015 α      lambda       -0.1182094E-02
   maximum displ.:     0.1694613 α      in ANC's #10, #14, #12, ...

........................................................................
.............................. CYCLE    2 ..............................
........................................................................

 iter      E             dE          RMSdq      gap      omega  full diag
   1   -193.3396136 -0.193340E+03  0.327E-02    1.59       0.0  T
   2   -193.3396161 -0.256149E-05  0.192E-02    1.59       1.0  T
   3   -193.3396144  0.173727E-05  0.449E-03    1.59       2.1  T
   4   -193.3396164 -0.199551E-05  0.128E-03    1.59       7.3  T
   5   -193.3396166 -0.188387E-06  0.391E-04    1.59      23.7  T
   6   -193.3396166 -0.555156E-08  0.232E-04    1.59      40.0  T
     SCC iter.                  ...        0 min,  0.469 sec
     gradient                   ...        0 min,  0.041 sec
 * total energy  :  -189.9926077 Eh     change       -0.1124269E-02 Eh
   gradient norm :     0.0044022 Eh/α   predicted    -0.6417525E-03 ( -42.92%)
   displ. norm   :     0.8060976 α      lambda       -0.2947017E-02
   maximum displ.:     0.4360218 α      in ANC's #10, #14, #12, ...

........................................................................
.............................. CYCLE    3 ..............................
........................................................................

 iter      E             dE          RMSdq      gap      omega  full diag
   1   -193.3458060 -0.193346E+03  0.753E-02    1.58       0.0  T
   2   -193.3458201 -0.140754E-04  0.438E-02    1.57       1.0  T
   3   -193.3458084  0.117229E-04  0.114E-02    1.58       1.0  T
   4   -193.3458222 -0.137990E-04  0.280E-03    1.58       3.3  T
   5   -193.3458231 -0.905044E-06  0.901E-04    1.58      10.3  T
   6   -193.3458231 -0.259909E-07  0.511E-04    1.58      18.2  T
     SCC iter.                  ...        0 min,  0.511 sec
     gradient                   ...        0 min,  0.058 sec
 * total energy  :  -189.9953372 Eh     change       -0.2729526E-02 Eh
   gradient norm :     0.0052064 Eh/α   predicted    -0.2430985E-02 ( -10.94%)
   displ. norm   :     0.8859758 α      lambda       -0.2894652E-02
   maximum displ.:     0.4945070 α      in ANC's #10, #14, #12, ...

........................................................................
.............................. CYCLE    4 ..............................
........................................................................

 iter      E             dE          RMSdq      gap      omega  full diag
   1   -193.3495604 -0.193350E+03  0.659E-02    1.57       0.0  T
   2   -193.3495715 -0.110911E-04  0.382E-02    1.56       1.0  T
   3   -193.3495593  0.121674E-04  0.113E-02    1.57       1.0  T
   4   -193.3495737 -0.144233E-04  0.247E-03    1.56       3.8  T
   5   -193.3495744 -0.679648E-06  0.975E-04    1.56       9.5  T
   6   -193.3495745 -0.572675E-07  0.566E-04    1.56      16.4  T
     SCC iter.                  ...        0 min,  0.307 sec
     gradient                   ...        0 min,  0.044 sec
 * total energy  :  -189.9980618 Eh     change       -0.2724559E-02 Eh
   gradient norm :     0.0067875 Eh/α   predicted    -0.2583418E-02 (  -5.18%)
   displ. norm   :     0.8689642 α      lambda       -0.2690586E-02
   maximum displ.:     0.4985317 α      in ANC's #10, #14, #12, ...

........................................................................
.............................. CYCLE    5 ..............................
........................................................................

 iter      E             dE          RMSdq      gap      omega  full diag
   1   -193.3528572 -0.193353E+03  0.551E-02    1.55       0.0  T
   2   -193.3528646 -0.741463E-05  0.320E-02    1.54       1.0  T
   3   -193.3528553  0.928461E-05  0.983E-03    1.55       1.0  T
   4   -193.3528664 -0.111158E-04  0.191E-03    1.55       4.9  T
   5   -193.3528668 -0.373725E-06  0.883E-04    1.55      10.5  T
   6   -193.3528669 -0.702352E-07  0.468E-04    1.54      19.8  T
     SCC iter.                  ...        0 min,  0.696 sec
     gradient                   ...        0 min,  0.042 sec
 * total energy  :  -190.0005703 Eh     change       -0.2508566E-02 Eh
   gradient norm :     0.0064717 Eh/α   predicted    -0.2361121E-02 (  -5.88%)
   displ. norm   :     0.8280606 α      lambda       -0.2383948E-02
   maximum displ.:     0.4923558 α      in ANC's #10, #14, #12, ...

........................................................................
.............................. CYCLE    6 ..............................
........................................................................

 iter      E             dE          RMSdq      gap      omega  full diag
   1   -193.3557602 -0.193356E+03  0.514E-02    1.53       0.0  T
   2   -193.3557651 -0.488419E-05  0.300E-02    1.52       1.0  T
   3   -193.3557569  0.812638E-05  0.893E-03    1.52       1.0  T
   4   -193.3557667 -0.976578E-05  0.135E-03    1.52       6.9  T
   5   -193.3557668 -0.141509E-06  0.724E-04    1.52      12.8  T
   6   -193.3557669 -0.463399E-07  0.383E-04    1.52      24.2  T
     SCC iter.                  ...        0 min,  0.434 sec
     gradient                   ...        0 min,  0.042 sec
 * total energy  :  -190.0027149 Eh     change       -0.2144550E-02 Eh
   gradient norm :     0.0052966 Eh/α   predicted    -0.2009301E-02 (  -6.31%)
   displ. norm   :     0.7689594 α      lambda       -0.1876576E-02
   maximum displ.:     0.4767611 α      in ANC's #10, #14, #15, ...

........................................................................
.............................. CYCLE    7 ..............................
........................................................................

 iter      E             dE          RMSdq      gap      omega  full diag
   1   -193.3575256 -0.193358E+03  0.506E-02    1.50       0.0  T
   2   -193.3575290 -0.338089E-05  0.297E-02    1.50       1.0  T
   3   -193.3575212  0.772519E-05  0.849E-03    1.50       1.1  T
   4   -193.3575304 -0.919854E-05  0.110E-03    1.50       8.5  T
   5   -193.3575305 -0.669155E-07  0.663E-04    1.50      14.0  T
   6   -193.3575305 -0.378733E-07  0.334E-04    1.50      27.8  T
     SCC iter.                  ...        0 min,  0.604 sec
     gradient                   ...        0 min,  0.043 sec
 * total energy  :  -190.0043167 Eh     change       -0.1601849E-02 Eh
   gradient norm :     0.0039567 Eh/α   predicted    -0.1493130E-02 (  -6.79%)
   displ. norm   :     0.6608502 α      lambda       -0.1233806E-02
   maximum displ.:     0.4260802 α      in ANC's #10, #15, #14, ...

........................................................................
.............................. CYCLE    8 ..............................
........................................................................

 iter      E             dE          RMSdq      gap      omega  full diag
   1   -193.3585196 -0.193359E+03  0.479E-02    1.47       0.0  T
   2   -193.3585222 -0.256326E-05  0.281E-02    1.47       1.0  T
   3   -193.3585157  0.649477E-05  0.768E-03    1.47       1.2  T
   4   -193.3585234 -0.770003E-05  0.974E-04    1.47       9.5  T
   5   -193.3585234 -0.448285E-07  0.587E-04    1.47      15.8  T
   6   -193.3585235 -0.259527E-07  0.291E-04    1.47      31.9  T
     SCC iter.                  ...        0 min,  0.478 sec
     gradient                   ...        0 min,  0.047 sec
 * total energy  :  -190.0053077 Eh     change       -0.9909653E-03 Eh
   gradient norm :     0.0031607 Eh/α   predicted    -0.8863207E-03 ( -10.56%)
   displ. norm   :     0.4976250 α      lambda       -0.6760394E-03
   maximum displ.:     0.3307752 α      in ANC's #10, #15, #6, ...

........................................................................
.............................. CYCLE    9 ..............................
........................................................................

 iter      E             dE          RMSdq      gap      omega  full diag
   1   -193.3593333 -0.193359E+03  0.445E-02    1.46       0.0  T
   2   -193.3593348 -0.151238E-05  0.261E-02    1.45       1.0  T
   3   -193.3593303  0.448311E-05  0.613E-03    1.45       1.5  T
   4   -193.3593355 -0.525090E-05  0.820E-04    1.45      11.3  T
   5   -193.3593356 -0.325627E-07  0.484E-04    1.45      19.2  T
   6   -193.3593356 -0.153253E-07  0.229E-04    1.45      40.6  T
     SCC iter.                  ...        0 min,  0.440 sec
     gradient                   ...        0 min,  0.044 sec
 * total energy  :  -190.0058338 Eh     change       -0.5261246E-03 Eh
   gradient norm :     0.0028206 Eh/α   predicted    -0.4217696E-03 ( -19.83%)
   displ. norm   :     0.3755056 α      lambda       -0.4117980E-03
   maximum displ.:     0.2444209 α      in ANC's #10, #6, #7, ...

........................................................................
.............................. CYCLE   10 ..............................
........................................................................

 iter      E             dE          RMSdq      gap      omega  full diag
   1   -193.3599361 -0.193360E+03  0.455E-02    1.45       0.0  T
   2   -193.3599370 -0.891812E-06  0.268E-02    1.44       1.0  T
   3   -193.3599340  0.295363E-05  0.472E-03    1.44       2.0  T
   4   -193.3599375 -0.343271E-05  0.734E-04    1.44      12.6  T
   5   -193.3599375 -0.298899E-07  0.427E-04    1.44      21.7  T
   6   -193.3599375 -0.963269E-08  0.209E-04    1.44      44.4  T
     SCC iter.                  ...        0 min,  0.358 sec
     gradient                   ...        0 min,  0.044 sec
 * total energy  :  -190.0061623 Eh     change       -0.3285088E-03 Eh
   gradient norm :     0.0026332 Eh/α   predicted    -0.2349318E-03 ( -28.49%)
   displ. norm   :     0.3840677 α      lambda       -0.3700776E-03
   maximum displ.:     0.2232257 α      in ANC's #10, #6, #1, ...

........................................................................
.............................. CYCLE   11 ..............................
........................................................................

 iter      E             dE          RMSdq      gap      omega  full diag
   1   -193.3599062 -0.193360E+03  0.567E-02    1.44       0.0  T
   2   -193.3599072 -0.963085E-06  0.333E-02    1.44       1.0  T
   3   -193.3599045  0.270863E-05  0.447E-03    1.44       2.1  T
   4   -193.3599077 -0.317748E-05  0.854E-04    1.44      10.9  T
   5   -193.3599077 -0.511345E-07  0.476E-04    1.44      19.5  T
   6   -193.3599077 -0.793864E-08  0.260E-04    1.44      35.7  T
     SCC iter.                  ...        0 min,  0.378 sec
     gradient                   ...        0 min,  0.045 sec
 * total energy  :  -190.0064500 Eh     change       -0.2877235E-03 Eh
   gradient norm :     0.0026000 Eh/α   predicted    -0.2123343E-03 ( -26.20%)
   displ. norm   :     0.3935346 α      lambda       -0.3054462E-03
   maximum displ.:     0.1938073 α      in ANC's #10, #1, #2, ...

........................................................................
.............................. CYCLE   12 ..............................
........................................................................

 iter      E             dE          RMSdq      gap      omega  full diag
   1   -193.3592940 -0.193359E+03  0.625E-02    1.44       0.0  T
   2   -193.3592950 -0.979619E-06  0.367E-02    1.44       1.0  T
   3   -193.3592930  0.202025E-05  0.400E-03    1.44       2.3  T
   4   -193.3592954 -0.242821E-05  0.937E-04    1.44       9.9  T
   5   -193.3592955 -0.688808E-07  0.511E-04    1.44      18.2  T
   6   -193.3592955 -0.887985E-08  0.276E-04    1.44      33.7  T
     SCC iter.                  ...        0 min,  0.415 sec
     gradient                   ...        0 min,  0.044 sec
 * total energy  :  -190.0066794 Eh     change       -0.2293687E-03 Eh
   gradient norm :     0.0026405 Eh/α   predicted    -0.1763758E-03 ( -23.10%)
   displ. norm   :     0.3559052 α      lambda       -0.2297359E-03
   maximum displ.:     0.1392422 α      in ANC's #10, #2, #1, ...

........................................................................
.............................. CYCLE   13 ..............................
........................................................................

 iter      E             dE          RMSdq      gap      omega  full diag
   1   -193.3589776 -0.193359E+03  0.576E-02    1.44       0.0  T
   2   -193.3589785 -0.925076E-06  0.338E-02    1.44       1.0  T
   3   -193.3589770  0.153057E-05  0.360E-03    1.44       2.6  T
   4   -193.3589789 -0.186829E-05  0.956E-04    1.44       9.7  T
   5   -193.3589789 -0.730363E-07  0.522E-04    1.44      17.8  T
   6   -193.3589790 -0.126383E-07  0.257E-04    1.44      36.2  T
     SCC iter.                  ...        0 min,  0.327 sec
     gradient                   ...        0 min,  0.042 sec
 * total energy  :  -190.0068599 Eh     change       -0.1804677E-03 Eh
   gradient norm :     0.0026727 Eh/α   predicted    -0.1294210E-03 ( -28.29%)
   displ. norm   :     0.3794165 α      lambda       -0.2372620E-03
   maximum displ.:     0.1562488 α      in ANC's #2, #1, #6, ...

........................................................................
.............................. CYCLE   14 ..............................
........................................................................

 iter      E             dE          RMSdq      gap      omega  full diag
   1   -193.3589946 -0.193359E+03  0.613E-02    1.45       0.0  T
   2   -193.3589961 -0.144449E-05  0.359E-02    1.45       1.0  T
   3   -193.3589932  0.290277E-05  0.473E-03    1.45       2.0  T
   4   -193.3589966 -0.346221E-05  0.118E-03    1.45       7.9  T
   5   -193.3589967 -0.104551E-06  0.645E-04    1.45      14.4  T
   6   -193.3589968 -0.223033E-07  0.315E-04    1.45      29.4  T
     SCC iter.                  ...        0 min,  0.327 sec
     gradient                   ...        0 min,  0.045 sec
 * total energy  :  -190.0070522 Eh     change       -0.1923560E-03 Eh
   gradient norm :     0.0029032 Eh/α   predicted    -0.1357091E-03 ( -29.45%)
   displ. norm   :     0.4341947 α      lambda       -0.2650289E-03
   maximum displ.:     0.1896142 α      in ANC's #2, #1, #6, ...

........................................................................
.............................. CYCLE   15 ..............................
........................................................................

 iter      E             dE          RMSdq      gap      omega  full diag
   1   -193.3589158 -0.193359E+03  0.687E-02    1.45       0.0  T
   2   -193.3589181 -0.229615E-05  0.403E-02    1.45       1.0  T
   3   -193.3589122  0.585452E-05  0.646E-03    1.45       1.4  T
   4   -193.3589191 -0.688121E-05  0.147E-03    1.45       6.3  T
   5   -193.3589192 -0.149771E-06  0.786E-04    1.45      11.8  T
   6   -193.3589193 -0.329084E-07  0.374E-04    1.45      24.8  T
     SCC iter.                  ...        0 min,  0.675 sec
     gradient                   ...        0 min,  0.050 sec
 * total energy  :  -190.0072678 Eh     change       -0.2155809E-03 Eh
   gradient norm :     0.0030895 Eh/α   predicted    -0.1574971E-03 ( -26.94%)
   displ. norm   :     0.4625872 α      lambda       -0.2666355E-03
   maximum displ.:     0.2135290 α      in ANC's #2, #1, #6, ...

........................................................................
.............................. CYCLE   16 ..............................
........................................................................

 iter      E             dE          RMSdq      gap      omega  full diag
   1   -193.3589809 -0.193359E+03  0.696E-02    1.45       0.0  T
   2   -193.3589837 -0.275916E-05  0.409E-02    1.45       1.0  T
   3   -193.3589752  0.846324E-05  0.770E-03    1.45       1.2  T
   4   -193.3589851 -0.985120E-05  0.158E-03    1.45       5.9  T
   5   -193.3589853 -0.174628E-06  0.842E-04    1.45      11.0  T
   6   -193.3589853 -0.368784E-07  0.355E-04    1.45      26.1  T
     SCC iter.                  ...        0 min,  0.328 sec
     gradient                   ...        0 min,  0.042 sec
 * total energy  :  -190.0074829 Eh     change       -0.2150947E-03 Eh
   gradient norm :     0.0027645 Eh/α   predicted    -0.1618514E-03 ( -24.75%)
   displ. norm   :     0.4578162 α      lambda       -0.2374716E-03
   maximum displ.:     0.2217385 α      in ANC's #2, #1, #6, ...

........................................................................
.............................. CYCLE   17 ..............................
........................................................................

 iter      E             dE          RMSdq      gap      omega  full diag
   1   -193.3597072 -0.193360E+03  0.633E-02    1.44       0.0  T
   2   -193.3597103 -0.306562E-05  0.373E-02    1.45       1.0  T
   3   -193.3596991  0.111727E-04  0.884E-03    1.44       1.1  T
   4   -193.3597118 -0.127086E-04  0.167E-03    1.45       5.6  T
   5   -193.3597121 -0.267405E-06  0.839E-04    1.45      11.1  T
   6   -193.3597121 -0.289888E-07  0.417E-04    1.45      22.3  T
     SCC iter.                  ...        0 min,  0.442 sec
     gradient                   ...        0 min,  0.054 sec
 * total energy  :  -190.0076711 Eh     change       -0.1882318E-03 Eh
   gradient norm :     0.0021836 Eh/α   predicted    -0.1436223E-03 ( -23.70%)
   displ. norm   :     0.4241515 α      lambda       -0.1831741E-03
   maximum displ.:     0.2150179 α      in ANC's #2, #1, #6, ...

........................................................................
.............................. CYCLE   18 ..............................
........................................................................

 iter      E             dE          RMSdq      gap      omega  full diag
   1   -193.3605899 -0.193361E+03  0.541E-02    1.44       0.0  T
   2   -193.3605927 -0.281191E-05  0.319E-02    1.44       1.0  T
   3   -193.3605810  0.116794E-04  0.901E-03    1.44       1.0  T
   4   -193.3605940 -0.130580E-04  0.169E-03    1.44       5.5  T
   5   -193.3605944 -0.348284E-06  0.728E-04    1.44      12.8  T
   6   -193.3605944 -0.252550E-07  0.393E-04    1.44      23.6  T
     SCC iter.                  ...        0 min,  0.498 sec
     gradient                   ...        0 min,  0.043 sec
 * total energy  :  -190.0078159 Eh     change       -0.1447422E-03 Eh
   gradient norm :     0.0022702 Eh/α   predicted    -0.1080697E-03 ( -25.34%)
   displ. norm   :     0.3650401 α      lambda       -0.1398506E-03
   maximum displ.:     0.1951239 α      in ANC's #2, #1, #6, ...

........................................................................
.............................. CYCLE   19 ..............................
........................................................................

 iter      E             dE          RMSdq      gap      omega  full diag
   1   -193.3615688 -0.193362E+03  0.451E-02    1.44       0.0  T
   2   -193.3615709 -0.215276E-05  0.266E-02    1.44       1.0  T
   3   -193.3615619  0.901845E-05  0.793E-03    1.44       1.2  T
   4   -193.3615719 -0.100359E-04  0.147E-03    1.44       6.3  T
   5   -193.3615722 -0.284769E-06  0.595E-04    1.44      15.6  T
   6   -193.3615722 -0.225024E-07  0.318E-04    1.44      29.2  T
     SCC iter.                  ...        0 min,  0.401 sec
     gradient                   ...        0 min,  0.041 sec
 * total energy  :  -190.0079301 Eh     change       -0.1141684E-03 Eh
   gradient norm :     0.0024556 Eh/α   predicted    -0.7924368E-04 ( -30.59%)
   displ. norm   :     0.3261938 α      lambda       -0.1290136E-03
   maximum displ.:     0.1837421 α      in ANC's #2, #1, #13, ...

........................................................................
.............................. CYCLE   20 ..............................
........................................................................

 iter      E             dE          RMSdq      gap      omega  full diag
   1   -193.3624301 -0.193362E+03  0.404E-02    1.44       0.0  T
   2   -193.3624316 -0.150624E-05  0.237E-02    1.45       1.0  T
   3   -193.3624252  0.643968E-05  0.668E-03    1.44       1.4  T
   4   -193.3624323 -0.716006E-05  0.121E-03    1.45       7.7  T
   5   -193.3624325 -0.185579E-06  0.503E-04    1.44      18.5  T
   6   -193.3624325 -0.179193E-07  0.265E-04    1.44      35.0  T
     SCC iter.                  ...        0 min,  0.498 sec
     gradient                   ...        0 min,  0.044 sec
 * total energy  :  -190.0080389 Eh     change       -0.1088090E-03 Eh
   gradient norm :     0.0022220 Eh/α   predicted    -0.7137278E-04 ( -34.41%)
   displ. norm   :     0.3319025 α      lambda       -0.1373218E-03
   maximum displ.:     0.1933859 α      in ANC's #2, #1, #13, ...
 * RMSD in coord.:     0.7047174 α      energy gain  -0.1655547E-01 Eh

generating ANC from model Hessian ...
Using Lindh-Hessian (1995)
 Shifting diagonal of input Hessian by    1.0078378607684877E-002
 Lowest  eigenvalues of input Hessian
    0.010000    0.000000    0.000000    0.000000    0.000000    0.000000
    0.000000    0.010108    0.010238    0.010367    0.010431    0.010562
    0.010685    0.010955    0.011116    0.011160    0.011317    0.011405
 Highest eigenvalues
    2.154261    2.164173    2.289398    2.300418    2.530251    2.536322


........................................................................
.............................. CYCLE   21 ..............................
........................................................................

 iter      E             dE          RMSdq      gap      omega  full diag
   1   -193.3628772 -0.193363E+03  0.402E-02    1.45       0.0  T
   2   -193.3628785 -0.125490E-05  0.236E-02    1.45       1.0  T
   3   -193.3628732  0.531778E-05  0.607E-03    1.45       1.5  T
   4   -193.3628791 -0.594912E-05  0.102E-03    1.45       9.1  T
   5   -193.3628792 -0.115399E-06  0.469E-04    1.45      19.8  T
   6   -193.3628792 -0.148668E-07  0.252E-04    1.45      36.9  T
     SCC iter.                  ...        0 min,  0.328 sec
     gradient                   ...        0 min,  0.040 sec
 * total energy  :  -190.0081542 Eh     change       -0.1153546E-03 Eh
   gradient norm :     0.0019370 Eh/α   predicted     0.0000000E+00 (-100.00%)
   displ. norm   :     0.0839117 α      lambda       -0.4082954E-04
   maximum displ.:     0.0476105 α      in ANC's #2, #10, #1, ...

........................................................................
.............................. CYCLE   22 ..............................
........................................................................

 iter      E             dE          RMSdq      gap      omega  full diag
   1   -193.3626524 -0.193363E+03  0.884E-03    1.45       0.0  T
   2   -193.3626527 -0.221681E-06  0.529E-03    1.45       1.8  T
   3   -193.3626523  0.358183E-06  0.173E-03    1.45       5.4  T
   4   -193.3626527 -0.406379E-06  0.431E-04    1.45      21.6  T
   5   -193.3626527 -0.256319E-07  0.151E-04    1.45      61.3  T
     SCC iter.                  ...        0 min,  0.275 sec
     gradient                   ...        0 min,  0.042 sec
 * total energy  :  -190.0082094 Eh     change       -0.5513355E-04 Eh
   gradient norm :     0.0009679 Eh/α   predicted    -0.2089610E-04 ( -62.10%)
   displ. norm   :     0.3009849 α      lambda       -0.1157487E-03
   maximum displ.:     0.1636217 α      in ANC's #2, #10, #1, ...

........................................................................
.............................. CYCLE   23 ..............................
........................................................................

 iter      E             dE          RMSdq      gap      omega  full diag
   1   -193.3621064 -0.193362E+03  0.277E-02    1.45       0.0  T
   2   -193.3621070 -0.532445E-06  0.163E-02    1.45       1.0  T
   3   -193.3621050  0.191856E-05  0.393E-03    1.45       2.4  T
   4   -193.3621072 -0.220628E-05  0.641E-04    1.45      14.5  T
   5   -193.3621073 -0.316109E-07  0.320E-04    1.45      29.0  T
   6   -193.3621073 -0.407638E-08  0.150E-04    1.45      62.0  T
     SCC iter.                  ...        0 min,  0.305 sec
     gradient                   ...        0 min,  0.043 sec
 * total energy  :  -190.0083339 Eh     change       -0.1245043E-03 Eh
   gradient norm :     0.0016159 Eh/α   predicted    -0.6021175E-04 ( -51.64%)
   displ. norm   :     0.2644124 α      lambda       -0.6152914E-04
   maximum displ.:     0.1613263 α      in ANC's #2, #1, #10, ...

........................................................................
.............................. CYCLE   24 ..............................
........................................................................

 iter      E             dE          RMSdq      gap      omega  full diag
   1   -193.3616814 -0.193362E+03  0.210E-02    1.45       0.0  T
   2   -193.3616816 -0.264271E-06  0.123E-02    1.45       1.0  T
   3   -193.3616808  0.866979E-06  0.252E-03    1.45       3.7  T
   4   -193.3616817 -0.989939E-06  0.521E-04    1.45      17.8  T
   5   -193.3616818 -0.233379E-07  0.266E-04    1.45      34.9  T
     SCC iter.                  ...        0 min,  0.321 sec
     gradient                   ...        0 min,  0.042 sec
 * total energy  :  -190.0084045 Eh     change       -0.7061229E-04 Eh
   gradient norm :     0.0019425 Eh/α   predicted    -0.3172134E-04 ( -55.08%)
   displ. norm   :     0.2502995 α      lambda       -0.5666828E-04
   maximum displ.:     0.1551333 α      in ANC's #2, #1, #10, ...

........................................................................
.............................. CYCLE   25 ..............................
........................................................................

 iter      E             dE          RMSdq      gap      omega  full diag
   1   -193.3617811 -0.193362E+03  0.195E-02    1.46       0.0  T
   2   -193.3617814 -0.350262E-06  0.114E-02    1.46       1.0  T
   3   -193.3617801  0.132439E-05  0.313E-03    1.46       3.0  T
   4   -193.3617816 -0.149471E-05  0.584E-04    1.46      15.9  T
   5   -193.3617816 -0.371149E-07  0.264E-04    1.46      35.2  T
   6   -193.3617816 -0.358696E-08  0.147E-04    1.46      63.2  T
     SCC iter.                  ...        0 min,  0.263 sec
     gradient                   ...        0 min,  0.043 sec
 * total energy  :  -190.0084724 Eh     change       -0.6795850E-04 Eh
   gradient norm :     0.0016697 Eh/α   predicted    -0.2912868E-04 ( -57.14%)
   displ. norm   :     0.2947480 α      lambda       -0.7396593E-04
   maximum displ.:     0.1934897 α      in ANC's #2, #1, #10, ...

........................................................................
.............................. CYCLE   26 ..............................
........................................................................

 iter      E             dE          RMSdq      gap      omega  full diag
   1   -193.3620585 -0.193362E+03  0.243E-02    1.46       0.0  T
   2   -193.3620593 -0.834674E-06  0.142E-02    1.46       1.0  T
   3   -193.3620560  0.333935E-05  0.497E-03    1.46       1.9  T
   4   -193.3620596 -0.365621E-05  0.108E-03    1.46       8.6  T
   5   -193.3620598 -0.172944E-06  0.355E-04    1.46      26.1  T
   6   -193.3620598 -0.103175E-07  0.179E-04    1.46      51.9  T
     SCC iter.                  ...        0 min,  0.362 sec
     gradient                   ...        0 min,  0.043 sec
 * total energy  :  -190.0085698 Eh     change       -0.9733969E-04 Eh
   gradient norm :     0.0008742 Eh/α   predicted    -0.3841218E-04 ( -60.54%)
   displ. norm   :     0.3565671 α      lambda       -0.8983898E-04
   maximum displ.:     0.2349514 α      in ANC's #2, #1, #10, ...

........................................................................
.............................. CYCLE   27 ..............................
........................................................................

 iter      E             dE          RMSdq      gap      omega  full diag
   1   -193.3622544 -0.193362E+03  0.298E-02    1.47       0.0  T
   2   -193.3622558 -0.137984E-05  0.174E-02    1.47       1.0  T
   3   -193.3622508  0.500991E-05  0.617E-03    1.47       1.5  T
   4   -193.3622563 -0.552573E-05  0.129E-03    1.47       7.2  T
   5   -193.3622565 -0.247647E-06  0.450E-04    1.47      20.6  T
   6   -193.3622565 -0.197027E-07  0.212E-04    1.47      43.8  T
     SCC iter.                  ...        0 min,  0.293 sec
     gradient                   ...        0 min,  0.045 sec
 * total energy  :  -190.0086895 Eh     change       -0.1197358E-03 Eh
   gradient norm :     0.0014150 Eh/α   predicted    -0.4745987E-04 ( -60.36%)
   displ. norm   :     0.4469409 α      lambda       -0.1076439E-03
   maximum displ.:     0.2949523 α      in ANC's #2, #1, #4, ...

........................................................................
.............................. CYCLE   28 ..............................
........................................................................

 iter      E             dE          RMSdq      gap      omega  full diag
   1   -193.3626791 -0.193363E+03  0.353E-02    1.47       0.0  T
   2   -193.3626811 -0.197573E-05  0.206E-02    1.47       1.0  T
   3   -193.3626741  0.700841E-05  0.732E-03    1.47       1.3  T
   4   -193.3626818 -0.773483E-05  0.151E-03    1.47       6.2  T
   5   -193.3626821 -0.340524E-06  0.534E-04    1.47      17.4  T
   6   -193.3626822 -0.295302E-07  0.245E-04    1.47      37.9  T
     SCC iter.                  ...        0 min,  0.356 sec
     gradient                   ...        0 min,  0.043 sec
 * total energy  :  -190.0088326 Eh     change       -0.1430777E-03 Eh
   gradient norm :     0.0019131 Eh/α   predicted    -0.5860316E-04 ( -59.04%)
   displ. norm   :     0.5167754 α      lambda       -0.1196515E-03
   maximum displ.:     0.3427003 α      in ANC's #2, #1, #4, ...

........................................................................
.............................. CYCLE   29 ..............................
........................................................................

 iter      E             dE          RMSdq      gap      omega  full diag
   1   -193.3629336 -0.193363E+03  0.390E-02    1.47       0.0  T
   2   -193.3629358 -0.219749E-05  0.228E-02    1.48       1.0  T
   3   -193.3629281  0.767518E-05  0.760E-03    1.47       1.2  T
   4   -193.3629366 -0.850374E-05  0.151E-03    1.48       6.1  T
   5   -193.3629369 -0.336495E-06  0.559E-04    1.48      16.6  T
   6   -193.3629370 -0.321103E-07  0.259E-04    1.48      35.8  T
     SCC iter.                  ...        0 min,  0.370 sec
     gradient                   ...        0 min,  0.043 sec
 * total energy  :  -190.0089938 Eh     change       -0.1612101E-03 Eh
   gradient norm :     0.0020285 Eh/α   predicted    -0.6693079E-04 ( -58.48%)
   displ. norm   :     0.3846644 α      lambda       -0.1354678E-03
   maximum displ.:     0.2557608 α      in ANC's #2, #1, #4, ...

........................................................................
.............................. CYCLE   30 ..............................
........................................................................

 iter      E             dE          RMSdq      gap      omega  full diag
   1   -193.3633086 -0.193363E+03  0.276E-02    1.48       0.0  T
   2   -193.3633095 -0.844444E-06  0.161E-02    1.48       1.0  T
   3   -193.3633061  0.331077E-05  0.486E-03    1.48       1.9  T
   4   -193.3633098 -0.362891E-05  0.987E-04    1.48       9.4  T
   5   -193.3633099 -0.143847E-06  0.364E-04    1.48      25.5  T
   6   -193.3633099 -0.127617E-07  0.173E-04    1.48      53.5  T
     SCC iter.                  ...        0 min,  0.297 sec
     gradient                   ...        0 min,  0.042 sec
 * total energy  :  -190.0091222 Eh     change       -0.1284355E-03 Eh
   gradient norm :     0.0017474 Eh/α   predicted    -0.7776000E-04 ( -39.46%)
   displ. norm   :     0.7243002 α      lambda       -0.1813744E-03
   maximum displ.:     0.4811381 α      in ANC's #2, #1, #4, ...

........................................................................
.............................. CYCLE   31 ..............................
........................................................................

 iter      E             dE          RMSdq      gap      omega  full diag
   1   -193.3635597 -0.193364E+03  0.520E-02    1.48       0.0  T
   2   -193.3635620 -0.236419E-05  0.304E-02    1.48       1.0  T
   3   -193.3635534  0.859748E-05  0.777E-03    1.48       1.2  T
   4   -193.3635629 -0.945287E-05  0.159E-03    1.48       5.8  T
   5   -193.3635632 -0.354477E-06  0.634E-04    1.48      14.6  T
   6   -193.3635633 -0.349194E-07  0.314E-04    1.48      29.6  T
     SCC iter.                  ...        0 min,  0.331 sec
     gradient                   ...        0 min,  0.042 sec
 * total energy  :  -190.0093725 Eh     change       -0.2502618E-03 Eh
   gradient norm :     0.0012790 Eh/α   predicted    -0.1118361E-03 ( -55.31%)
   displ. norm   :     0.8309530 α      lambda       -0.2043751E-03
   maximum displ.:     0.5529429 α      in ANC's #2, #1, #4, ...

........................................................................
.............................. CYCLE   32 ..............................
........................................................................

 iter      E             dE          RMSdq      gap      omega  full diag
   1   -193.3629066 -0.193363E+03  0.593E-02    1.49       0.0  T
   2   -193.3629093 -0.262619E-05  0.347E-02    1.49       1.0  T
   3   -193.3628999  0.934948E-05  0.802E-03    1.49       1.2  T
   4   -193.3629102 -0.102580E-04  0.173E-03    1.49       5.4  T
   5   -193.3629106 -0.412087E-06  0.709E-04    1.49      13.1  T
   6   -193.3629106 -0.399855E-07  0.357E-04    1.49      26.0  T
     SCC iter.                  ...        0 min,  0.330 sec
     gradient                   ...        0 min,  0.042 sec
 * total energy  :  -190.0096523 Eh     change       -0.2797940E-03 Eh
   gradient norm :     0.0014331 Eh/α   predicted    -0.1335524E-03 ( -52.27%)
   displ. norm   :     0.9003805 α      lambda       -0.2121551E-03
   maximum displ.:     0.5997019 α      in ANC's #2, #1, #4, ...

........................................................................
.............................. CYCLE   33 ..............................
........................................................................

 iter      E             dE          RMSdq      gap      omega  full diag
   1   -193.3626011 -0.193363E+03  0.631E-02    1.50       0.0  T
   2   -193.3626039 -0.285364E-05  0.369E-02    1.50       1.0  T
   3   -193.3625939  0.100057E-04  0.825E-03    1.50       1.1  T
   4   -193.3626049 -0.109530E-04  0.187E-03    1.50       5.0  T
   5   -193.3626053 -0.474186E-06  0.772E-04    1.50      12.0  T
   6   -193.3626054 -0.445519E-07  0.393E-04    1.50      23.6  T
     SCC iter.                  ...        0 min,  0.436 sec
     gradient                   ...        0 min,  0.045 sec
 * total energy  :  -190.0099380 Eh     change       -0.2857307E-03 Eh
   gradient norm :     0.0018950 Eh/α   predicted    -0.1442998E-03 ( -49.50%)
   displ. norm   :     0.9397548 α      lambda       -0.2046573E-03
   maximum displ.:     0.6266138 α      in ANC's #2, #1, #4, ...

........................................................................
.............................. CYCLE   34 ..............................
........................................................................

 iter      E             dE          RMSdq      gap      omega  full diag
   1   -193.3622175 -0.193362E+03  0.635E-02    1.51       0.0  T
   2   -193.3622205 -0.297972E-05  0.371E-02    1.51       1.0  T
   3   -193.3622084  0.121021E-04  0.899E-03    1.51       1.0  T
   4   -193.3622216 -0.132457E-04  0.197E-03    1.51       4.7  T
   5   -193.3622221 -0.524062E-06  0.808E-04    1.51      11.5  T
   6   -193.3622222 -0.469544E-07  0.412E-04    1.51      22.5  T
     SCC iter.                  ...        0 min,  0.324 sec
     gradient                   ...        0 min,  0.045 sec
 * total energy  :  -190.0102083 Eh     change       -0.2702569E-03 Eh
   gradient norm :     0.0021427 Eh/α   predicted    -0.1424946E-03 ( -47.27%)
   displ. norm   :     0.6319471 α      lambda       -0.1868898E-03
   maximum displ.:     0.4219125 α      in ANC's #2, #1, #4, ...

........................................................................
.............................. CYCLE   35 ..............................
........................................................................

 iter      E             dE          RMSdq      gap      omega  full diag
   1   -193.3625434 -0.193363E+03  0.407E-02    1.51       0.0  T
   2   -193.3625448 -0.137983E-05  0.238E-02    1.51       1.0  T
   3   -193.3625388  0.597832E-05  0.633E-03    1.51       1.5  T
   4   -193.3625454 -0.653466E-05  0.139E-03    1.51       6.7  T
   5   -193.3625456 -0.260117E-06  0.556E-04    1.51      16.7  T
   6   -193.3625457 -0.212635E-07  0.287E-04    1.51      32.4  T
     SCC iter.                  ...        0 min,  0.284 sec
     gradient                   ...        0 min,  0.042 sec
 * total energy  :  -190.0103772 Eh     change       -0.1689432E-03 Eh
   gradient norm :     0.0019534 Eh/α   predicted    -0.1307644E-03 ( -22.60%)
   displ. norm   :     1.0392946 α      lambda       -0.1925653E-03
   maximum displ.:     0.6925897 α      in ANC's #2, #1, #4, ...

........................................................................
.............................. CYCLE   36 ..............................
........................................................................

 iter      E             dE          RMSdq      gap      omega  full diag
   1   -193.3629918 -0.193363E+03  0.642E-02    1.51       0.0  T
   2   -193.3629955 -0.372926E-05  0.375E-02    1.51       1.0  T
   3   -193.3629779  0.176228E-04  0.109E-02    1.51       1.0  T
   4   -193.3629973 -0.193580E-04  0.229E-03    1.51       4.1  T
   5   -193.3629980 -0.697957E-06  0.909E-04    1.51      10.2  T
   6   -193.3629980 -0.540118E-07  0.474E-04    1.51      19.6  T
     SCC iter.                  ...        0 min,  0.427 sec
     gradient                   ...        0 min,  0.041 sec
 * total energy  :  -190.0106145 Eh     change       -0.2373337E-03 Eh
   gradient norm :     0.0016383 Eh/α   predicted    -0.1425074E-03 ( -39.95%)
   displ. norm   :     0.9170665 α      lambda       -0.1335226E-03
   maximum displ.:     0.6091478 α      in ANC's #2, #1, #4, ...

........................................................................
.............................. CYCLE   37 ..............................
........................................................................

 iter      E             dE          RMSdq      gap      omega  full diag
   1   -193.3628281 -0.193363E+03  0.537E-02    1.50       0.0  T
   2   -193.3628312 -0.302112E-05  0.314E-02    1.51       1.0  T
   3   -193.3628172  0.139408E-04  0.987E-03    1.50       1.0  T
   4   -193.3628326 -0.153853E-04  0.205E-03    1.51       4.5  T
   5   -193.3628332 -0.555000E-06  0.808E-04    1.51      11.5  T
   6   -193.3628332 -0.415340E-07  0.427E-04    1.51      21.8  T
     SCC iter.                  ...        0 min,  0.445 sec
     gradient                   ...        0 min,  0.043 sec
 * total energy  :  -190.0107702 Eh     change       -0.1556862E-03 Eh
   gradient norm :     0.0014356 Eh/α   predicted    -0.9171657E-04 ( -41.09%)
   displ. norm   :     0.6858765 α      lambda       -0.8564199E-04
   maximum displ.:     0.4468469 α      in ANC's #2, #1, #4, ...

........................................................................
.............................. CYCLE   38 ..............................
........................................................................

 iter      E             dE          RMSdq      gap      omega  full diag
   1   -193.3650565 -0.193365E+03  0.400E-02    1.50       0.0  T
   2   -193.3650584 -0.197116E-05  0.234E-02    1.50       1.0  T
   3   -193.3650496  0.889050E-05  0.805E-03    1.50       1.2  T
   4   -193.3650594 -0.986876E-05  0.163E-03    1.50       5.7  T
   5   -193.3650598 -0.360781E-06  0.619E-04    1.50      15.0  T
   6   -193.3650598 -0.253626E-07  0.332E-04    1.50      28.0  T
     SCC iter.                  ...        0 min,  0.389 sec
     gradient                   ...        0 min,  0.044 sec
 * total energy  :  -190.0108650 Eh     change       -0.9472710E-04 Eh
   gradient norm :     0.0017467 Eh/α   predicted    -0.5177428E-04 ( -45.34%)
   displ. norm   :     0.5348402 α      lambda       -0.6444287E-04
   maximum displ.:     0.3376339 α      in ANC's #1, #2, #7, ...

........................................................................
.............................. CYCLE   39 ..............................
........................................................................

 iter      E             dE          RMSdq      gap      omega  full diag
   1   -193.3653639 -0.193365E+03  0.363E-02    1.50       0.0  T
   2   -193.3653654 -0.143756E-05  0.213E-02    1.50       1.0  T
   3   -193.3653590  0.635504E-05  0.677E-03    1.50       1.4  T
   4   -193.3653661 -0.704935E-05  0.132E-03    1.50       7.0  T
   5   -193.3653663 -0.232363E-06  0.518E-04    1.50      17.9  T
   6   -193.3653663 -0.188400E-07  0.279E-04    1.50      33.3  T
     SCC iter.                  ...        0 min,  0.367 sec
     gradient                   ...        0 min,  0.043 sec
 * total energy  :  -190.0109356 Eh     change       -0.7062947E-04 Eh
   gradient norm :     0.0019497 Eh/α   predicted    -0.3632136E-04 ( -48.57%)
   displ. norm   :     0.4490501 α      lambda       -0.6798226E-04
   maximum displ.:     0.2627745 α      in ANC's #1, #2, #7, ...

........................................................................
.............................. CYCLE   40 ..............................
........................................................................

 iter      E             dE          RMSdq      gap      omega  full diag
   1   -193.3663248 -0.193366E+03  0.447E-02    1.50       0.0  T
   2   -193.3663262 -0.137090E-05  0.262E-02    1.50       1.0  T
   3   -193.3663213  0.488377E-05  0.599E-03    1.50       1.5  T
   4   -193.3663268 -0.549444E-05  0.103E-03    1.50       9.0  T
   5   -193.3663269 -0.125035E-06  0.474E-04    1.50      19.6  T
   6   -193.3663270 -0.138807E-07  0.261E-04    1.50      35.6  T
     SCC iter.                  ...        0 min,  0.510 sec
     gradient                   ...        0 min,  0.050 sec
 * total energy  :  -190.0110141 Eh     change       -0.7853184E-04 Eh
   gradient norm :     0.0017107 Eh/α   predicted    -0.3703889E-04 ( -52.84%)
   displ. norm   :     0.4782738 α      lambda       -0.7701723E-04
   maximum displ.:     0.2439406 α      in ANC's #1, #2, #12, ...

........................................................................
.............................. CYCLE   41 ..............................
........................................................................

 iter      E             dE          RMSdq      gap      omega  full diag
   1   -193.3659444 -0.193366E+03  0.636E-02    1.50       0.0  T
   2   -193.3659460 -0.160525E-05  0.373E-02    1.50       1.0  T
   3   -193.3659413  0.462391E-05  0.588E-03    1.50       1.6  T
   4   -193.3659467 -0.535590E-05  0.989E-04    1.50       9.4  T
   5   -193.3659468 -0.823531E-07  0.504E-04    1.50      18.4  T
   6   -193.3659468 -0.816851E-08  0.273E-04    1.50      34.0  T
     SCC iter.                  ...        0 min,  0.333 sec
     gradient                   ...        0 min,  0.041 sec
 * total energy  :  -190.0110994 Eh     change       -0.8531130E-04 Eh
   gradient norm :     0.0018761 Eh/α   predicted    -0.4242429E-04 ( -50.27%)
   displ. norm   :     0.4080639 α      lambda       -0.6564281E-04
   maximum displ.:     0.1732394 α      in ANC's #1, #12, #18, ...

........................................................................
.............................. CYCLE   42 ..............................
........................................................................

 iter      E             dE          RMSdq      gap      omega  full diag
   1   -193.3645014 -0.193365E+03  0.657E-02    1.50       0.0  T
   2   -193.3645027 -0.131711E-05  0.385E-02    1.50       1.0  T
   3   -193.3644994  0.330915E-05  0.510E-03    1.50       1.8  T
   4   -193.3645033 -0.386736E-05  0.105E-03    1.50       8.9  T
   5   -193.3645033 -0.817276E-07  0.578E-04    1.50      16.0  T
   6   -193.3645034 -0.220002E-07  0.309E-04    1.50      30.1  T
     SCC iter.                  ...        0 min,  0.267 sec
     gradient                   ...        0 min,  0.043 sec
 * total energy  :  -190.0111676 Eh     change       -0.6812612E-04 Eh
   gradient norm :     0.0018800 Eh/α   predicted    -0.3525299E-04 ( -48.25%)
   displ. norm   :     0.2954682 α      lambda       -0.5151562E-04
   maximum displ.:     0.1178261 α      in ANC's #12, #1, #3, ...
 * RMSD in coord.:     0.9732145 α      energy gain  -0.3128694E-02 Eh

generating ANC from model Hessian ...
Using Lindh-Hessian (1995)
 Shifting diagonal of input Hessian by    1.0076639499108331E-002
 Lowest  eigenvalues of input Hessian
    0.010000    0.000000    0.000000    0.000000    0.000000    0.000000
    0.000000    0.010141    0.010234    0.010376    0.010426    0.010523
    0.010579    0.010757    0.011096    0.011155    0.011274    0.011441
 Highest eigenvalues
    2.155004    2.165914    2.291594    2.302676    2.529104    2.538869


........................................................................
.............................. CYCLE   43 ..............................
........................................................................

 iter      E             dE          RMSdq      gap      omega  full diag
   1   -193.3642674 -0.193364E+03  0.527E-02    1.50       0.0  T
   2   -193.3642685 -0.104895E-05  0.308E-02    1.50       1.0  T
   3   -193.3642658  0.265054E-05  0.460E-03    1.50       2.0  T
   4   -193.3642688 -0.298295E-05  0.107E-03    1.50       8.7  T
   5   -193.3642689 -0.125957E-06  0.514E-04    1.50      18.1  T
   6   -193.3642689 -0.232858E-07  0.246E-04    1.50      37.8  T
     SCC iter.                  ...        0 min,  0.641 sec
     gradient                   ...        0 min,  0.041 sec
 * total energy  :  -190.0112241 Eh     change       -0.5651027E-04 Eh
   gradient norm :     0.0014165 Eh/α   predicted     0.0000000E+00 (-100.00%)
   displ. norm   :     0.0609340 α      lambda       -0.2397250E-04
   maximum displ.:     0.0295785 α      in ANC's #24, #9, #1, ...

........................................................................
.............................. CYCLE   44 ..............................
........................................................................

 iter      E             dE          RMSdq      gap      omega  full diag
   1   -193.3648334 -0.193365E+03  0.114E-02    1.50       0.0  T
   2   -193.3648335 -0.901998E-07  0.671E-03    1.50       1.4  T
   3   -193.3648333  0.242913E-06  0.140E-03    1.50       6.6  T
   4   -193.3648335 -0.277426E-06  0.260E-04    1.50      35.7  T
   5   -193.3648335 -0.741599E-08  0.130E-04    1.50      71.4  T
     SCC iter.                  ...        0 min,  0.317 sec
     gradient                   ...        0 min,  0.044 sec
 * total energy  :  -190.0112541 Eh     change       -0.3004007E-04 Eh
   gradient norm :     0.0006499 Eh/α   predicted    -0.1205054E-04 ( -59.89%)
   displ. norm   :     0.2387888 α      lambda       -0.6687805E-04
   maximum displ.:     0.1102129 α      in ANC's #24, #9, #1, ...

........................................................................
.............................. CYCLE   45 ..............................
........................................................................

 iter      E             dE          RMSdq      gap      omega  full diag
   1   -193.3651083 -0.193365E+03  0.409E-02    1.50       0.0  T
   2   -193.3651092 -0.993381E-06  0.240E-02    1.50       1.0  T
   3   -193.3651067  0.256363E-05  0.451E-03    1.50       2.1  T
   4   -193.3651096 -0.294127E-05  0.838E-04    1.50      11.1  T
   5   -193.3651097 -0.705224E-07  0.441E-04    1.50      21.1  T
   6   -193.3651097 -0.137262E-07  0.217E-04    1.50      42.8  T
     SCC iter.                  ...        0 min,  0.441 sec
     gradient                   ...        0 min,  0.042 sec
 * total energy  :  -190.0113173 Eh     change       -0.6314906E-04 Eh
   gradient norm :     0.0017707 Eh/α   predicted    -0.3431467E-04 ( -45.66%)
   displ. norm   :     0.1425204 α      lambda       -0.2173163E-04
   maximum displ.:     0.0517425 α      in ANC's #9, #1, #3, ...

........................................................................
.............................. CYCLE   46 ..............................
........................................................................

 iter      E             dE          RMSdq      gap      omega  full diag
   1   -193.3648280 -0.193365E+03  0.223E-02    1.50       0.0  T
   2   -193.3648282 -0.280692E-06  0.131E-02    1.50       1.0  T
   3   -193.3648276  0.621784E-06  0.226E-03    1.50       4.1  T
   4   -193.3648283 -0.713128E-06  0.478E-04    1.50      19.4  T
   5   -193.3648283 -0.231045E-07  0.263E-04    1.50      35.4  T
     SCC iter.                  ...        0 min,  0.481 sec
     gradient                   ...        0 min,  0.042 sec
 * total energy  :  -190.0113404 Eh     change       -0.2316993E-04 Eh
   gradient norm :     0.0011829 Eh/α   predicted    -0.1097260E-04 ( -52.64%)
   displ. norm   :     0.1577922 α      lambda       -0.2067816E-04
   maximum displ.:     0.0605235 α      in ANC's #1, #3, #9, ...

........................................................................
.............................. CYCLE   47 ..............................
........................................................................

 iter      E             dE          RMSdq      gap      omega  full diag
   1   -193.3647422 -0.193365E+03  0.228E-02    1.49       0.0  T
   2   -193.3647425 -0.322854E-06  0.134E-02    1.49       1.0  T
   3   -193.3647416  0.902696E-06  0.267E-03    1.49       3.5  T
   4   -193.3647426 -0.104434E-05  0.444E-04    1.49      20.9  T
   5   -193.3647427 -0.159146E-07  0.231E-04    1.49      40.1  T
   6   -193.3647427 -0.230986E-08  0.126E-04    1.49      73.8  T
     SCC iter.                  ...        0 min,  0.331 sec
     gradient                   ...        0 min,  0.043 sec
 * total energy  :  -190.0113639 Eh     change       -0.2348211E-04 Eh
   gradient norm :     0.0005967 Eh/α   predicted    -0.1045361E-04 ( -55.48%)
   displ. norm   :     0.2240069 α      lambda       -0.2783852E-04
   maximum displ.:     0.0973019 α      in ANC's #1, #3, #10, ...

........................................................................
.............................. CYCLE   48 ..............................
........................................................................

 iter      E             dE          RMSdq      gap      omega  full diag
   1   -193.3646003 -0.193365E+03  0.314E-02    1.49       0.0  T
   2   -193.3646009 -0.639135E-06  0.184E-02    1.49       1.0  T
   3   -193.3645981  0.282817E-05  0.453E-03    1.49       2.0  T
   4   -193.3646013 -0.318311E-05  0.717E-04    1.49      12.9  T
   5   -193.3646013 -0.501167E-07  0.348E-04    1.49      26.7  T
   6   -193.3646014 -0.696082E-08  0.177E-04    1.49      52.4  T
     SCC iter.                  ...        0 min,  0.346 sec
     gradient                   ...        0 min,  0.044 sec
 * total energy  :  -190.0113921 Eh     change       -0.2819839E-04 Eh
   gradient norm :     0.0012879 Eh/α   predicted    -0.1423047E-04 ( -49.53%)
   displ. norm   :     0.2742455 α      lambda       -0.3230673E-04
   maximum displ.:     0.1148950 α      in ANC's #1, #3, #10, ...

........................................................................
.............................. CYCLE   49 ..............................
........................................................................

 iter      E             dE          RMSdq      gap      omega  full diag
   1   -193.3643771 -0.193364E+03  0.381E-02    1.49       0.0  T
   2   -193.3643781 -0.991766E-06  0.224E-02    1.49       1.0  T
   3   -193.3643737  0.439658E-05  0.560E-03    1.49       1.7  T
   4   -193.3643786 -0.494965E-05  0.888E-04    1.49      10.5  T
   5   -193.3643787 -0.784563E-07  0.408E-04    1.49      22.8  T
   6   -193.3643787 -0.941668E-08  0.207E-04    1.49      44.9  T
     SCC iter.                  ...        0 min,  0.264 sec
     gradient                   ...        0 min,  0.043 sec
 * total energy  :  -190.0114195 Eh     change       -0.2737928E-04 Eh
   gradient norm :     0.0020016 Eh/α   predicted    -0.1672011E-04 ( -38.93%)
   displ. norm   :     0.1235365 α      lambda       -0.2290340E-04
   maximum displ.:     0.0608235 α      in ANC's #1, #3, #10, ...

........................................................................
.............................. CYCLE   50 ..............................
........................................................................

 iter      E             dE          RMSdq      gap      omega  full diag
   1   -193.3647748 -0.193365E+03  0.173E-02    1.49       0.0  T
   2   -193.3647750 -0.188319E-06  0.102E-02    1.49       1.0  T
   3   -193.3647740  0.105113E-05  0.266E-03    1.49       3.5  T
   4   -193.3647751 -0.116484E-05  0.426E-04    1.49      21.8  T
   5   -193.3647751 -0.227573E-07  0.170E-04    1.49      54.8  T
   6   -193.3647751 -0.156908E-08  0.889E-05    1.49     104.4  T
     SCC iter.                  ...        0 min,  0.417 sec
     gradient                   ...        0 min,  0.043 sec
 * total energy  :  -190.0114389 Eh     change       -0.1939504E-04 Eh
   gradient norm :     0.0015517 Eh/α   predicted    -0.1162916E-04 ( -40.04%)
   displ. norm   :     0.2774700 α      lambda       -0.3849350E-04
   maximum displ.:     0.1391268 α      in ANC's #1, #3, #10, ...

........................................................................
.............................. CYCLE   51 ..............................
........................................................................

 iter      E             dE          RMSdq      gap      omega  full diag
   1   -193.3657532 -0.193366E+03  0.396E-02    1.49       0.0  T
   2   -193.3657541 -0.881750E-06  0.233E-02    1.49       1.0  T
   3   -193.3657500  0.409866E-05  0.524E-03    1.49       1.8  T
   4   -193.3657545 -0.454581E-05  0.917E-04    1.49      10.1  T
   5   -193.3657546 -0.105499E-06  0.378E-04    1.49      24.6  T
   6   -193.3657546 -0.795751E-08  0.195E-04    1.49      47.6  T
     SCC iter.                  ...        0 min,  0.478 sec
     gradient                   ...        0 min,  0.043 sec
 * total energy  :  -190.0114752 Eh     change       -0.3636224E-04 Eh
   gradient norm :     0.0009585 Eh/α   predicted    -0.1990676E-04 ( -45.25%)
   displ. norm   :     0.1702721 α      lambda       -0.1596875E-04
   maximum displ.:     0.0895529 α      in ANC's #1, #3, #10, ...

........................................................................
.............................. CYCLE   52 ..............................
........................................................................

 iter      E             dE          RMSdq      gap      omega  full diag
   1   -193.3653706 -0.193365E+03  0.237E-02    1.49       0.0  T
   2   -193.3653708 -0.242185E-06  0.139E-02    1.50       1.0  T
   3   -193.3653701  0.696173E-06  0.226E-03    1.49       4.1  T
   4   -193.3653709 -0.791391E-06  0.462E-04    1.50      20.1  T
   5   -193.3653710 -0.222906E-07  0.236E-04    1.49      39.4  T
     SCC iter.                  ...        0 min,  0.323 sec
     gradient                   ...        0 min,  0.043 sec
 * total energy  :  -190.0114949 Eh     change       -0.1962573E-04 Eh
   gradient norm :     0.0010013 Eh/α   predicted    -0.8088823E-05 ( -58.78%)
   displ. norm   :     0.2820127 α      lambda       -0.2688372E-04
   maximum displ.:     0.1564563 α      in ANC's #1, #3, #10, ...

........................................................................
.............................. CYCLE   53 ..............................
........................................................................

 iter      E             dE          RMSdq      gap      omega  full diag
   1   -193.3648345 -0.193365E+03  0.370E-02    1.50       0.0  T
   2   -193.3648352 -0.651627E-06  0.216E-02    1.50       1.0  T
   3   -193.3648338  0.134108E-05  0.342E-03    1.50       2.7  T
   4   -193.3648354 -0.159924E-05  0.595E-04    1.50      15.6  T
   5   -193.3648355 -0.245458E-07  0.309E-04    1.50      30.1  T
   6   -193.3648355 -0.346017E-08  0.164E-04    1.50      56.7  T
     SCC iter.                  ...        0 min,  0.379 sec
     gradient                   ...        0 min,  0.044 sec
 * total energy  :  -190.0115240 Eh     change       -0.2915414E-04 Eh
   gradient norm :     0.0010757 Eh/α   predicted    -0.1391996E-04 ( -52.25%)
   displ. norm   :     0.2577616 α      lambda       -0.1800421E-04
   maximum displ.:     0.1510783 α      in ANC's #1, #3, #10, ...

........................................................................
.............................. CYCLE   54 ..............................
........................................................................

 iter      E             dE          RMSdq      gap      omega  full diag
   1   -193.3641501 -0.193364E+03  0.316E-02    1.50       0.0  T
   2   -193.3641507 -0.532430E-06  0.185E-02    1.50       1.0  T
   3   -193.3641496  0.110119E-05  0.312E-03    1.50       3.0  T
   4   -193.3641508 -0.129652E-05  0.573E-04    1.50      16.2  T
   5   -193.3641509 -0.251452E-07  0.301E-04    1.50      30.8  T
   6   -193.3641509 -0.521101E-08  0.162E-04    1.50      57.3  T
     SCC iter.                  ...        0 min,  0.390 sec
     gradient                   ...        0 min,  0.043 sec
 * total energy  :  -190.0115435 Eh     change       -0.1943988E-04 Eh
   gradient norm :     0.0010348 Eh/α   predicted    -0.9269618E-05 ( -52.32%)
   displ. norm   :     0.1440112 α      lambda       -0.1176264E-04
   maximum displ.:     0.0889495 α      in ANC's #1, #3, #2, ...

........................................................................
.............................. CYCLE   55 ..............................
........................................................................

 iter      E             dE          RMSdq      gap      omega  full diag
   1   -193.3645543 -0.193365E+03  0.154E-02    1.50       0.0  T
   2   -193.3645545 -0.165113E-06  0.900E-03    1.50       1.0  T
   3   -193.3645542  0.310221E-06  0.172E-03    1.50       5.4  T
   4   -193.3645546 -0.368035E-06  0.329E-04    1.50      28.2  T
   5   -193.3645546 -0.740587E-08  0.184E-04    1.50      50.4  T
     SCC iter.                  ...        0 min,  0.249 sec
     gradient                   ...        0 min,  0.042 sec
 * total energy  :  -190.0115571 Eh     change       -0.1368388E-04 Eh
   gradient norm :     0.0006527 Eh/α   predicted    -0.5938949E-05 ( -56.60%)
   displ. norm   :     0.1225092 α      lambda       -0.1058666E-04
   maximum displ.:     0.0771981 α      in ANC's #1, #3, #2, ...

........................................................................
.............................. CYCLE   56 ..............................
........................................................................

 iter      E             dE          RMSdq      gap      omega  full diag
   1   -193.3649067 -0.193365E+03  0.123E-02    1.50       0.0  T
   2   -193.3649069 -0.118476E-06  0.719E-03    1.50       1.3  T
   3   -193.3649064  0.457868E-06  0.184E-03    1.50       5.1  T
   4   -193.3649069 -0.520034E-06  0.353E-04    1.50      26.3  T
   5   -193.3649069 -0.101258E-07  0.184E-04    1.50      50.3  T
     SCC iter.                  ...        0 min,  0.337 sec
     gradient                   ...        0 min,  0.047 sec
 * total energy  :  -190.0115695 Eh     change       -0.1236185E-04 Eh
   gradient norm :     0.0005669 Eh/α   predicted    -0.5329446E-05 ( -56.89%)
   displ. norm   :     0.1129254 α      lambda       -0.8268200E-05
   maximum displ.:     0.0721477 α      in ANC's #1, #3, #2, ...

........................................................................
.............................. CYCLE   57 ..............................
........................................................................

 iter      E             dE          RMSdq      gap      omega  full diag
   1   -193.3649652 -0.193365E+03  0.104E-02    1.50       0.0  T
   2   -193.3649653 -0.109736E-06  0.611E-03    1.50       1.5  T
   3   -193.3649646  0.709270E-06  0.225E-03    1.50       4.1  T
   4   -193.3649654 -0.797523E-06  0.369E-04    1.50      25.1  T
   5   -193.3649654 -0.137514E-07  0.170E-04    1.50      54.5  T
     SCC iter.                  ...        0 min,  0.385 sec
     gradient                   ...        0 min,  0.044 sec
 * total energy  :  -190.0115792 Eh     change       -0.9730181E-05 Eh
   gradient norm :     0.0005878 Eh/α   predicted    -0.4162440E-05 ( -57.22%)
   displ. norm   :     0.1039113 α      lambda       -0.6797621E-05
   maximum displ.:     0.0681055 α      in ANC's #1, #2, #3, ...

........................................................................
.............................. CYCLE   58 ..............................
........................................................................

 iter      E             dE          RMSdq      gap      omega  full diag
   1   -193.3654463 -0.193365E+03  0.836E-03    1.50       0.0  T
   2   -193.3654464 -0.885196E-07  0.492E-03    1.50       1.9  T
   3   -193.3654457  0.749078E-06  0.235E-03    1.50       4.0  T
   4   -193.3654465 -0.847176E-06  0.355E-04    1.50      26.1  T
   5   -193.3654465 -0.155568E-07  0.148E-04    1.50      62.6  T
     SCC iter.                  ...        0 min,  0.221 sec
     gradient                   ...        0 min,  0.043 sec
 * total energy  :  -190.0115873 Eh     change       -0.8105166E-05 Eh
   gradient norm :     0.0006467 Eh/α   predicted    -0.3417673E-05 ( -57.83%)
   displ. norm   :     0.1052744 α      lambda       -0.6156766E-05
   maximum displ.:     0.0698205 α      in ANC's #1, #2, #3, ...

........................................................................
.............................. CYCLE   59 ..............................
........................................................................

 iter      E             dE          RMSdq      gap      omega  full diag
   1   -193.3652402 -0.193365E+03  0.805E-03    1.50       0.0  T
   2   -193.3652403 -0.802845E-07  0.474E-03    1.50       2.0  T
   3   -193.3652396  0.707338E-06  0.229E-03    1.50       4.0  T
   4   -193.3652404 -0.799207E-06  0.335E-04    1.50      27.7  T
   5   -193.3652404 -0.142365E-07  0.137E-04    1.50      67.9  T
     SCC iter.                  ...        0 min,  0.270 sec
     gradient                   ...        0 min,  0.044 sec
 * total energy  :  -190.0115947 Eh     change       -0.7368696E-05 Eh
   gradient norm :     0.0004399 Eh/α   predicted    -0.3096311E-05 ( -57.98%)
   displ. norm   :     0.0988568 α      lambda       -0.5301576E-05
   maximum displ.:     0.0658817 α      in ANC's #1, #2, #9, ...

........................................................................
.............................. CYCLE   60 ..............................
........................................................................

 iter      E             dE          RMSdq      gap      omega  full diag
   1   -193.3652616 -0.193365E+03  0.822E-03    1.50       0.0  T
   2   -193.3652617 -0.665397E-07  0.484E-03    1.50       1.9  T
   3   -193.3652611  0.518436E-06  0.195E-03    1.50       4.8  T
   4   -193.3652617 -0.577879E-06  0.274E-04    1.50      33.9  T
   5   -193.3652617 -0.912135E-08  0.125E-04    1.50      74.2  T
     SCC iter.                  ...        0 min,  0.277 sec
     gradient                   ...        0 min,  0.041 sec
 * total energy  :  -190.0116011 Eh     change       -0.6395925E-05 Eh
   gradient norm :     0.0003894 Eh/α   predicted    -0.2663905E-05 ( -58.35%)
   displ. norm   :     0.0879543 α      lambda       -0.4582778E-05
   maximum displ.:     0.0597504 α      in ANC's #1, #2, #9, ...

........................................................................
.............................. CYCLE   61 ..............................
........................................................................

 iter      E             dE          RMSdq      gap      omega  full diag
   1   -193.3651500 -0.193365E+03  0.782E-03    1.50       0.0  T
   2   -193.3651501 -0.531786E-07  0.460E-03    1.50       2.0  T
[...]
                            11 C    0.103
    14   6 C    3.985 --    18 C    1.528     6 C    1.304    26 H    0.968
                            12 C    0.112
    15   6 C    3.979 --    11 C    1.448    17 C    1.301    27 C    1.046
    16   6 C    3.987 --    12 C    1.523    18 C    1.345    28 H    0.969
    17   6 C    3.976 --    13 C    1.539    15 C    1.301    29 H    0.966
    18   6 C    3.980 --    14 C    1.528    16 C    1.345    30 H    0.971
    19   1 H    0.998 --     7 C    0.967
    20   1 H    0.998 --     8 C    0.967
    21   1 H    0.997 --     9 C    0.967
    22   1 H    0.998 --    10 C    0.967
    23   1 H    0.995 --    11 C    0.953
    24   1 H    0.998 --    12 C    0.954
    25   1 H    0.998 --    13 C    0.967
    26   1 H    0.999 --    14 C    0.968
    27   6 C    3.966 --    35 N    1.386    31 N    1.380    15 C    1.046
    28   1 H    0.999 --    16 C    0.969
    29   1 H    0.997 --    17 C    0.966
    30   1 H    0.998 --    18 C    0.971
    31   7 N    2.907 --    27 C    1.380    32 N    1.159    35 N    0.126
    32   7 N    3.622 --    31 N    1.159    33 C    1.099    37 C    1.041
                            36 O    0.121
    33   6 C    3.959 --    36 O    1.615    34 N    1.101    32 N    1.099
    34   7 N    3.622 --    35 N    1.153    33 C    1.101    43 C    1.040
                            36 O    0.123
    35   7 N    2.904 --    27 C    1.386    34 N    1.153    31 N    0.126
    36   8 O    1.978 --    33 C    1.615    34 N    0.123    32 N    0.121
    37   6 C    3.951 --    42 C    1.369    38 C    1.359    32 N    1.041
    38   6 C    3.983 --    39 C    1.462    37 C    1.359    49 H    0.961
                            41 C    0.106
    39   6 C    3.991 --    38 C    1.462    40 C    1.425    50 H    0.969
                            42 C    0.104
    40   6 C    3.974 --    41 C    1.431    39 C    1.425    51 H    0.971
    41   6 C    3.990 --    42 C    1.452    40 C    1.431    52 H    0.970
                            38 C    0.106
    42   6 C    3.984 --    41 C    1.452    37 C    1.369    53 H    0.965
                            39 C    0.104
    43   6 C    3.952 --    44 C    1.371    48 C    1.359    34 N    1.040
    44   6 C    3.984 --    45 C    1.451    43 C    1.371    58 H    0.965
                            47 C    0.104
    45   6 C    3.990 --    44 C    1.451    46 C    1.433    57 H    0.970
                            48 C    0.106
    46   6 C    3.974 --    45 C    1.433    47 C    1.423    56 H    0.971
    47   6 C    3.991 --    48 C    1.463    46 C    1.423    55 H    0.970
                            44 C    0.104
    48   6 C    3.983 --    47 C    1.463    43 C    1.359    54 H    0.960
                            45 C    0.106
    49   1 H    0.996 --    38 C    0.961
    50   1 H    0.998 --    39 C    0.969
    51   1 H    0.998 --    40 C    0.971
    52   1 H    0.998 --    41 C    0.970
    53   1 H    0.996 --    42 C    0.965
    54   1 H    0.996 --    48 C    0.960
    55   1 H    0.998 --    47 C    0.970
    56   1 H    0.998 --    46 C    0.971
    57   1 H    0.998 --    45 C    0.970
    58   1 H    0.996 --    44 C    0.965
    59   6 C    3.984 --    62 C    1.337    61 C    1.195    60 C    1.192
    60   6 C    3.987 --    69 C    1.328    63 C    1.262    59 C    1.192
    61   6 C    3.988 --    70 C    1.312    64 C    1.267    59 C    1.195
    62   6 C    3.990 --    59 C    1.337    65 C    1.232    66 C    1.228
    63   6 C    3.981 --    71 C    1.296    60 C    1.262    67 C    1.234
    64   6 C    3.985 --    72 C    1.308    61 C    1.267    68 C    1.227
    65   6 C    3.978 --    67 C    1.610    62 C    1.232    77 H    0.967
    66   6 C    3.987 --    68 C    1.619    62 C    1.228    78 H    0.967
    67   6 C    3.982 --    65 C    1.610    63 C    1.234    79 H    0.967
    68   6 C    3.983 --    66 C    1.619    64 C    1.227    80 H    0.967
    69   6 C    3.981 --    73 C    1.452    60 C    1.328    81 H    0.952
                            71 C    0.102
    70   6 C    3.989 --    74 C    1.521    61 C    1.312    82 H    0.961
                            72 C    0.111
    71   6 C    3.983 --    75 C    1.544    63 C    1.296    83 H    0.967
                            69 C    0.102
    72   6 C    3.985 --    76 C    1.525    64 C    1.308    84 H    0.968
                            70 C    0.111
    73   6 C    3.979 --    69 C    1.452    75 C    1.298    85 C    1.046
    74   6 C    3.986 --    70 C    1.521    76 C    1.348    86 H    0.970
    75   6 C    3.976 --    71 C    1.544    73 C    1.298    87 H    0.964
    76   6 C    3.980 --    72 C    1.525    74 C    1.348    88 H    0.971
    77   1 H    0.998 --    65 C    0.967
    78   1 H    0.998 --    66 C    0.967
    79   1 H    0.997 --    67 C    0.967
    80   1 H    0.998 --    68 C    0.967
    81   1 H    0.996 --    69 C    0.952
    82   1 H    0.998 --    70 C    0.961
    83   1 H    0.998 --    71 C    0.967
    84   1 H    0.999 --    72 C    0.968
    85   6 C    3.966 --    89 N    1.384    93 N    1.379    73 C    1.046
    86   1 H    0.998 --    74 C    0.970
    87   1 H    0.996 --    75 C    0.964
    88   1 H    0.998 --    76 C    0.971
    89   7 N    2.905 --    85 C    1.384    90 N    1.155    93 N    0.125
    90   7 N    3.618 --    89 N    1.155    91 C    1.083    95 C    1.048
                            94 O    0.122
    91   6 C    3.959 --    94 O    1.657    90 N    1.083    92 N    1.083
    92   7 N    3.624 --    93 N    1.165    91 C    1.083   101 C    1.044
                            94 O    0.121
    93   7 N    2.908 --    85 C    1.379    92 N    1.165    89 N    0.125
    94   8 O    2.014 --    91 C    1.657    90 N    0.122    92 N    0.121
    95   6 C    3.952 --   100 C    1.367    96 C    1.356    90 N    1.048
    96   6 C    3.983 --    97 C    1.463    95 C    1.356   107 H    0.962
                            99 C    0.105
    97   6 C    3.991 --    96 C    1.463    98 C    1.423   108 H    0.970
                           100 C    0.104
    98   6 C    3.973 --    99 C    1.431    97 C    1.423   109 H    0.971
    99   6 C    3.990 --   100 C    1.452    98 C    1.431   110 H    0.970
                            96 C    0.105
   100   6 C    3.984 --    99 C    1.452    95 C    1.367   111 H    0.963
                            97 C    0.104
   101   6 C    3.952 --   102 C    1.365   106 C    1.362    92 N    1.044
   102   6 C    3.983 --   103 C    1.454   101 C    1.365   116 H    0.963
                           105 C    0.105
   103   6 C    3.990 --   102 C    1.454   104 C    1.430   115 H    0.970
                           106 C    0.105
   104   6 C    3.973 --   103 C    1.430   105 C    1.425   114 H    0.971
   105   6 C    3.990 --   106 C    1.460   104 C    1.425   113 H    0.970
                           102 C    0.105
   106   6 C    3.984 --   105 C    1.460   101 C    1.362   112 H    0.964
                           103 C    0.105
   107   1 H    0.997 --    96 C    0.962
   108   1 H    0.998 --    97 C    0.970
   109   1 H    0.999 --    98 C    0.971
   110   1 H    0.998 --    99 C    0.970
   111   1 H    0.995 --   100 C    0.963
   112   1 H    0.997 --   106 C    0.964
   113   1 H    0.998 --   105 C    0.970
   114   1 H    0.998 --   104 C    0.971
   115   1 H    0.997 --   103 C    0.970
   116   1 H    0.994 --   102 C    0.963
 ---------------------------------------------------------------------------

Topologies differ in bond orders
Writing corrected topology to xtbtopo.mol

molecular dipole:
                 x           y           z       tot (Debye)
 q only:        0.990       0.776      -0.531
   full:        0.818       0.646      -0.508       2.946
molecular quadrupole (traceless):
                xx          xy          yy          xz          yz          zz
 q only:        3.729     -15.357      22.411      12.935       5.532     -26.141
  q+dip:       14.441     -13.490      34.591      12.542       5.104     -49.032
   full:        3.866     -12.005      21.385      13.417       7.279     -25.251

           -------------------------------------------------
          |                Geometry Summary                 |
           -------------------------------------------------

      molecular mass/u    :      955.0730446
   center of mass at/Å    :       -0.2046619       0.3790313       1.7119806
  moments of inertia/u·Å² :        0.8989420E+04   0.1733893E+05   0.2102887E+05
rotational constants/cm⁻¹ :        0.1875275E-02   0.9722416E-03   0.8016423E-03

 * 122 selected distances

     #   Z          #   Z                                           value/Å
     1   6 C        4   6 C                                       1.4058239
     2   6 C        5   6 C                                       1.4194530
     3   6 C        6   6 C                                       1.4189864
     4   6 C        7   6 C                                       1.4191710
     4   6 C        8   6 C                                       1.4185556
     5   6 C        9   6 C                                       1.4169454
     7   6 C        9   6 C                                       1.3554956
     6   6 C       10   6 C                                       1.4184209
     8   6 C       10   6 C                                       1.3545916
     2   6 C       11   6 C                                       1.4009734
     3   6 C       12   6 C                                       1.4088239
     5   6 C       13   6 C                                       1.4070918
     6   6 C       14   6 C                                       1.4061473
    11   6 C       15   6 C                                       1.3798290
    12   6 C       16   6 C                                       1.3709711
    13   6 C       17   6 C                                       1.3671123
    15   6 C       17   6 C                                       1.4029201
    14   6 C       18   6 C                                       1.3686682
    16   6 C       18   6 C                                       1.3967593
     7   6 C       19   1 H                                       1.0810929
     8   6 C       20   1 H                                       1.0808840
     9   6 C       21   1 H                                       1.0805774
    10   6 C       22   1 H                                       1.0808662
    11   6 C       23   1 H                                       1.0756949 (min)
    12   6 C       24   1 H                                       1.0759905
    13   6 C       25   1 H                                       1.0807150
    14   6 C       26   1 H                                       1.0811294
    16   6 C       28   1 H                                       1.0804859
    17   6 C       29   1 H                                       1.0777718
    18   6 C       30   1 H                                       1.0801038
    27   6 C       31   7 N                                       1.3200289
    31   7 N       32   7 N                                       1.3485697
    32   7 N       33   6 C                                       1.3859762
    33   6 C       34   7 N                                       1.3863887
    27   6 C       35   7 N                                       1.3188906
    34   7 N       35   7 N                                       1.3527636
    33   6 C       36   8 O                                       1.2136046
    32   7 N       37   6 C                                       1.4067076
    37   6 C       38   6 C                                       1.3941466
    38   6 C       39   6 C                                       1.3789427
    39   6 C       40   6 C                                       1.3854225
    40   6 C       41   6 C                                       1.3846831
    37   6 C       42   6 C                                       1.3918169
    41   6 C       42   6 C                                       1.3821835
    34   7 N       43   6 C                                       1.4066963
    43   6 C       44   6 C                                       1.3915321
    44   6 C       45   6 C                                       1.3820648
    45   6 C       46   6 C                                       1.3840977
    46   6 C       47   6 C                                       1.3857722
    43   6 C       48   6 C                                       1.3937128
    47   6 C       48   6 C                                       1.3789861
    38   6 C       49   1 H                                       1.0772357
    39   6 C       50   1 H                                       1.0794445
    40   6 C       51   1 H                                       1.0793078
    41   6 C       52   1 H                                       1.0795335
    42   6 C       53   1 H                                       1.0770833
    48   6 C       54   1 H                                       1.0774522
    47   6 C       55   1 H                                       1.0798273
    46   6 C       56   1 H                                       1.0793441
    45   6 C       57   1 H                                       1.0793369
    44   6 C       58   1 H                                       1.0768325
    59   6 C       62   6 C                                       1.4054670
    60   6 C       63   6 C                                       1.4195186 (max)
    61   6 C       64   6 C                                       1.4191190
    62   6 C       65   6 C                                       1.4182153
    62   6 C       66   6 C                                       1.4189492
    63   6 C       67   6 C                                       1.4167634
    65   6 C       67   6 C                                       1.3557102
    64   6 C       68   6 C                                       1.4182524
    66   6 C       68   6 C                                       1.3544398
    60   6 C       69   6 C                                       1.4036531
    61   6 C       70   6 C                                       1.4082298
    63   6 C       71   6 C                                       1.4072449
    64   6 C       72   6 C                                       1.4048874
    69   6 C       73   6 C                                       1.3800805
    70   6 C       74   6 C                                       1.3717114
    71   6 C       75   6 C                                       1.3661137
    73   6 C       75   6 C                                       1.4040781
    72   6 C       76   6 C                                       1.3691928
    74   6 C       76   6 C                                       1.3970356
    65   6 C       77   1 H                                       1.0805158
    66   6 C       78   1 H                                       1.0804702
    67   6 C       79   1 H                                       1.0804150
    68   6 C       80   1 H                                       1.0803233
    69   6 C       81   1 H                                       1.0768239
    70   6 C       82   1 H                                       1.0785195
    71   6 C       83   1 H                                       1.0808040
    72   6 C       84   1 H                                       1.0805910
    74   6 C       86   1 H                                       1.0807424
    75   6 C       87   1 H                                       1.0779947
    76   6 C       88   1 H                                       1.0800745
    85   6 C       89   7 N                                       1.3200282
    89   7 N       90   7 N                                       1.3520538
    90   7 N       91   6 C                                       1.3924254
    91   6 C       92   7 N                                       1.3915569
    85   6 C       93   7 N                                       1.3208309
    92   7 N       93   7 N                                       1.3487035
    91   6 C       94   8 O                                       1.2065204
    90   7 N       95   6 C                                       1.4049057
    95   6 C       96   6 C                                       1.3955657
    96   6 C       97   6 C                                       1.3791114
    97   6 C       98   6 C                                       1.3856387
    98   6 C       99   6 C                                       1.3847165
    95   6 C      100   6 C                                       1.3918305
    99   6 C      100   6 C                                       1.3818759
    92   7 N      101   6 C                                       1.4041160
   101   6 C      102   6 C                                       1.3915639
   102   6 C      103   6 C                                       1.3814567
   103   6 C      104   6 C                                       1.3850823
   104   6 C      105   6 C                                       1.3854668
   101   6 C      106   6 C                                       1.3935944
   105   6 C      106   6 C                                       1.3794839
    96   6 C      107   1 H                                       1.0782006
    97   6 C      108   1 H                                       1.0802752
    98   6 C      109   1 H                                       1.0796300
Note: The following floating-point exceptions are signalling: IEEE_UNDERFLOW_FLAG
normal termination of xtb
    99   6 C      110   1 H                                       1.0795014
   100   6 C      111   1 H                                       1.0761074
   106   6 C      112   1 H                                       1.0781935
   105   6 C      113   1 H                                       1.0797644
   104   6 C      114   1 H                                       1.0797291
   103   6 C      115   1 H                                       1.0797309
   102   6 C      116   1 H                                       1.0760584

 * 5 distinct bonds (by element types)

   Z      Z             #   av. dist./Å        max./Å        min./Å
   1 H    6 C          42     1.0791708     1.0811294     1.0756949
   6 C    6 C          62     1.3926476     1.4195186     1.3544398
   6 C    7 N          12     1.3715460     1.4067076     1.3188906
   7 N    7 N           4     1.3505226     1.3527636     1.3485697
   6 C    8 O           2     1.2100625     1.2136046     1.2065204


optimized geometry written to: xtbopt.mol


           -------------------------------------------------
          | TOTAL ENERGY             -190.011645894157 Eh   |
          | GRADIENT NORM               0.000235143317 Eh/α |
          | HOMO-LUMO GAP               1.499245869016 eV   |
           -------------------------------------------------
########################################################################
[WARNING] Runtime exception occurred
-3- restart_readRestart: Dimension missmatch in restart file.
-2- restart_readRestart: Multiplicity missmatch in restart file.
-1- restart_readRestart: Number of electron missmatch in restart file.
########################################################################

------------------------------------------------------------------------
 * finished run on 2024/11/14 at 14:02:20.509     
------------------------------------------------------------------------
 total:
 * wall-time:     0 d,  0 h,  0 min, 31.311 sec
 *  cpu-time:     0 d,  0 h,  1 min, 50.623 sec
 * ratio c/w:     3.533 speedup
 SCF:
 * wall-time:     0 d,  0 h,  0 min,  0.856 sec
 *  cpu-time:     0 d,  0 h,  0 min,  2.795 sec
 * ratio c/w:     3.267 speedup
 ANC optimizer:
 * wall-time:     0 d,  0 h,  0 min, 30.413 sec
 *  cpu-time:     0 d,  0 h,  1 min, 47.785 sec
 * ratio c/w:     3.544 speedup

