116
 energy: -189.600800231233 gnorm: 0.058176768492 xtb: 6.6.1 (8d0f1dd)
C            2.37550000000000        3.40140000000000       -0.36020000000000
C            2.38200000000000        1.96740000000000       -0.28480000000000
C            1.21840000000000        4.20660000000000       -0.08770000000000
C            3.56800000000000        4.04930000000000       -0.72450000000000
C            3.62320000000000        1.27970000000000       -0.24850000000000
C            1.20980000000000        5.56000000000000       -0.51230000000000
C            4.78990000000000        3.32720000000000       -0.73770000000000
C            3.54630000000000        5.42320000000000       -1.08080000000000
C            4.82700000000000        2.00610000000000       -0.43210000000000
C            2.39060000000000        6.13100000000000       -1.05520000000000
C            1.21230000000000        1.19650000000000       -0.35000000000000
C            0.12170000000000        3.75560000000000        0.67210000000000
C            3.63460000000000       -0.12030000000000       -0.10180000000000
C            0.05360000000000        6.33820000000000       -0.32800000000000
C            1.24440000000000       -0.17740000000000       -0.22480000000000
C           -0.98120000000000        4.54670000000000        0.86940000000000
C            2.47250000000000       -0.83920000000000       -0.05890000000000
C           -1.03850000000000        5.83300000000000        0.32610000000000
H            5.69760000000000        3.86610000000000       -0.96940000000000
H            4.46960000000000        5.88140000000000       -1.40560000000000
H            5.76550000000000        1.47280000000000       -0.38360000000000
H            2.36030000000000        7.15850000000000       -1.38840000000000
H            0.26460000000000        1.66120000000000       -0.56360000000000
H            0.17440000000000        2.79480000000000        1.15930000000000
H            4.58930000000000       -0.62370000000000       -0.04570000000000
H            0.05360000000000        7.35690000000000       -0.68930000000000
C           -0.01010000000000       -0.93060000000000       -0.26710000000000
H           -1.80570000000000        4.18160000000000        1.46460000000000
H            2.47700000000000       -1.91140000000000        0.05320000000000
H           -1.92280000000000        6.43760000000000        0.46500000000000
N           -1.12660000000000       -0.22750000000000       -0.31790000000000
N           -2.29430000000000       -0.90590000000000       -0.30070000000000
C           -2.35730000000000       -2.28880000000000       -0.16960000000000
N           -1.12020000000000       -2.91750000000000       -0.26280000000000
N            0.05450000000000       -2.24830000000000       -0.26490000000000
O           -3.38600000000000       -2.89160000000000        0.03190000000000
C           -3.44230000000000       -0.09220000000000       -0.33200000000000
C           -3.30880000000000        1.24250000000000        0.05400000000000
C           -4.39800000000000        2.08780000000000        0.00840000000000
C           -5.63020000000000        1.61830000000000       -0.41830000000000
C           -5.75990000000000        0.29590000000000       -0.80860000000000
C           -4.67620000000000       -0.56200000000000       -0.77520000000000
C           -1.00120000000000       -4.32010000000000       -0.26190000000000
C           -1.98060000000000       -5.14200000000000       -0.81240000000000
C           -1.79920000000000       -6.51240000000000       -0.80930000000000
C           -0.65110000000000       -7.07310000000000       -0.27500000000000
C            0.32900000000000       -6.25170000000000        0.25920000000000
C            0.15970000000000       -4.88220000000000        0.26740000000000
H           -2.34580000000000        1.59610000000000        0.38460000000000
H           -4.28530000000000        3.11860000000000        0.30960000000000
H           -6.48310000000000        2.27930000000000       -0.44870000000000
H           -6.71430000000000       -0.07520000000000       -1.15070000000000
H           -4.79400000000000       -1.58540000000000       -1.08740000000000
H            0.91160000000000       -4.23000000000000        0.68170000000000
H            1.22790000000000       -6.68080000000000        0.67640000000000
H           -0.51950000000000       -8.14460000000000       -0.27680000000000
H           -2.56190000000000       -7.14630000000000       -1.23610000000000
H           -2.87520000000000       -4.71930000000000       -1.23760000000000
C            2.37550000000000        3.40140000000000        3.63980000000000
C            2.38200000000000        1.96740000000000        3.71520000000000
C            1.21840000000000        4.20660000000000        3.91230000000000
C            3.56800000000000        4.04930000000000        3.27550000000000
C            3.62320000000000        1.27970000000000        3.75150000000000
C            1.20980000000000        5.56000000000000        3.48770000000000
C            4.78990000000000        3.32720000000000        3.26230000000000
C            3.54630000000000        5.42320000000000        2.91920000000000
C            4.82700000000000        2.00610000000000        3.56790000000000
C            2.39060000000000        6.13100000000000        2.94480000000000
C            1.21230000000000        1.19650000000000        3.65000000000000
C            0.12170000000000        3.75560000000000        4.67210000000000
C            3.63460000000000       -0.12030000000000        3.89820000000000
C            0.05360000000000        6.33820000000000        3.67200000000000
C            1.24440000000000       -0.17740000000000        3.77520000000000
C           -0.98120000000000        4.54670000000000        4.86940000000000
C            2.47250000000000       -0.83920000000000        3.94110000000000
C           -1.03850000000000        5.83300000000000        4.32610000000000
H            5.69760000000000        3.86610000000000        3.03060000000000
H            4.46960000000000        5.88140000000000        2.59440000000000
H            5.76550000000000        1.47280000000000        3.61640000000000
H            2.36030000000000        7.15850000000000        2.61160000000000
H            0.26460000000000        1.66120000000000        3.43640000000000
H            0.17440000000000        2.79480000000000        5.15930000000000
H            4.58930000000000       -0.62370000000000        3.95430000000000
H            0.05360000000000        7.35690000000000        3.31070000000000
C           -0.01010000000000       -0.93060000000000        3.73290000000000
H           -1.80570000000000        4.18160000000000        5.46460000000000
H            2.47700000000000       -1.91140000000000        4.05320000000000
H           -1.92280000000000        6.43760000000000        4.46500000000000
N           -1.12660000000000       -0.22750000000000        3.68210000000000
N           -2.29430000000000       -0.90590000000000        3.69930000000000
C           -2.35730000000000       -2.28880000000000        3.83040000000000
N           -1.12020000000000       -2.91750000000000        3.73720000000000
N            0.05450000000000       -2.24830000000000        3.73510000000000
O           -3.38600000000000       -2.89160000000000        4.03190000000000
C           -3.44230000000000       -0.09220000000000        3.66800000000000
C           -3.30880000000000        1.24250000000000        4.05400000000000
C           -4.39800000000000        2.08780000000000        4.00840000000000
C           -5.63020000000000        1.61830000000000        3.58170000000000
C           -5.75990000000000        0.29590000000000        3.19140000000000
C           -4.67620000000000       -0.56200000000000        3.22480000000000
C           -1.00120000000000       -4.32010000000000        3.73810000000000
C           -1.98060000000000       -5.14200000000000        3.18760000000000
C           -1.79920000000000       -6.51240000000000        3.19070000000000
C           -0.65110000000000       -7.07310000000000        3.72500000000000
C            0.32900000000000       -6.25170000000000        4.25920000000000
C            0.15970000000000       -4.88220000000000        4.26740000000000
H           -2.34580000000000        1.59610000000000        4.38460000000000
H           -4.28530000000000        3.11860000000000        4.30960000000000
H           -6.48310000000000        2.27930000000000        3.55130000000000
H           -6.71430000000000       -0.07520000000000        2.84930000000000
H           -4.79400000000000       -1.58540000000000        2.91260000000000
H            0.91160000000000       -4.23000000000000        4.68170000000000
H            1.22790000000000       -6.68080000000000        4.67640000000000
H           -0.51950000000000       -8.14460000000000        3.72320000000000
H           -2.56190000000000       -7.14630000000000        2.76390000000000
H           -2.87520000000000       -4.71930000000000        2.76240000000000
116
 energy: -189.603363644926 gnorm: 0.033402806552 xtb: 6.6.1 (8d0f1dd)
C            2.37631392638472        3.40300544071353       -0.34113979063472
C            2.38119395266243        1.96909284214065       -0.26495429944114
C            1.22034035349911        4.20876178169220       -0.07034804446444
C            3.56917172964228        4.04990412069872       -0.71005018840847
C            3.62219701409894        1.27986916637285       -0.23149862281345
C            1.21199433577650        5.56104400707867       -0.49808488314281
C            4.78974806111506        3.32611727095763       -0.72597030128225
C            3.54774983896343        5.42210854557519       -1.07157663220780
C            4.82633279585567        2.00480927398014       -0.41934157859985
C            2.39179373802184        6.13052352731688       -1.04504017058262
C            1.21120870258443        1.19957802658615       -0.33288913016736
C            0.12171785980834        3.75710645739798        0.68499956734839
C            3.63296253872733       -0.12045178219045       -0.08799959472306
C            0.05512518239222        6.33871266516184       -0.31753838919097
C            1.24295034016500       -0.17669210208658       -0.20942628570913
C           -0.98275005519975        4.54760059217772        0.87866359154784
C            2.47140534044565       -0.84018122093782       -0.04586504820045
C           -1.03835229119190        5.83374986879024        0.33588027149397
H            5.69627551880889        3.86212230821298       -0.96689485012529
H            4.46923485894847        5.87816809178566       -1.40290170922552
H            5.76362089245708        1.46973690698241       -0.38008888769723
H            2.36057130325340        7.15573287050920       -1.38384049685585
H            0.26702686863519        1.66647211373447       -0.55821234385630
H            0.17502036547781        2.79593729711797        1.17159849079449
H            4.58696546241555       -0.62450889278080       -0.03871657445980
H            0.05429831593633        7.35471326809740       -0.68517541722418
C           -0.00969447618515       -0.92964532247838       -0.25653091677435
H           -1.80813150717272        4.18249189360943        1.47276143015230
H            2.47824552257422       -1.91291251145188        0.05963944279481
H           -1.92335686946743        6.43725829676902        0.47025888378424
N           -1.13154453321643       -0.23148809358602       -0.30636295091035
N           -2.29088997901331       -0.90205159088782       -0.28292115964145
C           -2.35420193677248       -2.28721362377527       -0.15033786888857
N           -1.11521114895279       -2.91615480294770       -0.24564032434637
N            0.04867638254774       -2.24984742087723       -0.25509109133407
O           -3.37856198255890       -2.88726658083091        0.06708186258054
C           -3.44203266220173       -0.09051546598430       -0.31841722534032
C           -3.30859677500615        1.24479295289751        0.06845778419133
C           -4.39821123952331        2.08804676232466        0.02037267015575
C           -5.62929089813796        1.61602579265598       -0.40991714534066
C           -5.75883259080472        0.29310175252285       -0.80077272982911
C           -4.67541898565702       -0.56448854637954       -0.76334926853127
C           -0.99928949094916       -4.32029134508457       -0.24912540491377
C           -1.98234284262531       -5.13981554584527       -0.80088041493945
C           -1.80040860978863       -6.50980765087033       -0.80184078706673
C           -0.65181076841622       -7.07082258763438       -0.26677613716723
C            0.32962139991291       -6.25143113878569        0.27062475348102
C            0.16240941999955       -4.88251061896944        0.28054584384779
H           -2.34667063080836        1.60048844693349        0.40047437778291
H           -4.28556166411938        3.11944059754814        0.31676779521601
H           -6.48086589896007        2.27745943512013       -0.44755439982874
H           -6.71005339492111       -0.07644759698427       -1.15160891164821
H           -4.79110703845526       -1.58507497075111       -1.08615347059734
H            0.91484130665609       -4.23199329219766        0.69678645865413
H            1.22913683706287       -6.68094326817658        0.68357722333738
H           -0.51856513849243       -8.14147475071409       -0.27501508584058
H           -2.55949835394105       -7.14191231071101       -1.23637456094536
H           -2.87230804487582       -4.71696421057398       -1.23595528699724
C            2.37093374387394        3.39977735219211        3.62178706470235
C            2.37869638225804        1.96599097477554        3.69519958717184
C            1.21475381860282        4.20452872657211        3.89828773656428
C            3.56457742177525        4.04700334336850        3.25654377102674
C            3.61999990173365        1.27741674842505        3.73304736476830
C            1.20674462991196        5.55801211025713        3.47437929118304
C            4.78663458293895        3.32524462215657        3.24739006998606
C            3.54319250421751        5.42049574481771        2.90207389925595
C            4.82407839796623        2.00396308752444        3.55377662277057
C            2.38699724541812        6.12845373751204        2.93011945060706
C            1.20998269285312        1.19543441321429        3.62989750781116
C            0.11999104564060        3.75453510388946        4.66195350435231
C            3.63204741422855       -0.12209985832733        3.88381217120862
C            0.05254942709782        6.33753012912153        3.66303716161837
C            1.24270430243967       -0.18040535330950        3.75309514294023
C           -0.98284388239261        4.54664915536682        4.86167076751279
C            2.47092326583090       -0.84259813271418        3.92318776746542
C           -1.03936172200742        5.83328348518359        4.32002048280254
H            5.69503667675397        3.86544369860712        3.02434536458750
H            4.46764860243958        5.88078687091478        2.58571726945978
H            5.76262963832523        1.47268508036021        3.61155494742319
H            2.35855238810994        7.15819236266854        2.60585519685802
H            0.26174093576207        1.66389735792746        3.42635949838180
H            0.17834423308312        2.79914327908301        5.16009340559873
H            4.58621746971547       -0.62371899040803        3.95316902575225
H            0.05640016901234        7.35729554606383        3.30685996287857
C           -0.01027047471295       -0.93230755422907        3.71032188186930
H           -1.80297426050179        4.18518592611281        5.46536262974852
H            2.47735534081421       -1.91338970668121        4.04744106478952
H           -1.91994540957217        6.44066307320938        4.46671069240985
N           -1.13137940053186       -0.23341216560587        3.65467309274384
N           -2.29106022518230       -0.90255164407409        3.68503664513332
C           -2.35619365081391       -2.28852292842927        3.82616817301690
N           -1.11590270083492       -2.91791943731863        3.72459321595451
N            0.04761531725191       -2.25238265043113        3.70919455275982
O           -3.38077392527209       -2.88778105783123        4.02895689940936
C           -3.44012927366105       -0.08894965029352        3.65059946605699
C           -3.30462493158484        1.24649847707063        4.03828426283072
C           -4.39466822463207        2.08968774508338        3.99664885672702
C           -5.62730915772526        1.61767730226009        3.57035714291305
C           -5.75804468700168        0.29511678395273        3.17824783819184
C           -4.67497253928270       -0.56297908194394        3.21025714505564
C           -0.99806007055869       -4.32113214804521        3.72396108541184
C           -1.98174606688787       -5.14180059773256        3.17542272650359
C           -1.79917671034792       -6.51148758100582        3.17952890144983
C           -0.65044231623877       -7.07095734539410        3.71637216407532
C            0.33161408375133       -6.25020582409266        4.25104022859591
C            0.16465752929362       -4.88124470321511        4.25513435543660
H           -2.34550995315368        1.59767997976252        4.38403966917099
H           -4.28543340247153        3.11670344325115        4.31052157709723
H           -6.48246568855373        2.27541440228917        3.55115662021866
H           -6.71338870606137       -0.07763232255533        2.84332075694808
H           -4.79396468207467       -1.58626158879224        2.89734803485972
H            0.91094415587589       -4.23050402545121        4.68261116680750
H            1.22505183183682       -6.67944503880154        4.67820745335868
H           -0.52290768246046       -8.14237264329028        3.72379402804310
H           -2.56359457965532       -7.14522706465726        2.75785292125387
H           -2.87586118205635       -4.72056609733686        2.74728864920480
116
 energy: -189.605837494698 gnorm: 0.010863989938 xtb: 6.6.1 (8d0f1dd)
C            2.37830432002880        3.40538121444114       -0.30459227711382
C            2.38124652453450        1.97157312927578       -0.22721518698622
C            1.22378391896346        4.21213701049411       -0.03677609937417
C            3.57097102574187        4.05002899056672       -0.68176185143377
C            3.62191238773303        1.28008780738524       -0.19793455271805
C            1.21567878253435        5.56272008749697       -0.47022057423151
C            4.78923224744621        3.32319312212078       -0.70487691167992
C            3.54952251486874        5.41964052176110       -1.05157942871155
C            4.82574324175649        2.00203115293713       -0.39557952575089
C            2.39371239525911        6.12909320527858       -1.02392414481768
C            1.21119878096949        1.20372852450497       -0.30071182597064
C            0.12211065300642        3.76019813176018        0.71280922836450
C            3.63166751512417       -0.12079520311154       -0.06086072934636
C            0.05710388518344        6.33906397432477       -0.29679886278506
C            1.24238550778477       -0.17477987074391       -0.17922483577587
C           -0.98438216455779        4.54972197585441        0.89994441194476
C            2.47067383818779       -0.84093075040994       -0.01957726021006
C           -1.03838398289808        5.83420458414093        0.35431024688053
H            5.69466212379232        3.85553655403828       -0.95646641547827
H            4.46848949251186        5.87250883099946       -1.39283523132290
H            5.76178308956664        1.46521952830169       -0.36589842576448
H            2.36147454236446        7.15097545861955       -1.37144176446646
H            0.27054042730080        1.67431034238442       -0.53412836857586
H            0.17520105911347        2.79794478028101        1.19741273428296
H            4.58475244757762       -0.62624448014149       -0.02036435845143
H            0.05346262302896        7.35186861483128       -0.67209399997807
C           -0.00577207071958       -0.92551965106118       -0.22712436357559
H           -1.81266799120405        4.18396187804401        1.48983101197742
H            2.47988454230021       -1.91405696512662        0.07911899319750
H           -1.92420795504421        6.43700140635665        0.48238281908788
N           -1.13702248288001       -0.23687104352292       -0.27839636637248
N           -2.28382714560244       -0.89571469224618       -0.24556387300817
C           -2.35054939100570       -2.28470327458337       -0.10515587642742
N           -1.10689430009067       -2.91176091749430       -0.20915279899855
N            0.04071147342351       -2.24975249111353       -0.22980655005173
O           -3.36974216979968       -2.88110060209483        0.13806671303627
C           -3.44072376158785       -0.08834247963481       -0.29091017892452
C           -3.30898260662387        1.24696790225735        0.09740257368545
C           -4.39942408026396        2.08800675300479        0.04157939468472
C           -5.62694790493476        1.61192924821086       -0.39631823814861
C           -5.75353314314348        0.28870253373343       -0.78871548912759
C           -4.66941247658737       -0.56795977621870       -0.74380229646951
C           -0.99641947907322       -4.31887874325576       -0.22269003765400
C           -1.98150960688575       -5.13202481066758       -0.78151467822461
C           -1.79978118730775       -6.50218551674979       -0.78969111438746
C           -0.65227108281631       -7.06576199878501       -0.25341326819891
C            0.33018473523292       -6.25111725549694        0.29069260478185
C            0.16472475605189       -4.88241056966820        0.30755992730225
H           -2.34918876990546        1.60520289878019        0.43331164989100
H           -4.28952015738428        3.11977244305058        0.33500747944007
H           -6.47843532911200        2.27229148371473       -0.44138114159408
H           -6.70141966910632       -0.08083362055602       -1.14681398041756
H           -4.78177276117634       -1.58686527285706       -1.07367729260393
H            0.91768572469786       -4.23456493836215        0.72709742096819
H            1.22876990111313       -6.68329909091825        0.70055667871201
H           -0.51934908674473       -8.13587361437555       -0.26833384097884
H           -2.55675879632430       -7.13161001404691       -1.23041885398297
H           -2.86788366901808       -4.70749499866185       -1.22251685842607
C            2.36375633846115        3.39728613011171        3.58653193341909
C            2.37333812872028        1.96378520067203        3.65854249903089
C            1.20987555297029        4.20141573265909        3.87028948441906
C            3.55833904781181        4.04376752894646        3.22005346196322
C            3.61498701645855        1.27431877677528        3.69844400108940
C            1.20196474727387        5.55567601831509        3.44832774946313
C            4.78049204763872        3.32248599363749        3.21792352084233
C            3.53791234298527        5.41783286008912        2.87099839871404
C            4.81912603693028        2.00120993379106        3.52626175279138
C            2.38147364591776        6.12607969679220        2.90364543924260
C            1.20598465359441        1.19388175451420        3.59374347263222
C            0.12060232341500        3.75300999225322        4.64296995857284
C            3.62755183380807       -0.12418939685576        3.85729503255759
C            0.05133769560299        6.33743026041718        3.64702596578620
C            1.24028841176151       -0.18416799594990        3.70996515081913
C           -0.98023817724512        4.54718886940613        4.85049281666450
C            2.46775022439795       -0.84667769093722        3.88992476838406
C           -1.03790208333559        5.83387370689123        4.31007367101010
H            5.68962080501914        3.86403931293938        3.00370281323208
H            4.46241914857063        5.87966076637801        2.55929406875342
H            5.75789878996270        1.47256450614870        3.59478943733743
H            2.35397883199701        7.15733495999427        2.58620808125196
H            0.25729411608986        1.66695474311764        3.40225024877756
H            0.18296679103659        2.79945559385372        5.14543347980774
H            4.58112345590059       -0.62385864800831        3.94135851621517
H            0.05433504622773        7.35773934438307        3.29445769152835
C           -0.00815741592208       -0.93297078310697        3.66520028988524
H           -1.79643806927940        4.18780005873520        5.46103594363713
H            2.47683305937937       -1.91615575440537        4.02389745123384
H           -1.91527246702446        6.44330216176917        4.46489014511308
N           -1.13815714905827       -0.24326003409866        3.60147967727895
N           -2.28553707561428       -0.89854366606804        3.65193930031769
C           -2.35796607821179       -2.29033087542448        3.80676981915966
N           -1.10973731080181       -2.91735170398455        3.69532284751572
N            0.03670339449350       -2.25690100414596        3.65989152938591
O           -3.37736650278744       -2.88478101514162        4.02188501043008
C           -3.43757064359331       -0.08584957089799        3.61769658134694
C           -3.29992691387256        1.24735388225144        4.01512794244939
C           -4.39121336201397        2.08867325829657        3.98070330952022
C           -5.62389038711397        1.61501667225082        3.55361230044367
C           -5.75550271414916        0.29417177136697        3.15486492954523
C           -4.67182555876308       -0.56347627528824        3.17861123689514
C           -0.99520797641901       -4.32246068799633        3.69693505501123
C           -1.98148089160384       -5.14093268135582        3.14851627597664
C           -1.79963787488899       -6.51064078613186        3.16013765777451
C           -0.65256455285759       -7.06810667454485        3.70396481224424
C            0.33018245403058       -6.24800063860541        4.24041736968104
C            0.16565413230925       -4.87913599059490        4.23782140412044
H           -2.34272940316025        1.59683850948644        4.36894904758022
H           -4.28432760178735        3.11301896377637        4.30247357609795
H           -6.48025967049332        2.27066658654926        3.54345538422646
H           -6.71185577657375       -0.07876652675874        2.82575057860037
H           -4.79171281679186       -1.58564373531838        2.86227257396672
H            0.90845268152362       -4.22872125433309        4.67226722413417
H            1.21983522630954       -6.67713160381004        4.67398977493115
H           -0.52749275409733       -8.13921981252040        3.71899809399442
H           -2.56446130092595       -7.14508995251426        2.74251435315116
H           -2.87423670762165       -4.72142023483346        2.71578093033202
116
 energy: -189.607358867843 gnorm: 0.023806236121 xtb: 6.6.1 (8d0f1dd)
C            2.38052125080603        3.40702618779890       -0.27316753263862
C            2.38315670448111        1.97328026410941       -0.19416758463732
C            1.22603964385630        4.21424268648958       -0.00786045442389
C            3.57247199291182        4.04967519233990       -0.65592647306551
C            3.62357453662178        1.28045748904137       -0.16843330636889
C            1.21795276086702        5.56359413800423       -0.44551223546201
C            4.78968647831742        3.32143572882783       -0.68336817309751
C            3.55061685260975        5.41779066778999       -1.03078255652645
C            4.82682881584801        2.00072677511142       -0.37180301628382
C            2.39519726073999        6.12779223495858       -1.00267576638684
C            1.21312008783300        1.20634367555037       -0.26855912662575
C            0.12193959279239        3.76286668220108        0.73860647214350
C            3.63304730085395       -0.12074655941399       -0.03434514124852
C            0.05826594643764        6.33926695365398       -0.27694204604792
C            1.24428044091099       -0.17267127173899       -0.14941101179528
C           -0.98589189339578        4.55151064797176        0.92020414471942
C            2.47220090891461       -0.84047150010166        0.00746232173762
C           -1.03862921533643        5.83495710557098        0.37207487687170
H            5.69426686790834        3.85144948499544       -0.94286094146279
H            4.46832756833725        5.86864285566475       -1.37792877457097
H            5.76235120893686        1.46291024838056       -0.34755452751267
H            2.36248392309424        7.14778885672418       -1.35549269595263
H            0.27342978171047        1.67816141731567       -0.50301510764759
H            0.17473329272814        2.80118122801109        1.22415150974969
H            4.58579762044223       -0.62703524978582        0.00163712085702
H            0.05461932079550        7.35114847786240       -0.65441258313275
C           -0.00070633471186       -0.92116354653529       -0.19763492315303
H           -1.81614549603398        4.18592303339210        1.50755541743758
H            2.48149868173014       -1.91383143994559        0.10249327904539
H           -1.92524201846236        6.43755469631280        0.49559682117732
N           -1.13684084650418       -0.23783992215182       -0.24980514799990
N           -2.27917515648001       -0.89258118829128       -0.20833377381755