116
 energy: -22.928061455056 gnorm: 0.329736929581 xtb: 6.6.1 (8d0f1dd)
C           -3.31122850772930        0.79849766164622       -0.92477639677520
C           -2.44380812530352       -0.12270372891954       -0.27661132624697
C           -1.41337090092821        0.39579727573559        0.56335275196199
C           -0.89266158675590        1.65801491088749        0.27377586709581
C           -1.72665675402493        2.51431363229076       -0.49448366572522
C           -2.95444148494349        2.13954154133227       -1.01494489940871
C           -0.74098268209890       -0.43411532818871        1.49825021926784
C            0.56872586496315        0.03782116815119        1.86248088067890
C            1.03782416582094        1.29402317993033        1.50887470833621
N            0.31238977034758        2.07067427098208        0.65193736800696
C           -1.29695700510141       -1.39996043042223        2.41574187746061
C           -0.38243517664656       -2.18060797534842        3.13232615520648
N            0.91308504082021       -1.90366887689689        3.30325166013478
C            1.37712470144904       -0.74872102533751        2.81811050966982
C            2.52149331701875       -0.17739833758153        3.39379298866852
C            2.95849061756259        1.02681208890480        2.95105897606587
C            2.24288949469137        1.78498308775960        2.03503020483770
C           -2.74860936222260       -1.74497937691422        2.38401158947411
C           -3.09416315450955       -2.91614440870436        3.00571134491758
C           -2.16786021984049       -3.77788778654213        3.63251872101904
C           -0.85708937311598       -3.40495313382985        3.68547234358092
O           -3.71994433332149       -0.94984598373544        1.67726658385724
O           -2.55702603277562       -1.47241711578389       -0.57241635275616
C           -3.84297843593025        3.13357444054366       -1.60938954875544
C           -2.68769581069131       -5.03867041417370        4.30484659386931
H           -1.39666850744143        3.51251503834900       -0.76806311868865
H           -4.27662633836220        0.55105838579656       -1.33106614114542
H            2.66329581305412        2.73912661909249        1.72562431984580
H            3.05775395548473       -0.69369546277216        4.16536137542516
H           -0.24710966264510       -4.12034095424229        4.22946223699121
H           -4.11477991332403       -3.04712728052358        3.03244694615357
O           -4.21824883374556        4.03433712717988       -0.87713382485991
O           -4.44510595673734        2.90643496899600       -2.81853501752979
C           -5.44216520282800        3.83300025693726       -3.02488532025093
C            4.23586651889298        1.50004220933226        3.59165660008449
O            5.05927614697201        0.66079890002952        3.91714215179376
O            4.47001334453535        2.86385149488593        3.72605651435371
C            5.79457498613219        3.08584475587818        4.15829123132174
O           -3.82227255313510       -5.27347675879771        4.16636005494405
O           -1.85023202017753       -5.79767454267276        5.06656077253571
C           -2.55119635829503       -6.86252441382958        5.62930343183426
C           -5.07197156564436       -1.42399175670916        1.58830531863830
C           -1.33089900128490       -2.23622472573986       -0.99264499351172
H           -2.54510546830388       -7.76426885143998        4.99136022291012
H           -3.57194749219491       -6.44405511486021        5.74196173723541
H           -2.09133598235598       -7.02043774843818        6.64022264233588
H            5.72707967266424        3.46798026205549        5.10135971236643
H            6.34060091246885        3.78468702308830        3.50069950143490
H            6.17933064298187        2.03010500085905        4.19342358084693
H           -0.91862729772622       -2.57650129080332       -0.01361370304871
H           -0.49769766914251       -1.60651221708571       -1.34094446550576
H           -1.52632419730509       -2.94569707152159       -1.75361447637286
H           -5.11788846557077       -2.41810833635233        1.17520213188926
H           -5.67929807973498       -0.69619639428435        1.04301666067831
H           -5.57598832326623       -1.42383358739762        2.57928294206544
H           -6.13050215934830        3.76035386975488       -2.23272855695873
H           -5.86615610071888        3.45938329385866       -4.02668959924245
H           -5.13479557532099        4.87790991548477       -2.98314551356402
C           -1.38192942069774        3.73616555005018        2.91232598411686
C           -1.84821468128685        2.59982427735607        3.49755545445181
C           -1.05946531454833        2.05730632010638        4.60922730982276
C            0.19893954712228        2.69376791964407        4.86302140881997
C            0.50425395911860        3.94630308659851        4.28768785650746
C           -0.26031777722226        4.46998310053134        3.25072669343212
C           -1.20488993561782        0.74454293276906        5.14851520323437
C           -0.06287609782692        0.02744069315890        5.60930570802864
C            1.19208754369866        0.71421540266195        5.78882868583885
N            1.19428660993148        2.06344359410476        5.62744624321596
C           -2.41361422770794        0.07928500213936        5.25249410304426
C           -2.45851584031083       -1.32662100968547        5.60237876023992
N           -1.29466212405906       -1.98318595734370        5.89916817085159
C           -0.14475655767527       -1.32117560077092        5.98824682881008
C            0.97209270935794       -1.98958449505532        6.53157704134458
C            2.21982707914082       -1.36973967291181        6.68703967237737
C            2.30561929262884       -0.09745313075593        6.26436900324455
C           -3.73018485967715        0.71367583494582        5.25810242262992
C           -4.89964478833448       -0.06184623426677        5.21204641615509
C           -4.82617965800088       -1.39228978090841        5.46901303780036
C           -3.67144193418464       -1.98914944386360        5.67265433266067
O           -3.75568638935321        2.07705011038914        5.52067969627343
O           -2.94192434743730        1.91263938797883        3.01658762327703
C            0.21273512614467        5.50086066357994        2.34765104514621
C           -6.06660304520411       -2.17604633098929        5.80641622556876
H            1.41756699010566        4.38133362238595        4.66974005703471
H           -1.82880610647429        4.11982501512100        2.06992133318584
H            3.26888037378556        0.32655662585251        6.31721410015598
H            0.87146188387207       -3.08471526305024        6.57830423410869
H           -3.67716811065157       -3.05999292755990        5.83019634570050
H           -5.77379677507622        0.43595144608221        4.71017130754348
O            1.34459852619901        5.82615848916894        2.44941456579099
O           -0.74718748219123        6.07961784856304        1.59848183464284
C           -0.21473095568964        7.24015934882472        1.05753806029483
C            3.53228080814219       -2.00967610361154        7.02506769044485
O            3.64093082622715       -3.14437803815732        7.50071391725347
O            4.56565258381079       -1.22937033368332        6.69086985080897
C            5.72579357310716       -1.80692399125161        7.22246151275881
O           -7.04801223588612       -1.95726935745904        5.14194115322235
O           -6.01514389321278       -2.93743591896022        6.94765316328794
C           -7.21292732384718       -3.62681918543340        7.15115816329978
C           -4.95459780685163        2.65960679932188        5.86868674392943
C           -3.68284113682406        2.59129188358641        2.05479246020704
H           -7.43119628931628       -4.22607794725959        6.20622607140901
H           -8.06548455146707       -2.91765848248592        7.29781126410398
H           -7.07314693247270       -4.33087306029711        7.91223421050944
H            6.57332189837178       -1.29353136199234        6.78341268688262
H            5.74663761932316       -2.84282155125561        6.88089468184451
H            5.69426191474290       -1.72781984964892        8.29460302186842
H           -4.10481209541493        3.44288266176275        2.60483747673152
H           -4.49244774344916        1.87419893016926        1.82433103764650
H           -3.18901540870812        2.85154642679373        1.06781919454921
H           -5.55414326821421        2.76698137191684        4.93950725322359
H           -4.78658370641210        3.62090640967288        6.25983200635257
H           -5.43485580473958        1.97242995129449        6.65265772412460
H            0.89164886030839        7.38838561720231        1.13776105146914
H           -0.62894889903848        8.04195665205089        1.64837664327952
H           -0.59282546386754        7.45699159724320        0.03719083132488
116
 energy: -22.672657482840 gnorm: 0.499798880951 xtb: 6.6.1 (8d0f1dd)
C           -3.29284547698661        0.57706555595807       -0.65875676556089
C           -2.24271508691856       -0.43431446687208       -0.50725877901221
C           -1.07951829558267        0.04337419824380        0.13774770114450
C           -0.95532964947744        1.49571673419783        0.32604181950103
C           -1.96300860050996        2.38765527775067       -0.10246878982132
C           -3.20377825415542        1.96026815342933       -0.52506636365353
C           -0.30017551425528       -0.75210010339568        1.14069081059636
C            0.88624466480805       -0.17335826745840        1.63415580259444
C            1.03975445631088        1.20264411476058        1.43073850690693
N            0.23073837285000        2.01662449495842        0.68454724488881
C           -0.71560076926075       -2.02269827824411        1.64651246309330
C            0.33456503971318       -2.66376327441582        2.40697106861694
N            1.56675145732416       -2.14229547194371        2.72022748750867
C            1.73885353874229       -0.86320481374550        2.58738850580564
C            2.88094544005896       -0.15544333195164        3.05999617952539
C            3.02855432872697        1.16626155857425        2.74078726684184
C            2.07220906816079        1.92865212735475        2.03181839712806
C           -2.13981544661777       -2.51768059845348        1.67347408954151
C           -2.28430194400295       -3.71493304296510        2.42040138815217
C           -1.24851972252786       -4.25531619065532        3.18394595497527
C            0.01878462826483       -3.68600473882998        3.20861359620161
O           -3.32529641862137       -1.85865150261865        1.31788295558130
O           -2.43642549845193       -1.68771843122676       -1.19366198169560
C           -4.57841783699774        2.73223871925377       -0.55071262120617
C           -1.50283896222043       -5.37363474694153        4.13047056770476
H           -1.68591211765343        3.40604467017273        0.00488226217465
H           -4.16431083857405        0.19210349126197       -1.17219296971556
H            2.27455750342890        2.82797771570758        1.57092450399464
H            3.90788771147117       -0.68414219867773        3.43497486578003
H            0.88643826750788       -4.17372648867201        3.80918688610042
H           -3.22718879032313       -4.22711168270748        2.47780983748884
O           -4.63670137622874        3.90276153229749       -0.50320940929795
O           -5.68919112625237        1.86555491917524       -0.74249543880855
C           -6.75643650952915        2.63770012426448       -1.12772381969877
C            4.06289019803458        1.91346640780611        3.56735323555723
O            4.93526962024249        1.40902554556640        4.20037591990726
O            3.98167870603544        3.32113576356647        3.60511259103450
C            4.95386685551213        4.26033157499769        4.13797442375090
O           -2.26926972394860       -6.36323252568281        3.84488150288302
O           -0.90060723191631       -5.08247893516708        5.42145409946954
C           -1.11192716132480       -5.95829353533253        6.56914229039823
C           -3.60142610369510       -1.09855933138067        2.40981873753351
C           -1.24223751883480       -2.23999473348259       -1.70052734579804
H           -1.45450394491405       -6.97327798665575        6.30477864324081
H           -1.96863947428313       -5.57989009459355        7.06629490468956
H           -0.37547778366707       -5.85438634601547        7.34205706180587
H            5.46904363246396        3.84646862271780        4.97641388582651
H            4.40884252221980        5.24624909521354        4.00734798289743
H            5.82344484488755        4.43147637949676        3.37818472079957
H           -1.39440135003575       -3.22389097121769       -2.26432826435301
H           -0.44900181622946       -2.67844441790046       -1.08416848005452
H           -0.80788098526167       -1.40294317016856       -2.29122020846726
H           -4.07860050634055       -1.75977474042833        3.20770633767666
H           -4.36255936292673       -0.36263279451169        2.00265680775527
H           -2.76270164519438       -0.65301071953074        2.92558241687919
H           -6.68244722455326        3.32053805250248       -0.27162417925748
H           -7.63082095625160        2.01709807439723       -1.28335185732392
H           -6.41267736458399        3.04151592062142       -1.96130793472816
C           -1.44022657686486        3.71105635713726        2.99117852727785
C           -1.78299285297561        2.46603362967722        3.41884325700684
C           -0.89143321809379        1.87883711393647        4.36702133690135
C            0.41725707459801        2.38444787201477        4.50534078235649
C            0.71219558082897        3.55300447098592        3.92012244656120
C           -0.21739449712020        4.32124937406321        3.27720017284356
C           -1.27347107579201        0.79605455884155        5.21440148622106
C           -0.27968954791999       -0.02623613434340        5.79469147690042
C            1.08534351891046        0.36539622136281        5.86504717093899
N            1.32828085278688        1.73739160204099        5.36317474299817
C           -2.66393115867342        0.44097540249531        5.50414944426482
C           -2.89663401592500       -0.89571171179559        5.80384398273546
N           -1.85371828601217       -1.73148165216765        5.71230845674461
C           -0.53328304199310       -1.37894562453148        6.14510960150004
C            0.53848882790134       -2.33236031824436        6.38328151233779
C            1.77231376589329       -1.78116588979033        6.51866844458215
C            2.11722135129312       -0.55757457038947        6.22650753776816
C           -3.73562370269292        1.36977250066163        5.74918943635779
C           -5.06239491538392        0.85714686439594        6.00408622233415
C           -5.31041823500378       -0.54606274834483        5.86775675660360
C           -4.21361887586950       -1.41091904322510        5.79690947101253
O           -3.68698275876605        2.79765200139032        5.68834857356920
O           -3.03749356252543        1.96314603166850        3.08973260174595
C            0.24570697763039        5.54480533112590        2.53217364567173
C           -6.75772600976013       -0.94825373996846        5.61492237250720
H            1.67456197404500        4.01550708501970        4.00980801625344
H           -2.20252399850130        4.26177961927203        2.49757762734651
H            3.18131117566501       -0.33852005008636        6.07756715574336
H            0.51166918744488       -3.42222023428755        6.34827248428661
H           -4.41271810747355       -2.41989498414035        5.50251350659833
H           -5.91509101371379        1.41196879749549        6.19605145354217
O            1.43003910265320        5.73854148742015        2.50335909079329
O           -0.67511518112291        6.04543198122441        1.64010073361532
C            0.09771771633152        6.45213233077249        0.48661016297074
C            2.77382621835742       -2.68252207601171        6.98976336372287
O            2.62833242770799       -3.82941062233027        6.88089640656060
O            3.91596227988433       -2.00937410026965        7.43733050139713
C            5.22715772621437       -2.72544133043325        7.56804939489630
O           -7.70720548812422       -0.25434150439704        5.92241007584694
O           -6.79534334922101       -2.02497409410987        4.86244361765277
C           -7.99304459946746       -2.00893292202215        4.11937838703910
C           -4.38575814965586        3.33794366319899        6.91136716284812
C           -3.93575266897428        2.81942312918527        2.51912444666480
H           -8.70756774390216       -1.38903011469158        4.73589109046252
H           -8.18433808887643       -3.14909732866898        4.02314209117751
H           -8.04808784477805       -1.68589286417899        3.13766132551027
H            5.22265255332426       -3.72830210890197        7.93578426405086
H            5.75029240919511       -2.39032934006907        8.37954902102694
H            5.60890393249841       -2.21612435109524        6.57381848447249
H           -4.81225872640543        3.28020443389140        3.18415537767638
H           -4.77449500396461        2.16653339020067        2.08336616834377
H           -3.50092276022017        3.30376266138242        1.71120611771247
H           -4.14842537378172        4.46251953963875        6.97981679199690
H           -4.25551962917655        2.92333355217968        7.92656176535390
H           -5.36323754737129        3.15137051147963        6.77953864389878
H            0.91315406146741        5.68114908070640        0.39410672552886
H            0.63684270911093        7.44283636042277        0.53818807178441
H           -0.39362521035155        6.39820961585724       -0.43530168344328
116
 energy: -22.695678825609 gnorm: 0.495994527161 xtb: 6.6.1 (8d0f1dd)
C           -2.89757014805844        0.08702537667778       -0.62780621612207
C           -1.69690413179243       -0.61819035326868       -0.28981597499956
C           -0.56413278971324        0.00799991380209        0.35320864690176
C           -0.41646434713768        1.43317356697894        0.17461404893319
C           -1.54835665741393        2.17567982013362       -0.36979487255467
C           -2.74995731837348        1.46019175404247       -0.49369222049073
C            0.12625859310402       -0.53938168091514        1.43530602514850
C            1.31839121360717        0.13649805641394        1.74851211765654
C            1.57785406912906        1.42398964271819        1.19403529265512
N            0.65853852549974        2.17957096323676        0.50401452320374
C           -0.16687593559448       -1.84292046448611        1.95807098390641
C            0.97504740769876       -2.52304917697958        2.65513259011565
N            2.19934084432186       -1.92647314468377        2.63114158509581
C            2.35938906332982       -0.56578621773711        2.45370549845591
C            3.57503144044349        0.13969291418908        2.81074250951440
C            3.73666163726144        1.35635553023102        2.17605414891951
C            2.80758841467352        2.00167173577830        1.40477154345591
C           -1.47055796042905       -2.17942555074773        2.50065080537876
C           -1.60205370754150       -3.32767790240452        3.18511118682182
C           -0.50993958539160       -4.16356386735088        3.57630530945075
C            0.77340060226056       -3.69250036609830        3.35671161403425
O           -2.60075977705409       -1.32248543860041        2.22119033862162
O           -1.69162452246394       -2.05384390562382       -0.10055704665544
C           -4.02580335232265        2.20453525433231       -0.87598747844532
C           -0.64473618436177       -5.52239425836810        4.29815395481567
H           -1.60955929775157        3.28113847062446       -0.54621400504444
H           -3.90623516613965       -0.26788841130044       -0.94286619299077
H            2.88187227213804        3.08730506932650        1.30106028123940
H            4.38058490043128       -0.33885585128362        3.07695791566435
H            1.65832655497998       -4.10474660224028        3.93236888159104
H           -2.55089106720734       -3.81213682138190        3.46337739225196
O           -4.39128687561894        3.30035922759095       -0.30684899586241
O           -4.86003928496380        1.56513688674810       -1.68723815867711
C           -6.15268070780370        2.33538298450961       -1.84177613450875
C            5.04229320312152        1.84238343519964        1.85213741226703
O            5.93405508518733        1.05883668015813        1.98498670544668
O            5.14979110059063        3.19159025646795        1.42469350345567
C            6.37943811620919        3.55033489521982        0.95411780742756
O           -1.59441043692603       -5.97874105049756        4.81102353784394
O            0.60997928072160       -6.10463303628415        4.26280364867140
C            0.61288685715052       -7.39063154388500        4.95096946645963
C           -2.88932766530667       -0.61446158017233        3.41497879246082
C           -0.80365075925564       -2.67973150063764       -0.94944278230528
H            0.82399491179803       -8.43326307386975        4.46046304539235
H           -0.31505432809715       -7.62354874594478        5.46271048337414
H            1.31898799525207       -7.33209805625321        5.70432610998151
H            6.87591048427426        2.87433214585346        1.74726113071536
H            6.53309196810965        4.53304160893918        1.24279146868371
H            6.52193868501646        3.37348263437025       -0.03558065035311
H            0.09148268611762       -3.06346575854934       -0.40890545179122
H           -0.57732726921723       -1.82547117581961       -1.67010238938952
H           -1.24287075880887       -3.59314565797387       -1.48584431266110
H           -2.17281074282754        0.25208740352466        3.49488328727925
H           -2.92778286838923       -1.30546249149084        4.23919312900455
H           -4.06012864494127       -0.32753815327686        3.59432713410700
H           -6.92102563904394        2.18237238994061       -0.97679792775764
H           -6.65595153266363        1.90898083378912       -2.65501850699069
H           -5.91707971670603        3.43480483279679       -1.96557486117507
C           -2.01057010604448        4.06137166883372        3.43954463589272
C           -2.41428884376150        2.79616871752670        3.87797962460099
C           -1.75653312405493        2.24289252039842        5.03082691674575
C           -0.40247585657109        2.47932655929810        5.23168166546289
C            0.11173700991803        3.72813377766994        4.65334709573457
C           -0.73185568372868        4.60125929865191        3.83895220734818
C           -2.23657767704991        1.10030459915914        5.76701533264411
C           -1.25642384962104        0.13512785847965        6.22650268817110
C            0.08556207619186        0.38372429382265        6.14442218362812
N            0.44967459726673        1.62485785631860        5.85840138361780
C           -3.54455596280802        0.85069106313782        6.27103876359657
C           -3.72075990117957       -0.45650089118621        6.68154135290165
N           -2.89357992220563       -1.51749698112471        6.86995118465387
C           -1.60034373357348       -1.16339226121384        6.66182186807745
C           -0.55708691473162       -2.00872969032773        7.04273190929406
C            0.78893868753330       -1.74429117950682        6.80830070051814
C            1.15415312634402       -0.50713047798913        6.31378576160677
C           -4.61124148228017        1.80811417037465        6.07731324015425
C           -5.90575714728351        1.22932222966664        5.79887998239447
C           -6.19341328053921       -0.13372290462848        6.03468723458050
C           -5.12618785098740       -0.96057431531548        6.49112195569863
O           -4.24233215826917        3.22477881575879        6.04850050413702
O           -3.49199639909302        2.07985954154442        3.32280438919129
C           -0.17190096654341        5.90532199329223        3.35551487040379
C           -7.49203295301013       -0.77886172452194        5.59631423070061
H            1.22543884255400        3.91506076437797        4.72859818706065
H           -2.54575110428166        4.90700852080741        2.92905332921533
H            2.20744109879063       -0.30053064082825        5.98110625470082
H           -0.82484808668649       -2.72481272608542        7.73529303379114
H           -5.35193243531217       -1.98076346042354        6.53012591363112
H           -6.70075942066134        1.80078363666958        5.28781624051952
O            0.51275489264976        6.58614670822762        4.15254673473134
O           -0.36427439539500        6.07732045724410        1.97738344151361
C            0.65157374260347        6.81666501976866        1.24446997175068
C            1.76703499381947       -2.81647345079891        6.72080627236604
O            1.34465645335676       -3.96596384813640        7.04687844219011
O            3.04999888920016       -2.58831706376043        6.21760278181583
C            3.75902388260581       -3.81261915804403        6.12136133790911
O           -8.53978679176368       -0.16225684513080        5.71036786359208
O           -7.27122298281625       -2.02089600045797        5.27876399171066
C           -8.31817023857606       -2.32385393418187        4.49982931225971
C           -5.41303941768959        3.89772943679063        6.45411456079271
C           -4.27346705481506        2.79629765532126        2.45980682064684
H           -8.76400044826743       -3.38411272856176        4.67240418901370
H           -8.01998061043652       -1.87969214068902        3.47535091828932
H           -9.19406692768453       -1.65016435181765        4.92269735733519
H            3.15658596733594       -4.50970413158805        6.74623549677668
H            4.85459763138235       -3.99807110105440        6.29415514799704
H            3.53764682487122       -4.00510669322714        5.02462272176150
H           -4.88794635908210        3.53176264518962        2.93352690120270
H           -5.01494367854053        2.22903586512674        1.91826745243706
H           -3.58601038289371        3.36880354320804        1.71089153890341
H           -6.04842604590638        3.26020571233781        6.92653327721664
H           -5.80776794898178        4.45981120285501        5.53266402656606
H           -5.02172451701375        4.48339793268558        7.28616556119535
H            0.92354417392487        7.67551654074810        1.75066171136540
H            0.06945277015055        7.13707367455321        0.36725739598174
H            1.43754812010913        6.11108597455823        1.11065310468894
116
 energy: -22.680325138727 gnorm: 0.508656084629 xtb: 6.6.1 (8d0f1dd)
C           -2.63715676628941        0.49082768215881       -0.88495460595017
C           -1.60535274307257       -0.33075576987033       -0.39368528725468
C           -0.55948700641850        0.29022809861971        0.40254849016133
C           -0.46025264756922        1.72623412018395        0.37051480450231
C           -1.53956417425664        2.46263462242356       -0.29086607670439
C           -2.58598150236263        1.85211264160564       -0.89671608849695
C            0.43153962565015       -0.47798856526683        1.16478778908509
C            1.70035014029373        0.21030932950358        1.17606068366273
C            1.79518992316363        1.65299521531218        0.85338425170085
N            0.64436948249585        2.41809671938938        0.72679192261046
C            0.46676933416808       -1.83221800132275        1.85852046519839
C            1.75923778786395       -2.45518347626390        2.26387623832229
N            2.91484597585466       -1.74445369938189        2.08454798630528
C            2.81107047751707       -0.44490439120298        1.64667347294090
C            4.05566287610562        0.16053636190515        1.73414260243671
C            4.14466147360993        1.41196535587677        1.19518292312260
C            3.04975817914939        2.25577296543986        0.88442822474740
C           -0.73599639133994       -2.72308906534893        2.20002413139781
C           -0.67418761429279       -4.04686813788101        2.77850022022543
C            0.56309391868183       -4.49329574902005        3.29969155511777
C            1.70354167203881       -3.69104740686890        3.00361396518790
O           -2.02571447321594       -2.24609534395696        1.86154152935739
O           -1.59182049447562       -1.73477842205585       -0.60713622803439
C           -3.50898379628668        2.86555020429801       -1.33398039047641
C            0.64601362445099       -5.84041637537203        3.89938854723676
H           -1.49253431979610        3.59143888713391       -0.09059908395007
H           -3.42933370930864        0.08386703433535       -1.52850441714641
H            3.34002324720356        3.18933567052012        0.28904862454976
H            4.90640848338756       -0.35241502339922        2.16124913194448
H            2.63953780851738       -4.39745345770281        3.10078586470469
H           -1.51959135962427       -4.68981638765525        2.82566813331341
O           -3.55396606106353        3.89015552476197       -0.75021108647624