116
 energy: -22.928061455056 gnorm: 0.329736929581 xtb: 6.6.1 (8d0f1dd)
C           -3.31122850772930        0.79849766164622       -0.92477639677520
C           -2.44380812530352       -0.12270372891954       -0.27661132624697
C           -1.41337090092821        0.39579727573559        0.56335275196199
C           -0.89266158675590        1.65801491088749        0.27377586709581
C           -1.72665675402493        2.51431363229076       -0.49448366572522
C           -2.95444148494349        2.13954154133227       -1.01494489940871
C           -0.74098268209890       -0.43411532818871        1.49825021926784
C            0.56872586496315        0.03782116815119        1.86248088067890
C            1.03782416582094        1.29402317993033        1.50887470833621
N            0.31238977034758        2.07067427098208        0.65193736800696
C           -1.29695700510141       -1.39996043042223        2.41574187746061
C           -0.38243517664656       -2.18060797534842        3.13232615520648
N            0.91308504082021       -1.90366887689689        3.30325166013478
C            1.37712470144904       -0.74872102533751        2.81811050966982
C            2.52149331701875       -0.17739833758153        3.39379298866852
C            2.95849061756259        1.02681208890480        2.95105897606587
C            2.24288949469137        1.78498308775960        2.03503020483770
C           -2.74860936222260       -1.74497937691422        2.38401158947411
C           -3.09416315450955       -2.91614440870436        3.00571134491758
C           -2.16786021984049       -3.77788778654213        3.63251872101904
C           -0.85708937311598       -3.40495313382985        3.68547234358092
O           -3.71994433332149       -0.94984598373544        1.67726658385724
O           -2.55702603277562       -1.47241711578389       -0.57241635275616
C           -3.84297843593025        3.13357444054366       -1.60938954875544
C           -2.68769581069131       -5.03867041417370        4.30484659386931
H           -1.39666850744143        3.51251503834900       -0.76806311868865
H           -4.27662633836220        0.55105838579656       -1.33106614114542
H            2.66329581305412        2.73912661909249        1.72562431984580
H            3.05775395548473       -0.69369546277216        4.16536137542516
H           -0.24710966264510       -4.12034095424229        4.22946223699121
H           -4.11477991332403       -3.04712728052358        3.03244694615357
O           -4.21824883374556        4.03433712717988       -0.87713382485991
O           -4.44510595673734        2.90643496899600       -2.81853501752979
C           -5.44216520282800        3.83300025693726       -3.02488532025093
C            4.23586651889298        1.50004220933226        3.59165660008449
O            5.05927614697201        0.66079890002952        3.91714215179376
O            4.47001334453535        2.86385149488593        3.72605651435371
C            5.79457498613219        3.08584475587818        4.15829123132174
O           -3.82227255313510       -5.27347675879771        4.16636005494405
O           -1.85023202017753       -5.79767454267276        5.06656077253571
C           -2.55119635829503       -6.86252441382958        5.62930343183426
C           -5.07197156564436       -1.42399175670916        1.58830531863830
C           -1.33089900128490       -2.23622472573986       -0.99264499351172
H           -2.54510546830388       -7.76426885143998        4.99136022291012
H           -3.57194749219491       -6.44405511486021        5.74196173723541
H           -2.09133598235598       -7.02043774843818        6.64022264233588
H            5.72707967266424        3.46798026205549        5.10135971236643
H            6.34060091246885        3.78468702308830        3.50069950143490
H            6.17933064298187        2.03010500085905        4.19342358084693
H           -0.91862729772622       -2.57650129080332       -0.01361370304871
H           -0.49769766914251       -1.60651221708571       -1.34094446550576
H           -1.52632419730509       -2.94569707152159       -1.75361447637286
H           -5.11788846557077       -2.41810833635233        1.17520213188926
H           -5.67929807973498       -0.69619639428435        1.04301666067831
H           -5.57598832326623       -1.42383358739762        2.57928294206544
H           -6.13050215934830        3.76035386975488       -2.23272855695873
H           -5.86615610071888        3.45938329385866       -4.02668959924245
H           -5.13479557532099        4.87790991548477       -2.98314551356402
C           -1.38192942069774        3.73616555005018        2.91232598411686
C           -1.84821468128685        2.59982427735607        3.49755545445181
C           -1.05946531454833        2.05730632010638        4.60922730982276
C            0.19893954712228        2.69376791964407        4.86302140881997
C            0.50425395911860        3.94630308659851        4.28768785650746
C           -0.26031777722226        4.46998310053134        3.25072669343212
C           -1.20488993561782        0.74454293276906        5.14851520323437
C           -0.06287609782692        0.02744069315890        5.60930570802864
C            1.19208754369866        0.71421540266195        5.78882868583885
N            1.19428660993148        2.06344359410476        5.62744624321596
C           -2.41361422770794        0.07928500213936        5.25249410304426
C           -2.45851584031083       -1.32662100968547        5.60237876023992
N           -1.29466212405906       -1.98318595734370        5.89916817085159
C           -0.14475655767527       -1.32117560077092        5.98824682881008
C            0.97209270935794       -1.98958449505532        6.53157704134458
C            2.21982707914082       -1.36973967291181        6.68703967237737
C            2.30561929262884       -0.09745313075593        6.26436900324455
C           -3.73018485967715        0.71367583494582        5.25810242262992
C           -4.89964478833448       -0.06184623426677        5.21204641615509
C           -4.82617965800088       -1.39228978090841        5.46901303780036
C           -3.67144193418464       -1.98914944386360        5.67265433266067
O           -3.75568638935321        2.07705011038914        5.52067969627343
O           -2.94192434743730        1.91263938797883        3.01658762327703
C            0.21273512614467        5.50086066357994        2.34765104514621
C           -6.06660304520411       -2.17604633098929        5.80641622556876
H            1.41756699010566        4.38133362238595        4.66974005703471
H           -1.82880610647429        4.11982501512100        2.06992133318584
H            3.26888037378556        0.32655662585251        6.31721410015598
H            0.87146188387207       -3.08471526305024        6.57830423410869
H           -3.67716811065157       -3.05999292755990        5.83019634570050
H           -5.77379677507622        0.43595144608221        4.71017130754348
O            1.34459852619901        5.82615848916894        2.44941456579099
O           -0.74718748219123        6.07961784856304        1.59848183464284
C           -0.21473095568964        7.24015934882472        1.05753806029483
C            3.53228080814219       -2.00967610361154        7.02506769044485
O            3.64093082622715       -3.14437803815732        7.50071391725347
O            4.56565258381079       -1.22937033368332        6.69086985080897
C            5.72579357310716       -1.80692399125161        7.22246151275881
O           -7.04801223588612       -1.95726935745904        5.14194115322235
O           -6.01514389321278       -2.93743591896022        6.94765316328794
C           -7.21292732384718       -3.62681918543340        7.15115816329978
C           -4.95459780685163        2.65960679932188        5.86868674392943
C           -3.68284113682406        2.59129188358641        2.05479246020704
H           -7.43119628931628       -4.22607794725959        6.20622607140901
H           -8.06548455146707       -2.91765848248592        7.29781126410398
H           -7.07314693247270       -4.33087306029711        7.91223421050944
H            6.57332189837178       -1.29353136199234        6.78341268688262
H            5.74663761932316       -2.84282155125561        6.88089468184451
H            5.69426191474290       -1.72781984964892        8.29460302186842
H           -4.10481209541493        3.44288266176275        2.60483747673152
H           -4.49244774344916        1.87419893016926        1.82433103764650
H           -3.18901540870812        2.85154642679373        1.06781919454921
H           -5.55414326821421        2.76698137191684        4.93950725322359
H           -4.78658370641210        3.62090640967288        6.25983200635257
H           -5.43485580473958        1.97242995129449        6.65265772412460
H            0.89164886030839        7.38838561720231        1.13776105146914
H           -0.62894889903848        8.04195665205089        1.64837664327952
H           -0.59282546386754        7.45699159724320        0.03719083132488
116
 energy: -22.551765974460 gnorm: 0.616953583252 xtb: 6.6.1 (8d0f1dd)
C           -3.53519366166065        0.65157730616177       -2.02981479925129
C           -2.61046699499180       -0.09724899597994       -1.32233134778545
C           -1.82574485264058        0.44753047711322       -0.20810832440768
C           -1.49267185304747        1.91209319975783       -0.25802661254159
C           -2.14126780800906        2.74610673398246       -1.26107793156736
C           -3.23499606335603        2.07957707417861       -1.95677562444003
C           -1.04960659055782       -0.32935269178701        0.75709781537971
C            0.08268762471747        0.24114779031315        1.26598406056701
C            0.44052881189141        1.53786315448788        0.94189560320090
N           -0.19731037700562        2.31254422819473        0.11146900852963
C           -1.44156565102666       -1.62356197092259        1.27471929439716
C           -0.42437759235500       -2.45727174578778        1.90231575342661
N            0.70823073131796       -1.97572930056426        2.20122623830639
C            0.91317239458612       -0.71616285758692        2.03807493594814
C            2.12937571950015       -0.17227736253617        2.56743726541615
C            2.56949992844051        1.10885665502431        2.11833362389593
C            1.70897275115875        1.96204475771265        1.42246871289483
C           -2.79881383445739       -1.88502621743538        1.47505548487508
C           -3.11714532692670       -3.25686304820876        1.82004896542506
C           -2.07661535804571       -4.10816630531240        2.27641929655166
C           -0.87807955497555       -3.60054415099757        2.55869517056190
O           -3.78730251892101       -1.03235770894949        1.16372820568074
O           -2.59185850493457       -1.51399430201755       -1.45766638581948
C           -4.10425708625592        3.01202991451180       -2.65495473768515
C           -2.46524775910712       -5.53250828082864        2.49690364726918
H           -1.70937469156675        3.74995661029088       -1.40320884867716
H           -4.20076569477033        0.40280496580528       -2.74010384583987
H            2.21582074271675        2.78516784724244        0.80914807959362
H            2.62465284648310       -0.67859616742754        3.25827327092333
H           -0.26798823115749       -4.11454533290865        3.27038872842983
H           -4.06161918827942       -3.54238448100261        1.57609309397788
O           -4.22866059513574        2.90080920503860       -3.90177671848113
O           -4.95504811925030        3.78449844064461       -1.97741155712120
C           -6.00479704962081        4.11763642407386       -2.86863990923295
C            3.70818679222112        1.42042740614134        3.06831509614389
O            4.37588868909528        0.74213621298594        3.82171604454742
O            3.96893368005685        2.73938632528406        2.70149719090965
C            5.05057243167652        3.27524832052190        3.22189954074496
O           -3.64379429459155       -5.80116802397872        2.63714547870271
O           -1.64661075315809       -6.66709713928953        2.68339604607433
C           -2.46505810410116       -7.88626449923968        2.79634672177971
C           -5.09804463836833       -1.74333258261444        0.98112367345460
C           -2.00923007642401       -1.96350801796335       -2.78329477372910
H           -2.83317849723210       -8.27685991935776        1.76985476383117
H           -3.38160719282385       -7.42445344236342        3.21267535352364
H           -1.85834516695498       -8.34772543845340        3.60806606048536
H            5.69156966280065        3.73615379618661        2.37246766926982
H            5.39066860010425        2.42609287587078        3.94051263901818
H            4.87512546514849        4.25008461350655        3.73513130269085
H           -0.95368852674309       -1.89785752537532       -2.68666727260920
H           -2.18255920443600       -1.24556794234304       -3.50704295182543
H           -2.31065503672523       -3.08246537170240       -2.91898884408441
H           -5.03238124159361       -2.31290174620890        0.19369828476350
H           -5.75088240902399       -0.85113200793917        0.80598392401131
H           -5.55662603125556       -2.01971587279364        1.91087822012165
H           -5.92243790509735        5.16385175718996       -3.34837311306644
H           -6.67595390195730        4.66355432408025       -2.11381180223631
H           -6.49882565244386        3.42818636676622       -3.45667377078602
C           -1.11354473642879        3.51122958957298        3.77317015667962
C           -1.55452090861313        2.54396382983028        4.68499409694887
C           -0.68077471956439        2.11791375897781        5.80069215756885
C            0.69627220192515        2.51024949432568        5.52473098387692
C            1.09916515888896        3.53620974838837        4.52904573573527
C            0.11585458257095        4.16321525893802        3.74864835881512
C           -0.86742809429265        0.92172829959286        6.42035257579476
C            0.23554846283173        0.13285710614946        6.89037607177880
C            1.50944244436454        0.42572233081495        6.41802162778719
N            1.80394204404159        1.67811950024478        5.93447450628388
C           -2.15159583146515        0.53974834394251        6.56793502087718
C           -2.27244020991245       -0.68155875583122        7.33593638353890
N           -1.24774315716500       -1.35274406375276        7.97888339640016
C            0.06612389410351       -1.05955594045456        7.73632362534786
C            1.17843479356481       -1.72909897776255        8.18232051736556
C            2.47293236472748       -1.31081661047055        7.85245238967841
C            2.71284263639664       -0.26782425508293        6.95470013570157
C           -3.42433832898138        1.26010956024823        6.45139307614059
C           -4.59149161901616        0.51787030770817        6.81057658810671
C           -4.64052540387104       -0.88284903010197        7.00824750179024
C           -3.42069908050033       -1.45528197769283        7.19807572860593
O           -3.37969711787238        2.68095190991493        6.42802768358363
O           -2.50314490177756        1.69408149904961        4.36428770731076
C            0.46752035196055        5.23608951575829        2.75385698749189
C           -5.91247854675325       -1.58910205451076        6.81128185201522
H            2.02431253973368        3.91603918571551        4.53814550029340
H           -1.69965306248924        3.88834735906658        3.00864870500276
H            3.53842720629328       -0.22726687720062        6.37118390728948
H            1.18674510140777       -2.59812335906287        8.80707027390660
H           -3.42069780107862       -2.51713110561642        7.25538500880954
H           -5.40193905928948        1.15219585805524        7.10809669490881
O            1.61887461543466        5.54379803080079        2.55448452354073
O           -0.56566653662661        5.45295503196496        1.79225330372940
C            0.00780738897126        6.26293225692488        0.79296789364858
C            3.60257311296085       -1.45677915779255        8.75874903355699
O            3.70829707913623       -0.80035258402860        9.76301171700372
O            4.61778478321896       -2.51220370151556        8.51319269836751
C            5.73180148163006       -2.16149748476154        9.33825161997941
O           -6.92305063542462       -1.20511874264126        6.34706970654932
O           -5.78593281398151       -2.89173435718271        7.23274336897959
C           -7.11633634740397       -3.31313341230286        7.84037816974222
C           -4.57957310065911        3.33124023473123        6.22321479586514
C           -2.93548064793438        1.77309986046073        2.91332023270213
H           -6.93403877725220       -3.76175570762388        8.85168704069890
H           -7.76146984795210       -3.68432486621111        7.18662848342954
H           -7.52301315600387       -2.32838927394860        8.14560438351121
H            5.30635814320551       -1.48653312894785       10.16310711887391
H            6.33755139625894       -1.49810826637505        8.72958516381432
H            6.44142252696610       -2.97727080421951        9.67150798862318
H           -3.25964866470858        2.69644807446006        2.50133301806561
H           -3.74013006689834        1.07462587346987        2.80113516937717
H           -1.82828954433865        1.65592313125982        2.47927568687978
H           -4.21835545621847        4.09684728694346        5.59459088294890
H           -5.04257747032378        3.73102969590510        7.02088455049349
H           -5.55121252460743        2.82389277159614        5.78279866895449
H            0.98104044308134        5.94104224603585        0.35774865104295
H            0.42423734548723        7.05026063779402        1.45412278869537
H           -0.66319570502702        6.83695615234208        0.01585768378917
116
 energy: -22.635261733596 gnorm: 0.514400851363 xtb: 6.6.1 (8d0f1dd)
C           -3.86256077492193        0.88177246596419       -2.42322991412063
C           -3.21154243976410       -0.22849480865178       -1.84940749734525
C           -2.21166422567895        0.05537056283169       -0.84619308203840
C           -1.99649366443909        1.44221737131238       -0.57924491116748
C           -2.78725699473643        2.43235272033911       -1.14919005216737
C           -3.72541477436615        2.23597975602657       -2.12650700126084
C           -1.35788454001146       -0.84494594186235       -0.14777631994519
C           -0.17615056703359       -0.23782977957361        0.45763051764532
C           -0.06183022005825        1.15004704115575        0.56198218909824
N           -0.82544057307634        2.05446082645279       -0.04349101671588
C           -1.48465288538366       -2.17841110823321        0.23073659936381
C           -0.36120639051340       -2.98161181338402        0.77112811337484
N            0.68903217339566       -2.42814077482711        1.40024554047088
C            0.82327495257377       -1.10655298931809        1.10331684815103
C            1.82007148041094       -0.37122198617323        1.71868100747588
C            2.00307134155800        1.09670709388266        1.69865984394768
C            1.00361917062879        1.82197555410405        1.11849493299738
C           -2.82557832167535       -2.76569650612942        0.49967306491828
C           -2.94482579426520       -4.27141411847354        0.54876952614059
C           -1.77006929267983       -4.97376519586214        0.70113921332389
C           -0.51570420169739       -4.42368901698917        0.83320450348257
O           -3.84306210831829       -1.73997712609359        0.76530681937810
O           -3.84302469378028       -1.48265787038831       -1.97808730011927
C           -4.46032405937582        3.18833092350505       -3.00951303487126
C           -1.93318819398531       -6.59237529749228        0.84799402980667
H           -2.36203941440770        3.37382861655656       -0.92490957814689
H           -4.68798185064520        0.72830406460949       -3.07666232018720
H            0.94760323376926        2.89037840936437        1.14277088400188
H            2.52647950950890       -0.92421223083702        2.25728461168529
H            0.32953372577365       -4.90804144601939        1.19909766736460
H           -3.77682301124645       -4.86105573936211        0.75611311837667
O           -5.40340509370979        2.84228025465942       -3.66281911481509
O           -3.83425935705297        4.56389292932093       -3.04919467508789
C           -4.40048799363435        5.06750406883444       -4.14478961267970
C            2.97949828566228        1.74941828052058        2.65228119865777
O            3.50077802317633        0.99705565054652        3.41801282375872
O            3.35166630622198        3.07547795627447        2.43984791775873
C            4.44032908553846        3.42711525343515        3.27281812823966
O           -2.98215334307057       -7.07039522114978        0.31017334599967
O           -1.09610750417008       -7.02286403452704        1.88497688744854
C           -1.71865746309068       -8.06004484123017        2.46312009485568
C           -5.20719898423913       -1.95510700035745        0.57052438775031
C           -4.35541628202022       -1.70039596303636       -3.30321390090056
H           -2.84528760264687       -7.86815465709186        2.40829204615491
H           -1.32982607257369       -8.25811175862872        3.54068276988166
H           -1.66566713263910       -8.99039434884069        1.94413318800526
H            4.19558651542676        4.41969771005722        3.87515213743256
H            5.35847137431047        3.81212622557094        2.67578393888081
H            4.72630149043760        2.64670449655183        4.10286631518790
H           -4.28666397958311       -2.76521439909046       -3.58700615300694
H           -3.92327856066750       -1.26685237739779       -4.29340071010003
H           -5.33675343964501       -1.45247986167045       -3.24986867880358
H           -5.27019036340910       -2.20308975435949       -0.39546456828671
H           -5.44890269265258       -0.90300464969642        0.69732665880359
H           -5.68316369034731       -2.45252041375776        1.40527767734346
H           -5.37102946781332        4.46282299548156       -4.23945498107362
H           -3.47539383321798        4.84219494947936       -4.89050746346136
H           -4.26014153472994        6.15210253138652       -3.88101446920520
C           -1.05898172528402        3.38254343331365        4.01236194812404
C           -1.17558831245117        2.23664672376925        4.73898781333087
C           -0.26152155240755        1.97294347003715        5.69917143288033
C            1.05725323925365        2.62358096066160        5.69095813313304
C            1.13592845024966        3.94650040221256        4.94610420881291
C           -0.07286104950299        4.34460146396552        4.25936284385737
C           -0.61806358901729        1.29949657637926        7.01290679301781
C            0.56898085632370        0.74253355078074        7.67747637928708
C            1.86559151384547        1.13951924771398        7.30831604902044
N            2.05259793360008        2.24799555515163        6.56489192338206
C           -1.90198000468083        0.75195580531222        7.29997754334152
C           -2.01391887199703       -0.44800714222205        7.98675236428851
N           -0.89724004272981       -0.84604300676087        8.67790576768811
C            0.28572295467854       -0.35585156407236        8.56437825277529
C            1.36048917365920       -0.85100683222342        9.32413518907427
C            2.63865414756751       -0.38419683043522        9.03685076510862
C            2.87598670016140        0.63410923091932        8.06720634250091
C           -3.05684209930857        1.51409575415321        7.06252582798590
C           -4.25781723118372        0.80178744959360        7.12425008248384
C           -4.38391288114877       -0.52467780431124        7.67760466209010
C           -3.23802976741209       -1.14049606679366        8.12439726252897
O           -3.21323594732603        2.79978540881173        6.77614195122141
O           -2.20572684958545        1.30606504822075        4.24795012145520
C            0.27126687913686        5.36994555193119        3.26605264748120
C           -5.69296538502175       -1.28552036757207        7.91857995320751
H            1.98652670098856        4.33410415855848        4.51249391622111
H           -1.93304162969431        3.56296834453254        3.50222765791303
H            3.84903319627887        0.99506191814966        8.09197701395415
H            1.26927149282052       -1.62355801689037       10.11295451922968
H           -3.21665114377189       -2.26385371287857        8.26020361747027
H           -5.20182752542334        1.29652430394106        7.30820427347481
O            0.93374192694479        6.35633541518149        3.59355522299569
O           -0.36775489732380        5.04925762476649        2.06671191641231
C            0.08738313751511        5.60639240702982        0.89029244309606
C            3.79627077864809       -1.15467195018810        9.68037172407078
O            4.95749659199184       -0.90974860228745        9.34989770812483
O            3.57153117623353       -2.03516858618732       10.65070997649883
C            4.71815561866748       -2.44993004512686       11.24289165813082
O           -6.40329150169850       -0.80515031467984        8.77728419381076
O           -5.97038435989267       -2.36281849726061        7.06722106746554
C           -7.02264786138437       -2.91984872360323        7.61231088271811
C           -2.54229356207921        3.65359151515186        7.67448728479194
C           -2.24725152183577        1.20382531828279        2.86849209453137
H           -7.85574621837768       -2.92220505466023        6.88738925470063
H           -7.41847938328442       -2.16555463457052        8.30801615034164
H           -6.84209922379134       -4.01411679537675        8.11053314021363
H            4.41339900695182       -3.49186416380272       11.58945869633451
H            4.90250547502457       -1.88784845623002       12.18718040358573
H            5.62718379767442       -2.19633196999368       10.63286361994078
H           -1.31752015759012        1.39125363705417        2.27684140424691
H           -2.95163579969847        2.07886236993676        2.52474261662227
H           -2.70599946742246        0.27629917174840        2.52845787048348
H           -3.00396041329041        3.43648545908406        8.61444458786685
H           -2.82606198455245        4.64429892301590        7.22495314126781
H           -1.56584780523917        3.40912119830070        7.90895115750150
H            0.53573187925862        6.50172490346570        1.27353781053266
H           -0.69710986330818        6.07633482422756        0.28291569740751
H            0.99912131226692        4.96477843805833        0.42214519224452
116
 energy: -22.608438700310 gnorm: 0.545383109530 xtb: 6.6.1 (8d0f1dd)
C           -3.82120973370187        0.66178025877452       -2.70528150118861
C           -2.95194011750647       -0.24438003663099       -2.13603085755786
C           -2.08388867820384        0.26940606287395       -1.00938398363678
C           -1.79995647659144        1.66934691945363       -1.06517182655594
C           -2.66802792409471        2.56971113926232       -1.65707710304709
C           -3.73617118236373        2.07495341354312       -2.41748693124031
C           -1.52972218119569       -0.61962538164514        0.01714040517433
C           -0.34700614191249       -0.09079516341192        0.63071382542143
C           -0.04939184165820        1.20719772898775        0.30966186915679
N           -0.61189462606334        2.16045887234614       -0.43299436268594
C           -1.85613921014282       -1.97576657903641        0.40255088804440
C           -0.86482195510678       -2.81480673125510        1.11137887278320
N            0.21181770262584       -2.24629020412052        1.70724209030893
C            0.64967583329261       -1.02939970977947        1.32554888812189
C            1.83118839798262       -0.36472739077551        1.86566146399383
C            2.11117015983847        0.95261300353643        1.45184311524796
C            1.14027290169153        1.67513833363600        0.80020871273457
C           -3.19320757683916       -2.43371032362965        0.05272541518354
C           -3.44410789286026       -3.83975583235127        0.27923509564726
C           -2.32696527700887       -4.60856746876381        0.57996344739148
C           -1.10568449380605       -4.17871670837282        1.08953870129992
O           -4.27282722778750       -1.55817380791265       -0.18537982488687
O           -2.64827127355452       -1.58932766757286       -2.46106635997162
C           -4.57861678894643        3.01135876944028       -3.09409551634673
C           -2.50584066417704       -6.05134013834178        0.44975223551726
H           -2.38480398090622        3.66657677696083       -1.62484993549959
H           -4.50503594310203        0.28344659211570       -3.42568838706345
H            1.42001308757679        2.64670016923029        0.43962791578949
H            2.46672607365205       -1.08964682087527        2.44365006579476
H           -0.46459114332698       -4.78208122939389        1.58393720132148
H           -4.41234931280914       -4.22416064851756        0.07992304147994
O           -5.33720799098573        2.54935966301401       -3.90637617815150