116
 energy: -22.891872068035 gnorm: 0.382691029162 xtb: 6.6.1 (8d0f1dd)
C           -0.01708570778165        1.08326178801425       -1.70550807467471
C           -0.52553488053519        1.67580750289562       -0.51252310357000
C            0.21546005443466        1.48392129467579        0.78206515540882
C            1.41761598923786        0.74799042216900        0.80135506154790
C            1.88035613251462        0.25796026998605       -0.43433328991281
C            1.26427879459428        0.41857922218392       -1.67373569997115
C           -0.21409821449328        2.21364870742961        1.95211638817855
C            0.21062264507947        1.61399043210658        3.13941357307403
C            1.34437819879096        0.74886875508183        3.08248160298094
N            2.00109975994062        0.34805292611672        2.00399380934817
C           -1.10259809476443        3.30919205920943        2.06632239250630
C           -1.91156771109704        3.43780025406947        3.31735389867853
N           -1.57764482927128        2.65781976955008        4.41299835819621
C           -0.48900508271941        1.81429868408504        4.36135233813180
C           -0.03089574087571        1.26303685217722        5.53588594581473
C            1.16715358332110        0.53549035713747        5.54837882720422
C            1.88249410290588        0.42466555010840        4.37961384134831
C           -1.32617650863620        4.25911497211841        1.04709543287552
C           -2.44708983730376        5.15841270096363        1.13080683234626
C           -3.17721645567782        5.31112178955296        2.30872654036302
C           -2.83162786308514        4.52696329359493        3.36318380958361
O           -0.49496589165520        4.27047409623176       -0.03935510170914
O           -1.82044125459128        2.10439758870151       -0.70422360695037
C            1.70245433110154       -0.28595376416480       -2.87006608052527
C           -4.30770983180615        6.16095015080387        2.39508506779067
H            2.76968811267970       -0.34145806366151       -0.34351451345078
H           -0.59394640834997        1.06589354438096       -2.60812378757270
H            2.84920264599164        0.01702806997589        4.49343906361509
H           -0.57761333853568        1.39954058359165        6.43912381444188
H           -3.28343887686447        4.69402829964596        4.28729376184696
H           -2.68542925261604        5.84499979779685        0.35805789962698
O            1.05001411099216       -0.45213397947174       -3.92277849438547
O            3.00913951893009       -0.66826032201247       -2.87782936415678
C            3.28162183086767       -1.30844801167571       -4.11393555060154
C            1.66939112518789       -0.03718481534950        6.80271091375283
O            2.68672100935742       -0.77165692884113        6.81476172931063
O            0.83735339457899       -0.03224665131797        7.83170481318088
C            1.17434568039808       -0.76205907457083        9.00749768620405
O           -4.92194596844334        6.68912651710777        1.49050696814630
O           -4.80401238567681        6.43130175487248        3.69433701454878
C           -5.87569948726820        7.30008577149830        3.68897118392446
C           -1.16832900660398        4.49756699089895       -1.26742532847279
C           -2.77898906269101        1.20690165104878       -0.02788851517829
H           -5.66353759679569        8.31976604387312        3.46746273824471
H           -6.29140007640489        7.14127179337372        4.78609344155976
H           -6.62153793132378        7.09998119655296        2.89300346095454
H            1.20263347747250       -1.85576512011705        8.80726641342279
H            0.42905776054512       -0.53191795274460        9.76218111016916
H            2.11829334717763       -0.22058190710310        9.22169272336650
H           -2.36986653049742        0.17673944785371       -0.22705630744004
H           -3.66268037422298        1.15879084722485       -0.69032016787727
H           -3.00215923590170        1.55712356500962        0.98487994611806
H           -2.30035016937599        4.30552588513433       -1.26449176312500
H           -0.65877193997007        3.87738174113864       -1.98820483769008
H           -1.13833772637792        5.54167389724441       -1.53606522139956
H            4.07321963326026       -2.05624797400242       -4.06109800969306
H            3.55836137844964       -0.60242070072953       -4.92239467251798
H            2.31319728175724       -1.83727955873810       -4.29604144131601
C            0.68402294787988       -3.28321245399169        3.04401086628465
C           -0.05663174051731       -2.72002220280362        4.05517275879571
C           -1.15533244715649       -1.94584323224126        3.83599405861843
C           -1.39593444465714       -1.63954946803955        2.44415826423125
C           -0.68810589133570       -2.13272837109767        1.38750103052928
C            0.35776165958853       -3.03436122021219        1.74018683336763
C           -1.99169610008345       -1.44361922804176        4.79049245923746
C           -2.85260204923267       -0.43739237768109        4.44758549426423
C           -3.16029848716498       -0.17768588724873        3.04459186591094
N           -2.38407273931801       -0.67759703866284        2.11100358470971
C           -2.06206556692474       -1.80083494960649        6.22647736447287
C           -2.44901916098264       -0.83422840555575        7.20792443821164
N           -3.17780224601063        0.22548217870907        6.80577331671228
C           -3.45713082185954        0.38267819314159        5.47719801704083
C           -4.32747119532928        1.45945970312374        5.09176443519226
C           -4.80747071202360        1.46336217535116        3.84186262718048
C           -4.21975267056594        0.68959809726122        2.82537232474553
C           -1.73295392091250       -3.12489959136377        6.64117673379450
C           -1.51173678861095       -3.36787209157954        8.04458516270004
C           -1.58650674503184       -2.23760618501958        8.94069830328980
C           -2.14360364563014       -1.04765670899216        8.55669646331115
O           -1.78822515220465       -4.11938701231573        5.67773317055245
O            0.31920280595165       -2.82192617349480        5.35880620999978
C            1.07963560304386       -3.79423822227802        0.68024958540185
C           -1.17105370549371       -2.35882145940771       10.34207683025672
H           -0.92579199608427       -1.75264553101553        0.35374153436276
H            1.42320591390984       -3.98389715290760        3.17201753847250
H           -4.64403473503919        0.71725366255211        1.82006977889579
H           -4.76398187557307        2.01852188359852        5.87466510639178
H           -2.28592547379943       -0.25961475291958        9.28871904221740
H           -1.00930712497905       -4.22582788756330        8.41331267638412
O            1.35758176653855       -3.26108806184658       -0.35287707448191
O            1.25550717026076       -5.09507350280619        1.02235981038127
C            1.79313254301148       -5.79183312222418       -0.05993857290863
C           -5.83736271028214        2.38378359279622        3.41625110407090
O           -6.53172782109403        2.94969901036505        4.20802075202719
O           -5.64323527417270        2.84958408071624        2.11260211247425
C           -6.25544579881590        4.05280042696244        1.83001562345526
O           -1.20091551330098       -1.34521290784847       10.97461516003638
O           -0.84616836874195       -3.61728392303455       10.74824231777088
C           -0.58409909794088       -3.60364715117160       12.11515114332562
C           -2.96382411277484       -4.17333145337520        4.71744536476307
C            1.62968817227894       -3.40393374850911        5.69988052146404
H           -0.70488216602251       -4.58956194651037       12.56925353010140
H           -1.29292783268902       -2.97536296610693       12.69140355434441
H            0.40841742244289       -3.14903057041590       12.12369519272858
H           -6.39051745747953        4.51850231036252        2.79689786708935
H           -7.21049524966384        3.73769735237359        1.35659886927836
H           -5.73277535050268        4.66197483914882        1.08055322991830
H            1.88683933216036       -4.38658916789794        5.45236025924720
H            1.72160386694084       -3.25147803442639        6.78295608384327
H            2.33495868660270       -2.74653891942331        5.15251183852018
H           -2.59878131210724       -4.59038047586705        3.76496263957306
H           -3.19765669368527       -3.06211398493570        4.52313418442826
H           -3.97882679182406       -4.64869946284874        4.93058786050530
H            1.70668100046051       -5.23000031299660       -0.98869853171349
H            1.46625585482269       -6.83455089810645       -0.20317494795989
H            2.88271897246007       -5.97517457663329        0.08280301379210
116
 energy: -22.842603845965 gnorm: 0.415500711302 xtb: 6.6.1 (8d0f1dd)
C            0.03597372250411        1.18659060779438       -1.76647723701674
C           -0.61901465164255        1.58834489207103       -0.61342631369497
C            0.10248765432564        1.55443573894047        0.61017194894952
C            1.22399004377155        0.80902909419709        0.68324923371535
C            1.81373067035037        0.29737023328364       -0.45143640110930
C            1.25919997884652        0.52240724791170       -1.74711112792762
C           -0.29215783564957        2.21699929509152        1.80883967739595
C            0.02041072268795        1.50465037523205        3.02325929371514
C            1.06763941456023        0.59172398106995        2.99396052411131
N            1.69444072767028        0.30322228010121        1.85128392382731
C           -1.16872316368048        3.31315394823297        2.02998869962010
C           -1.81249348810251        3.43970596889576        3.31162791398166
N           -1.45206993522853        2.87774098697775        4.42320586869729
C           -0.71610046921523        1.82994229840493        4.21597226941939
C           -0.36598869623475        1.15138083626798        5.46146598399220
C            0.80865792527414        0.38622391523156        5.42316373167659
C            1.61399143897815        0.24386325556080        4.29345865148347
C           -1.34776308670920        4.30117819160633        1.02044533421595
C           -2.42544186042046        5.17169906654494        1.09842675083298
C           -3.07485427994822        5.36703674796580        2.35355365588142
C           -2.77199623412735        4.49655694143583        3.43020185592822
O           -0.43489615471580        4.43547549616026       -0.02190536486259
O           -2.04725842207977        1.85011660581215       -0.69428136628755
C            2.02705052607401        0.14792964092305       -2.99977410328181
C           -4.19153056820113        6.33435648097396        2.50183630107658
H            2.85935087761049       -0.07527341339274       -0.36350118357969
H           -0.39130009200454        1.31474998145059       -2.71649600861939
H            2.53659409505278       -0.31751153373519        4.39876400356651
H           -0.69305787425064        1.28920025639405        6.48513222428748
H           -3.32419273470136        4.49765363761446        4.24450310370209
H           -2.57930333552394        5.91631526035525        0.32649027511888
O            1.48607705267358        0.31858326532814       -4.07068962418773
O            3.19987984421917       -0.56319230766475       -2.81758790735530
C            3.66153444849894       -1.30933091682649       -3.96288774159799
C            1.40451642550074       -0.00000551129665        6.75523840727009
O            2.21816281169246       -0.84709791109369        6.98844767528522
O            0.85891521592106        0.83530714902475        7.73475114795850
C            1.77459559922010        0.80792937861465        8.80758276524346
O           -4.92359855577503        6.43673343015178        1.51992074636739
O           -4.29063396248701        7.03546313623434        3.71995437315873
C           -5.35213839186273        7.91746313315166        3.67322951670908
C           -0.21529734840403        5.73940613641784       -0.41861720243548
C           -2.67061676567620        0.63841275993613       -0.43402133880208
H           -5.33066864195561        8.41658763150052        2.71388186118029
H           -5.17744716086352        8.74036545646649        4.42670491513709
H           -6.17710596308499        7.35039662734148        4.12445411905923
H            1.63908789662612        1.57837154222474        9.53263864525193
H            2.83510409958250        0.89536341884935        8.42270723173652
H            1.88581813218175       -0.20699796906696        9.28165404925186
H           -2.54842903379747        0.09157720803889        0.60262627640537
H           -2.60952478681409       -0.14312284700974       -1.16022814666685
H           -3.73152063597458        0.94087650500429       -0.45407400346498
H           -0.97975424070129        6.10019985553346       -1.04594754235624
H            0.76888928149263        5.96469159409028       -0.98587473283520
H           -0.18926688923291        6.26334659440313        0.54324945669915
H            3.02167818358136       -0.67601799871438       -4.75381191247717
H            3.28930486060318       -2.30365465695965       -4.18708893835213
H            4.74578911637542       -1.23017594951494       -3.99198328319991
C            0.28140268349693       -3.81022189429963        2.67240428909644
C           -0.33899560765112       -3.25711386027514        3.81290719361656
C           -1.54831595307956       -2.50588669454068        3.63617883090898
C           -2.03728802253375       -2.14456839784144        2.32664076261218
C           -1.39928612275064       -2.71401212797503        1.19858142409233
C           -0.28734587698250       -3.56054885204827        1.40768230762988
C           -2.19347924438203       -1.71177857372262        4.76835774969916
C           -2.91690489510852       -0.56966821961508        4.45349313927836
C           -3.34700093790942       -0.40995085097535        3.08262164555248
N           -3.14098175247213       -1.33711098316589        2.09459481843899
C           -2.04656336428461       -2.00915129893113        6.19280399021702
C           -2.28901252155871       -0.98342261514379        7.06599752007844
N           -2.80395531525879        0.21790139927151        6.72840570910093
C           -3.29161614497232        0.29498991031876        5.46322057952447
C           -3.93505669931823        1.44023212678641        5.04316081252952
C           -4.38538032611270        1.57086187650992        3.73662880041453
C           -4.01249810125596        0.71920083116721        2.71067768366187
C           -1.80913570181442       -3.32837327717515        6.78491185460079
C           -1.52036689413646       -3.42744404038959        8.17685967916599
C           -1.83542459077437       -2.37507627737292        8.98532652154134
C           -2.08188653562509       -1.11004858850815        8.44214004850433
O           -1.83016915131707       -4.45100855499752        5.93633964124743
O            0.31670507722636       -3.27746356285570        4.97113274791498
C            0.34545738048664       -4.31915630016882        0.33320108178942
C           -1.90249457428789       -2.49883695691430       10.51017652826341
H           -1.78703850634249       -2.60737510348239        0.21364021157091
H            1.14894014972711       -4.39294496562485        2.67984979992976
H           -4.30469372741533        0.92557816254506        1.73196166746929
H           -4.19712621868304        2.17570591790834        5.72308420531487
H           -2.24896137422285       -0.28478913916858        9.04936716874792
H           -1.39258960301761       -4.42347070076508        8.60950140183886
O           -0.43096661908649       -4.81642080204880       -0.52116473216826
O            1.73741535935768       -4.49157619057179        0.43803760024430
C            2.21435447885222       -5.17965101333527       -0.59648586413958
C           -5.35389242038177        2.71572882004638        3.48036505056052
O           -5.66469574747059        3.61555215211279        4.28172715160989
O           -5.75179012431534        2.76908379680994        2.17767960013173
C           -6.64824975245599        3.87835044688331        2.09299015683588
O           -2.23484607472723       -1.49520232462017       11.11478094815619
O           -1.50238464487377       -3.65035588470938       11.22004413539473
C           -1.59585011659172       -3.48000883808441       12.60242517917224
C           -0.88847272879865       -5.35549648375562        6.43766783956677
C            1.78461443831710       -3.13591226840491        4.95690619694137
H           -2.58748702428833       -4.03752657477177       12.65057868350131
H           -1.75875810326198       -2.40188537168235       12.80413061694193
H           -0.89806186468297       -4.16376231142773       13.14689659824382
H           -6.81182068119663        4.38378204012949        1.12792437972947
H           -6.23074169396967        4.63856173798431        2.78825872551991
H           -7.66946383287345        3.54786391591461        2.41183543203379
H            2.09771527095016       -4.16252073613082        5.04662546012883
H            2.09127105287186       -2.51787861042875        5.72644017868983
H            2.07973260653992       -2.76336072520300        3.91761915811852
H           -0.42384713667126       -6.02928287722244        5.65162856721092
H           -1.28730474921626       -5.97806386720699        7.36106757754847
H           -0.08322004409755       -4.84324494504738        6.85625512018495
H            3.30736960936725       -5.04717824652592       -0.49144144651064
H            1.77359536234363       -4.96766908625485       -1.65588177687971
H            2.05729396015526       -6.28981129993367       -0.29238120977186
116
 energy: -22.836935225412 gnorm: 0.407592602001 xtb: 6.6.1 (8d0f1dd)
C            0.19584566735119        0.44995484142818       -1.34852901538636
C           -0.50644269364629        1.14776866638683       -0.33095378638292
C            0.16553271080043        1.37245526586090        0.92902257759181
C            1.34331158164869        0.51245360954614        1.15975630511259
C            1.99863711378821       -0.19701699829730        0.18896375862232
C            1.47373982567628       -0.09899910254757       -1.03936411335201
C           -0.43123780114168        2.12253586991000        2.03963939109332
C           -0.09476904642954        1.64538756357188        3.33207192725016
C            0.89074216696643        0.63808726107787        3.42338210993025
N            1.78043867906800        0.32377499389226        2.39917134364516
C           -1.14487813044655        3.35530861570377        2.07106433331763
C           -1.91458138643622        3.66493222859266        3.18872808804777
N           -1.79629760547604        3.05806574561014        4.42837906220133
C           -0.83424923450665        2.08168326780312        4.51620206650001
C           -0.38140410573631        1.58663589179956        5.72121972721366
C            0.63183035300316        0.64937053096405        5.80025664582641
C            1.24443251432544        0.17090079483978        4.67347403722799
C           -1.33809145759894        4.10158548889718        0.84208963039196
C           -2.15426657183940        5.25159562188760        0.92082780466263
C           -2.74582429954454        5.60325508080223        2.08618864552034
C           -2.65393923677264        4.86274540471647        3.25582937264529
O           -0.80176259104113        3.73164724232819       -0.36362302196278
O           -1.86588301166194        1.27101981381256       -0.64795469946556
C            2.16412406364691       -0.43803787662415       -2.27435947543995
C           -3.68169975884484        6.83134276893530        2.04439318062237
H            3.01389778917102       -0.61104921344096        0.18103263239263
H           -0.05132053670399        0.75891080385309       -2.35392956947873
H            1.91777084542401       -0.63605306378622        4.67071200265520
H           -0.89182839476926        2.08457318770893        6.54923279885100
H           -3.30800645369615        5.03877024073682        4.02590386855416
H           -2.24924717461511        5.79820300781388        0.02144080298466
O            1.65603369065086       -0.21918205611664       -3.39090581540966
O            3.45872739395973       -0.87855425779168       -2.11556345211865
C            3.98810469647599       -1.12548807889249       -3.38256656793637
C            1.23891759513950        0.27448017179854        7.15084621365050
O            2.26241126198884       -0.43545488136845        7.18347380116470
O            0.77372262869021        0.82336120254610        8.32476866414586
C            1.46648077960682        0.21660065099754        9.37476668900175
O           -3.57738151313455        7.71843976058185        1.25233665490040
O           -4.69080493957159        6.65385512184560        2.90141146513851
C           -5.48041117207460        7.84403444886604        2.77982743521667
C           -1.31137151662004        4.44062547647450       -1.42327549440804
C           -2.78210098725457        1.46712726846541        0.33648982909244
H           -4.91203024465767        8.60616390020764        2.24638804966123
H           -5.52267688391854        8.25854451688373        3.80365080279651
H           -6.48879143090133        7.81688658919468        2.29182854438820
H            0.94701835030850       -0.72749317731314        9.52283938166110
H            1.20743834377711        0.85632345155939       10.23107951622351
H            2.51946095121654        0.09188901250006        9.17412851359606
H           -2.43986110040418        0.93044533488991        1.29784259627840
H           -3.71800986725017        0.96909037468061        0.05492690178734
H           -2.97095759778094        2.55809887846469        0.43595527407055
H           -2.43610854265178        4.63650189548399       -1.43946735327442
H           -0.99281599077776        3.77460961182432       -2.29303959355211
H           -0.88469406185333        5.47152601943577       -1.61384882674995
H            4.94387232103017       -0.62289891425534       -3.64171476262892
H            3.14791269778872       -1.22060874068360       -4.06581172270116
H            4.54100986897800       -2.05144023548099       -3.01780979166677
C            0.17323889372208       -3.51171728749350        2.51527207204600
C           -0.15393275337998       -2.81843978433000        3.63033940190129
C           -1.28641367471036       -1.93558434615151        3.56532076935515
C           -1.89271705835515       -1.59823087209196        2.28483355380143
C           -1.51518196439566       -2.41093560981161        1.13519099534268
C           -0.33379385783019       -3.19706633391462        1.27057715493578
C           -1.91297701855996       -1.28609942369257        4.69937933256784
C           -2.78720207812716       -0.20347735675120        4.51668894243291
C           -3.16481183390140        0.13402034462300        3.21618684213847
N           -2.82671052793854       -0.60629254973775        2.11539837078257
C           -1.94880373349888       -1.79142290182554        6.06912346516849
C           -2.36964582283800       -0.90249488754931        7.09770330504066
N           -3.02350580459255        0.25565711370852        6.85978102778795
C           -3.35227749414665        0.56749198835064        5.61999155478511
C           -4.41617912559371        1.41692557805130        5.31135134504270
C           -4.90587733621902        1.60958638941437        3.98310668059021
C           -4.28259359611396        0.98119670929605        2.93850040928662
C           -1.67458355785464       -3.16086653600004        6.45380357810573
C           -1.58640977420812       -3.57817970603309        7.73997485670895
C           -1.72891733547497       -2.54040912696801        8.75481759717991
C           -2.22757964080546       -1.23206606405259        8.46222461474917
O           -1.45534455555529       -4.07205769736631        5.35712601114233
O            0.61496306572760       -2.61777806091767        4.74600024876025
C            0.40270315987599       -3.84453301310607        0.17695204369502
C           -1.26419283755857       -2.78307396099395       10.13085556799901
H           -1.98118742409428       -2.34417637031715        0.23120750134908
H            0.96945813087095       -4.17837338861601        2.61477981025677
H           -4.71198666198596        1.03923279986116        1.97442776882620
H           -4.88111666351144        2.00525506994581        6.06325998420339
H           -2.45452772257350       -0.53975056855999        9.16576838883093
H           -0.86108568292808       -4.37884875282857        8.00272383710890
O            0.12636885492887       -3.61578300244932       -0.96822215571008
O            1.41909906877927       -4.71518596780684        0.60356274116716
C            1.97339313635111       -5.26173434666313       -0.54488062221139
C           -5.90808764109090        2.60854283417990        3.69311145387176
O           -6.71362572701066        2.75392721027793        4.60620238578740
O           -5.83695440638055        3.10222163720359        2.37621607771644
C           -7.07684662119980        3.64120561253689        2.29240732340178
O           -1.27661583389374       -1.87996861619372       10.94480566081056
O           -0.94166108226678       -4.07426572935245       10.51182142432346
C           -0.03551901918740       -4.19998001277357       11.60193328439646
C           -2.14621635583635       -5.36514296581179        5.39217741763037
C            1.90989969456896       -3.40449402472150        4.74678534628195
H            0.92460193853185       -3.83188242280271       11.32021179839281
H           -0.06173351716029       -5.22675575345400       12.05692311875584
H           -0.23314741297255       -3.61297633452096       12.49288039342477
H           -7.15214441372830        4.32317889450405        3.16331362734952
H           -7.82355944503135        2.91682384071758        2.40914929778936
H           -7.01576107537038        4.26199081201858        1.44638839021347
H            1.76039658649225       -4.47319760497705        4.48437701845840
H            2.45552114729563       -3.35973398231870        5.63913147672298
H            2.52364245724289       -2.93084909816065        3.89615493381094
H           -2.74843355922745       -5.69144416170793        4.47547194545057
H           -2.78492681006398       -5.42236624281583        6.35770051028962
H           -1.44322689142338       -6.06287011978882        5.49050659284542
H            2.82993593059612       -5.72505408136683       -0.15209087048118
H            2.22833132972127       -4.41039476497041       -1.19650997827469
H            1.35583929729480       -5.88711596558357       -1.09804807403433
116
 energy: -22.862544889864 gnorm: 0.409605767648 xtb: 6.6.1 (8d0f1dd)
C            0.62496479638060        0.57201323343570       -1.66488016626645
C           -0.03638184534289        1.24731665269971       -0.68957848895130
C            0.40956937806815        1.31959956489151        0.69265079047421
C            1.40268098765745        0.43113716413526        1.11797606399509
C            2.18960992857391       -0.13150735415685       -0.01946921329947
C            1.77489536309751       -0.08741094211958       -1.34567018996476
C           -0.33779071723724        1.88814879108729        1.80137663496294
C           -0.18930162191777        1.46788721446613        3.15666149708085
C            0.83271126579342        0.53032739930856        3.41643214106491
N            1.52573005604961       -0.03759823724610        2.40953086402084
C           -1.25186125694950        2.98387560631567        1.75390253050313
C           -2.15933750502400        3.31072239918861        2.87621879302964
N           -2.00699037399381        2.83220987768930        4.12270672197682
C           -0.98833560355034        1.98703573149847        4.21963951319490
C           -0.63827760961845        1.61420875878181        5.48216155391088
C            0.29779961060374        0.65883433598242        5.79829843188709
C            1.13297751593639        0.16852597393853        4.75121272526619
C           -1.19521856274122        3.83175340728728        0.65502491434382
C           -2.16513427812641        4.78445868543287        0.45339144234875
C           -3.03279883944515        5.06801173094791        1.52629370001999
C           -3.05798806110711        4.37822483991693        2.71384751879221
O           -0.05526805015761        3.77277240894707       -0.26957914342330
O           -1.32866981036955        1.74092526289898       -0.97968716848104
C            2.67739915172501       -0.87390452154060       -2.24240946207122
C           -3.99742730008644        6.23238432423646        1.42305707557257
H            3.08651826946607       -0.70868755802211        0.23205304063435
H            0.17841526561001        0.30079768765431       -2.61044528052675
H            1.89386599982411       -0.58300920268461        4.88436151220487
H           -1.37392420325895        1.98426233526852        6.24636796068212
H           -3.63170440776658        4.59905705396199        3.58412751148060
H           -2.21603540228040        5.51987287541330       -0.23576269058932
O            2.43011355740388       -1.06980776067691       -3.38176290292999