Optimization of monomers started
      -----------------------------------------------------------      
     |                   =====================                   |     
     |                           x T B                           |     
     |                   =====================                   |     
     |                         S. Grimme                         |     
     |          Mulliken Center for Theoretical Chemistry        |     
     |                    University of Bonn                     |     
      -----------------------------------------------------------      

   * xtb version 6.7.1 (edcfbbe) compiled by 'runner@Mac-1732539442253.local' on 2024-11-25

   xtb is free software: you can redistribute it and/or modify it under
   the terms of the GNU Lesser General Public License as published by
   the Free Software Foundation, either version 3 of the License, or
   (at your option) any later version.
   
   xtb is distributed in the hope that it will be useful,
   but WITHOUT ANY WARRANTY; without even the implied warranty of
   MERCHANTABILITY or FITNESS FOR A PARTICULAR PURPOSE.  See the
   GNU Lesser General Public License for more details.
   
   Cite this work as:
   * C. Bannwarth, E. Caldeweyher, S. Ehlert, A. Hansen, P. Pracht,
     J. Seibert, S. Spicher, S. Grimme, WIREs Comput. Mol. Sci., 2020, 11,
     e01493. DOI: 10.1002/wcms.1493
   
   for GFN2-xTB:
   * C. Bannwarth, S. Ehlert and S. Grimme., J. Chem. Theory Comput., 2019,
     15, 1652-1671. DOI: 10.1021/acs.jctc.8b01176
   for GFN1-xTB:
   * S. Grimme, C. Bannwarth, P. Shushkov, J. Chem. Theory Comput., 2017,
     13, 1989-2009. DOI: 10.1021/acs.jctc.7b00118
   for GFN0-xTB:
   * P. Pracht, E. Caldeweyher, S. Ehlert, S. Grimme, ChemRxiv, 2019, preprint.
     DOI: 10.26434/chemrxiv.8326202.v1
   for GFN-FF:
   * S. Spicher and S. Grimme, Angew. Chem. Int. Ed., 2020, 59, 15665-15673.
     DOI: 10.1002/anie.202004239
   
   for ALPB and GBSA implicit solvation:
   * S. Ehlert, M. Stahn, S. Spicher, S. Grimme, J. Chem. Theory Comput.,
     2021, 17, 4250-4261. DOI: 10.1021/acs.jctc.1c00471
   
   for ddCOSMO and CPCM-X implicit solvation:
   * M. Stahn, S. Ehlert, S. Grimme, J. Phys. Chem. A,
     2023, XX, XXXX-XXXX. DOI: 10.1021/acs.jpca.3c04382
   
   for DFT-D4:
   * E. Caldeweyher, C. Bannwarth and S. Grimme, J. Chem. Phys., 2017,
     147, 034112. DOI: 10.1063/1.4993215
   * E. Caldeweyher, S. Ehlert, A. Hansen, H. Neugebauer, S. Spicher,
     C. Bannwarth and S. Grimme, J. Chem. Phys., 2019, 150, 154122.
     DOI: 10.1063/1.5090222
   * E. Caldeweyher, J.-M. Mewes, S. Ehlert and S. Grimme, Phys. Chem. Chem. Phys.
     2020, 22, 8499-8512. DOI: 10.1039/D0CP00502A
   
   for sTDA-xTB:
   * S. Grimme and C. Bannwarth, J. Chem. Phys., 2016, 145, 054103.
     DOI: 10.1063/1.4959605
   
   in the mass-spec context:
   * V. Asgeirsson, C. Bauer and S. Grimme, Chem. Sci., 2017, 8, 4879.
     DOI: 10.1039/c7sc00601b
   * J. Koopman and S. Grimme, ACS Omega 2019, 4, 12, 15120-15133.
     DOI: 10.1021/acsomega.9b02011
   
   for metadynamics refer to:
   * S. Grimme, J. Chem. Theory Comput., 2019, 155, 2847-2862
     DOI: 10.1021/acs.jctc.9b00143
   
   for SPH calculations refer to:
   * S. Spicher and S. Grimme, J. Chem. Theory Comput., 2021, 17, 1701-1714
     DOI: 10.1021/acs.jctc.0c01306
   
   for ONIOM refer to:
   * C. Plett, A. Katbashev, S. Ehlert, S. Grimme, M. Bursch,
     Phys. Chem. Chem. Phys., 2023, 25, 17860-17868. DOI: 10.1039/D3CP02178E
   
   for DIPRO refer to:
   * J. Kohn, N. Gildemeister, S. Grimme, D. Fazzi, A. Hansen,
     J. Chem. Phys., 2023, just accepted.
   
   for PTB refer to:
   * S. Grimme, M. Mueller, A. Hansen, J. Chem. Phys., 2023, 158, 124111.
     DOI: 10.1063/5.0137838
   
   with help from (in alphabetical order)
   P. Atkinson, C. Bannwarth, F. Bohle, G. Brandenburg, E. Caldeweyher
   M. Checinski, S. Dohm, S. Ehlert, S. Ehrlich, I. Gerasimov, C. Hölzer
   A. Katbashev, J. Kohn, J. Koopman, C. Lavigne, S. Lehtola, F. März, M. Müller,
   F. Musil, H. Neugebauer, J. Pisarek, C. Plett, P. Pracht, F. Pultar,
   J. Seibert, P. Shushkov, S. Spicher, M. Stahn, M. Steiner, T. Strunk,
   J. Stückrath, T. Rose, and J. Unsleber
   
 * started run on 2025/02/28 at 12:53:54.426     
   ID    Z sym.   atoms
    1    6 C      1-9, 11, 12, 14-21, 34, 38, 41-43
    2    7 N      10, 13
    3    8 O      22, 23, 32, 33, 36, 37, 39, 40
    4   16 S      24, 25, 35
    5    1 H      26-31, 44-58

           -------------------------------------------------
          |                Calculation Setup                |
           -------------------------------------------------

          program call               : xtb Base3SO2Me.mol --opt tight --cycles 500 --chrg 0 --uhf 1 --spinpol --tblite
          coordinate file            : Base3SO2Me.mol
          omp threads                :                     8

Wavefunction read from restart file
repulsion energy          1.1532234384035E+00 Eh
dispersion energy         7.2386336977476E-04 Eh
interaction energy        0.0000000000000E+00 Eh
number of electrons       1.9300000000000E+02 e
integral cutoff           1.8403572253217E+01 bohr

------------------------------------------------------------
  cycle        total energy    energy error   density error
------------------------------------------------------------
      1     -110.1169424113  -1.1127089E+02   2.8673400E-02
      2     -110.1231424911  -6.2000798E-03   1.6562367E-02
      3     -110.1209974015   2.1450896E-03   8.4113012E-03
      4     -110.1218244944  -8.2709288E-04   4.8420361E-03
      5     -110.1246641591  -2.8396647E-03   2.1079627E-03
      6     -110.1250082984  -3.4413933E-04   1.1735742E-03
      7     -110.1251614730  -1.5317464E-04   3.6433621E-04
      8     -110.1251691274  -7.6543252E-06   2.0413192E-04
      9     -110.1251714528  -2.3253903E-06   9.0414589E-05
     10     -110.1251715850  -1.3227105E-07   4.7318643E-05
     11     -110.1251716865  -1.0147382E-07   2.1513820E-05
     12     -110.1251717178  -3.1257429E-08   1.0519588E-05
------------------------------------------------------------

electronic energy        -1.1127911901953E+02 Eh
total energy             -1.1012517171776E+02 Eh

 total:                                   0.459 sec
 - repulsion                              0.000 sec (  0%)
 - dispersion                             0.003 sec (  0%)
 - coulomb                                0.001 sec (  0%)
 - hamiltonian                            0.007 sec (  1%)
 - scc                                    0.447 sec ( 97%)

      ----------------------------------------------------------- 
     |                   =====================                   |
     |                        A N C O P T                        |
     |                   =====================                   |
     |               Approximate Normal Coordinate               |
     |                Rational Function Optimizer                |
      ----------------------------------------------------------- 
      ----------------------------------------------------------- 
     |                   =====================                   |
     |                        A N C O P T                        |
     |                   =====================                   |
     |               Approximate Normal Coordinate               |
     |                Rational Function Optimizer                |
      ----------------------------------------------------------- 

          ...................................................
          :                      SETUP                      :
          :.................................................:
          :   optimization level             tight          :
          :   max. optcycles                   500          :
          :   ANC micro-cycles                  20          :
          :   degrees of freedom               168          :
          :.................................................:
          :   RF solver                   davidson          :
          :   write xtbopt.log                true          :
          :   linear?                        false          :
          :   energy convergence         0.1000000E-05 Eh   :
          :   grad. convergence          0.8000000E-03 Eh/α :
          :   maxmium RF displ.          1.0000000          :
          :   Hlow (freq-cutoff)         0.1000000E-01      :
          :   Hmax (freq-cutoff)         5.0000000          :
          :   S6 in model hess.         20.0000000          :
          ...................................................

generating ANC from exact Hessian ...
Using Lindh-Hessian (1995)
 Shifting diagonal of input Hessian by    9.8479454768016401E-003
 Lowest  eigenvalues of input Hessian
    0.000000    0.000000    0.000000    0.000000    0.000000    0.000000
    0.010000    0.010087    0.010159    0.010214    0.010408    0.010619
    0.010799    0.011324    0.011655    0.012172    0.013096    0.013142
 Highest eigenvalues
    1.998203    2.001135    2.019775    2.051370    2.171033    2.174787


........................................................................
.............................. CYCLE    1 ..............................
........................................................................
------------------------------------------------------------
  cycle        total energy    energy error   density error
------------------------------------------------------------
      1     -110.1251716547  -1.1127912E+02   2.1161825E-05
      2     -110.1251716434   1.1243515E-08   2.1655177E-05
      3     -110.1251717206  -7.7140413E-08   3.8791907E-06
------------------------------------------------------------

 total:                                   0.153 sec
 * total energy  :  -110.1251717 Eh     change       -0.2802011E-08 Eh
   gradient norm :     0.2637165 Eh/α   predicted     0.0000000E+00 (-100.00%)
   displ. norm   :     0.4471240 α      lambda       -0.7224996E-01
   maximum displ.:     0.1662131 α      in ANC's #75, #56, #64, ...

........................................................................
.............................. CYCLE    2 ..............................
........................................................................
------------------------------------------------------------
  cycle        total energy    energy error   density error
------------------------------------------------------------
      1     -110.1769352459  -1.1137309E+02   1.0579942E-02
      2     -110.1781378246  -1.2025787E-03   5.8526351E-03
      3     -110.1781454665  -7.6419240E-06   3.2832868E-03
      4     -110.1782599263  -1.1445980E-04   1.4539711E-03
      5     -110.1784719831  -2.1205678E-04   4.7914755E-04
      6     -110.1784822892  -1.0306135E-05   2.3188628E-04
      7     -110.1784859830  -3.6937717E-06   9.9987791E-05
      8     -110.1784862338  -2.5079164E-07   6.8370427E-05
      9     -110.1784865497  -3.1596660E-07   3.4530926E-05
     10     -110.1784866000  -5.0258350E-08   1.4696658E-05
------------------------------------------------------------

 total:                                   0.454 sec
 * total energy  :  -110.1784866 Eh     change       -0.5331488E-01 Eh
   gradient norm :     0.1605636 Eh/α   predicted    -0.4338678E-01 ( -18.62%)
   displ. norm   :     0.4151691 α      lambda       -0.4004536E-01
   maximum displ.:     0.1381043 α      in ANC's #34, #36, #40, ...

........................................................................
.............................. CYCLE    3 ..............................
........................................................................
------------------------------------------------------------
  cycle        total energy    energy error   density error
------------------------------------------------------------
      1     -110.2002605906  -1.1144511E+02   8.3605365E-03
      2     -110.2018446726  -1.5840820E-03   5.3827476E-03
      3     -110.2020221646  -1.7749198E-04   3.0780505E-03
      4     -110.2018633760   1.5878860E-04   1.3925289E-03
      5     -110.2020909262  -2.2755024E-04   2.8965175E-04
      6     -110.2020951571  -4.2309208E-06   1.6954151E-04
      7     -110.2020960260  -8.6891133E-07   6.3853122E-05
      8     -110.2020961608  -1.3477236E-07   3.1744108E-05
      9     -110.2020962069  -4.6091898E-08   2.0481909E-05
     10     -110.2020962224  -1.5502692E-08   1.0945796E-05
------------------------------------------------------------

 total:                                   0.377 sec
 * total energy  :  -110.2020962 Eh     change       -0.2360962E-01 Eh
   gradient norm :     0.0324256 Eh/α   predicted    -0.2347391E-01 (  -0.57%)
   displ. norm   :     0.3815932 α      lambda       -0.5783140E-02
   maximum displ.:     0.1439357 α      in ANC's #34, #21, #33, ...

........................................................................
.............................. CYCLE    4 ..............................
........................................................................
------------------------------------------------------------
  cycle        total energy    energy error   density error
------------------------------------------------------------
      1     -110.2062706194  -1.1145959E+02   3.3230102E-03
      2     -110.2063009075  -3.0288098E-05   1.8696822E-03
      3     -110.2062765108   2.4396689E-05   6.2722217E-04
      4     -110.2063005873  -2.4076446E-05   3.0515616E-04
      5     -110.2063098162  -9.2288889E-06   9.6569039E-05
      6     -110.2063100076  -1.9144542E-07   4.6406273E-05
      7     -110.2063101468  -1.3923247E-07   2.4041572E-05
      8     -110.2063101656  -1.8719575E-08   1.5901739E-05
------------------------------------------------------------

 total:                                   0.301 sec
 * total energy  :  -110.2063102 Eh     change       -0.4213943E-02 Eh
   gradient norm :     0.0205696 Eh/α   predicted    -0.3312651E-02 ( -21.39%)
   displ. norm   :     0.4338384 α      lambda       -0.3279448E-02
   maximum displ.:     0.1855086 α      in ANC's #21, #8, #31, ...

........................................................................
.............................. CYCLE    5 ..............................
........................................................................
------------------------------------------------------------
  cycle        total energy    energy error   density error
------------------------------------------------------------
      1     -110.2084944563  -1.1146573E+02   2.9909110E-03
      2     -110.2085256633  -3.1207017E-05   1.6829003E-03
      3     -110.2085027506   2.2912718E-05   5.9779363E-04
      4     -110.2085229896  -2.0238978E-05   2.9760319E-04
      5     -110.2085334089  -1.0419306E-05   1.1774101E-04
      6     -110.2085338605  -4.5162314E-07   6.3942059E-05
      7     -110.2085342772  -4.1668754E-07   2.7509270E-05
      8     -110.2085343031  -2.5895048E-08   1.8123874E-05
------------------------------------------------------------

 total:                                   0.270 sec
 * total energy  :  -110.2085343 Eh     change       -0.2224138E-02 Eh
   gradient norm :     0.0126546 Eh/α   predicted    -0.1948347E-02 ( -12.40%)
   displ. norm   :     0.3596000 α      lambda       -0.1300690E-02
   maximum displ.:     0.1802191 α      in ANC's #8, #21, #4, ...

........................................................................
.............................. CYCLE    6 ..............................
........................................................................
------------------------------------------------------------
  cycle        total energy    energy error   density error
------------------------------------------------------------
      1     -110.2094920965  -1.1146961E+02   2.0833329E-03
      2     -110.2095049004  -1.2803874E-05   1.1708147E-03
      3     -110.2094923833   1.2517079E-05   4.4130604E-04
      4     -110.2095046214  -1.2238066E-05   1.9445243E-04
      5     -110.2095089638  -4.3423640E-06   7.4661873E-05
      6     -110.2095092506  -2.8681909E-07   4.1013387E-05
      7     -110.2095093929  -1.4235856E-07   1.7590001E-05
------------------------------------------------------------

 total:                                   0.229 sec
 * total energy  :  -110.2095094 Eh     change       -0.9750899E-03 Eh
   gradient norm :     0.0109416 Eh/α   predicted    -0.7344696E-03 ( -24.68%)
   displ. norm   :     0.4334153 α      lambda       -0.1097513E-02
   maximum displ.:     0.2518766 α      in ANC's #8, #21, #4, ...

........................................................................
.............................. CYCLE    7 ..............................
........................................................................
------------------------------------------------------------
  cycle        total energy    energy error   density error
------------------------------------------------------------
      1     -110.2103468111  -1.1147095E+02   2.4444161E-03
      2     -110.2103596961  -1.2885031E-05   1.3333500E-03
      3     -110.2103461252   1.3570888E-05   4.7760691E-04
      4     -110.2103602218  -1.4096534E-05   2.1164098E-04
      5     -110.2103642315  -4.0097836E-06   8.1262853E-05
      6     -110.2103644572  -2.2570242E-07   4.2227450E-05
      7     -110.2103646581  -2.0081896E-07   1.6952410E-05
------------------------------------------------------------

 total:                                   0.250 sec
 * total energy  :  -110.2103647 Eh     change       -0.8552651E-03 Eh
   gradient norm :     0.0107037 Eh/α   predicted    -0.6518441E-03 ( -23.78%)
   displ. norm   :     0.4643374 α      lambda       -0.9485831E-03
   maximum displ.:     0.2800585 α      in ANC's #8, #4, #21, ...

........................................................................
.............................. CYCLE    8 ..............................
........................................................................
------------------------------------------------------------
  cycle        total energy    energy error   density error
------------------------------------------------------------
      1     -110.2110922785  -1.1147100E+02   2.5190119E-03
      2     -110.2111056032  -1.3324684E-05   1.3805229E-03
      3     -110.2110929324   1.2670756E-05   4.7101749E-04
      4     -110.2111033447  -1.0412318E-05   2.4149268E-04
      5     -110.2111094732  -6.1284524E-06   8.4464233E-05
      6     -110.2111096634  -1.9022025E-07   4.8224604E-05
      7     -110.2111099709  -3.0748650E-07   1.4894037E-05
------------------------------------------------------------

 total:                                   0.311 sec
 * total energy  :  -110.2111100 Eh     change       -0.7453128E-03 Eh
   gradient norm :     0.0090305 Eh/α   predicted    -0.5765557E-03 ( -22.64%)
   displ. norm   :     0.4625673 α      lambda       -0.7541666E-03
   maximum displ.:     0.2941783 α      in ANC's #8, #4, #13, ...

........................................................................
.............................. CYCLE    9 ..............................
........................................................................
------------------------------------------------------------
  cycle        total energy    energy error   density error
------------------------------------------------------------
      1     -110.2116573307  -1.1147081E+02   2.3874919E-03
      2     -110.2116674513  -1.0120653E-05   1.3081530E-03
      3     -110.2116496382   1.7813111E-05   4.6573082E-04
      4     -110.2116635872  -1.3948964E-05   2.5505066E-04
      5     -110.2116711656  -7.5784299E-06   8.0679995E-05
      6     -110.2116713811  -2.1549899E-07   4.0781676E-05
      7     -110.2116716033  -2.2216993E-07   1.3310431E-05
------------------------------------------------------------

 total:                                   0.241 sec
 * total energy  :  -110.2116716 Eh     change       -0.5616324E-03 Eh
   gradient norm :     0.0081805 Eh/α   predicted    -0.4577725E-03 ( -18.49%)
   displ. norm   :     0.3699668 α      lambda       -0.4574712E-03
   maximum displ.:     0.2520370 α      in ANC's #8, #4, #9, ...

........................................................................
.............................. CYCLE   10 ..............................
........................................................................
------------------------------------------------------------
  cycle        total energy    energy error   density error
------------------------------------------------------------
      1     -110.2119842165  -1.1147275E+02   1.6493732E-03
      2     -110.2119912146  -6.9981504E-06   9.5625092E-04
      3     -110.2119791738   1.2040874E-05   3.6656178E-04
      4     -110.2119887257  -9.5519395E-06   1.8641298E-04
      5     -110.2119936802  -4.9545262E-06   5.2456043E-05
      6     -110.2119936724   7.8206739E-09   3.4758984E-05
      7     -110.2119938305  -1.5812066E-07   9.6941752E-06
------------------------------------------------------------

 total:                                   0.230 sec
 * total energy  :  -110.2119938 Eh     change       -0.3222273E-03 Eh
   gradient norm :     0.0078756 Eh/α   predicted    -0.2600540E-03 ( -19.29%)
   displ. norm   :     0.2925178 α      lambda       -0.2766924E-03
   maximum displ.:     0.2090995 α      in ANC's #8, #9, #13, ...

........................................................................
.............................. CYCLE   11 ..............................
........................................................................
------------------------------------------------------------
  cycle        total energy    energy error   density error
------------------------------------------------------------
      1     -110.2121749693  -1.1147337E+02   1.2940989E-03
      2     -110.2121774243  -2.4550526E-06   7.2971368E-04
      3     -110.2121658965   1.1527837E-05   3.1186106E-04
      4     -110.2121787339  -1.2837442E-05   1.0345179E-04
      5     -110.2121792457  -5.1177614E-07   4.4174311E-05
      6     -110.2121793407  -9.4994178E-08   2.4020552E-05
      7     -110.2121794190  -7.8301625E-08   8.6957239E-06
------------------------------------------------------------

 total:                                   0.295 sec
 * total energy  :  -110.2121794 Eh     change       -0.1855885E-03 Eh
   gradient norm :     0.0052984 Eh/α   predicted    -0.1501894E-03 ( -19.07%)
   displ. norm   :     0.2179385 α      lambda       -0.1901715E-03
   maximum displ.:     0.1572431 α      in ANC's #8, #13, #9, ...

........................................................................
.............................. CYCLE   12 ..............................
........................................................................
------------------------------------------------------------
  cycle        total energy    energy error   density error
------------------------------------------------------------
      1     -110.2123043049  -1.1147568E+02   8.3779380E-04
      2     -110.2123061261  -1.8211550E-06   4.9050054E-04
      3     -110.2122996444   6.4817337E-06   2.4828358E-04
      4     -110.2123068502  -7.2057865E-06   8.5227038E-05
      5     -110.2123077780  -9.2786254E-07   2.7348679E-05
      6     -110.2123077789  -9.1080210E-10   1.7332734E-05
------------------------------------------------------------

 total:                                   0.306 sec
 * total energy  :  -110.2123078 Eh     change       -0.1283599E-03 Eh
   gradient norm :     0.0048568 Eh/α   predicted    -0.9960287E-04 ( -22.40%)
   displ. norm   :     0.1949623 α      lambda       -0.1156132E-03
   maximum displ.:     0.1345028 α      in ANC's #8, #13, #9, ...

........................................................................
.............................. CYCLE   13 ..............................
........................................................................
------------------------------------------------------------
  cycle        total energy    energy error   density error
------------------------------------------------------------
      1     -110.2123857157  -1.1147496E+02   7.0395821E-04
      2     -110.2123863737  -6.5802071E-07   4.0177975E-04
      3     -110.2123786637   7.7100037E-06   2.5010229E-04
      4     -110.2123875328  -8.8690625E-06   7.1507716E-05
      5     -110.2123879949  -4.6209087E-07   2.7830675E-05
      6     -110.2123880233  -2.8429966E-08   1.5412271E-05
------------------------------------------------------------

 total:                                   0.304 sec
 * total energy  :  -110.2123880 Eh     change       -0.8024437E-04 Eh
   gradient norm :     0.0044567 Eh/α   predicted    -0.6001084E-04 ( -25.21%)
   displ. norm   :     0.1863317 α      lambda       -0.1087464E-03
   maximum displ.:     0.1230090 α      in ANC's #8, #3, #11, ...

........................................................................
.............................. CYCLE   14 ..............................
........................................................................
------------------------------------------------------------
  cycle        total energy    energy error   density error
------------------------------------------------------------
      1     -110.2124322439  -1.1147621E+02   8.1252336E-04
      2     -110.2124338382  -1.5942882E-06   4.5591643E-04
      3     -110.2124280294   5.8088640E-06   2.3757556E-04
      4     -110.2124337368  -5.7074070E-06   9.8047970E-05
      5     -110.2124350093  -1.2725309E-06   2.7693196E-05
      6     -110.2124350223  -1.3013533E-08   1.5161460E-05
------------------------------------------------------------

 total:                                   0.278 sec
 * total energy  :  -110.2124350 Eh     change       -0.4699903E-04 Eh
   gradient norm :     0.0040146 Eh/α   predicted    -0.5626315E-04 (  19.71%)
   displ. norm   :     0.1054477 α      lambda       -0.5940624E-04
   maximum displ.:     0.0529775 α      in ANC's #8, #13, #11, ...

........................................................................
.............................. CYCLE   15 ..............................
........................................................................
------------------------------------------------------------
  cycle        total energy    energy error   density error
------------------------------------------------------------
      1     -110.2124690644  -1.1147469E+02   4.4779558E-04
      2     -110.2124693803  -3.1591938E-07   2.5980776E-04
      3     -110.2124663151   3.0652593E-06   1.5966687E-04
      4     -110.2124698486  -3.5335653E-06   3.6265606E-05
      5     -110.2124699185  -6.9909845E-08   1.9538540E-05
------------------------------------------------------------

 total:                                   0.204 sec
 * total energy  :  -110.2124699 Eh     change       -0.3489621E-04 Eh
   gradient norm :     0.0028684 Eh/α   predicted    -0.3003897E-04 ( -13.92%)
   displ. norm   :     0.0591174 α      lambda       -0.3313745E-04
   maximum displ.:     0.0263752 α      in ANC's #14, #11, #17, ...

........................................................................
.............................. CYCLE   16 ..............................
........................................................................
------------------------------------------------------------
  cycle        total energy    energy error   density error
------------------------------------------------------------
      1     -110.2124959445  -1.1147441E+02   3.8982389E-04
      2     -110.2124961633  -2.1880820E-07   2.3403575E-04
      3     -110.2124934715   2.6917195E-06   1.6158175E-04
      4     -110.2124969106  -3.4390349E-06   3.2829912E-05
      5     -110.2124970124  -1.0186517E-07   1.5844992E-05
------------------------------------------------------------

 total:                                   0.198 sec
 * total energy  :  -110.2124970 Eh     change       -0.2709391E-04 Eh
   gradient norm :     0.0024341 Eh/α   predicted    -0.1662807E-04 ( -38.63%)
   displ. norm   :     0.1489318 α      lambda       -0.6085940E-04
   maximum displ.:     0.0662366 α      in ANC's #14, #11, #17, ...

........................................................................
.............................. CYCLE   17 ..............................
........................................................................
------------------------------------------------------------
  cycle        total energy    energy error   density error
------------------------------------------------------------
      1     -110.2125338495  -1.1147436E+02   9.2688737E-04
      2     -110.2125346821  -8.3260156E-07   5.3245918E-04
      3     -110.2125238695   1.0812620E-05   2.8187128E-04
      4     -110.2125359338  -1.2064296E-05   6.5881851E-05
      5     -110.2125362550  -3.2124831E-07   3.2129136E-05
      6     -110.2125363601  -1.0511310E-07   1.1056313E-05
------------------------------------------------------------

 total:                                   0.278 sec
 * total energy  :  -110.2125364 Eh     change       -0.3934770E-04 Eh
   gradient norm :     0.0028964 Eh/α   predicted    -0.3110539E-04 ( -20.95%)
   displ. norm   :     0.1125521 α      lambda       -0.2725023E-04
   maximum displ.:     0.0411979 α      in ANC's #11, #3, #14, ...

........................................................................
.............................. CYCLE   18 ..............................
........................................................................
------------------------------------------------------------
  cycle        total energy    energy error   density error
------------------------------------------------------------
      1     -110.2125542200  -1.1147412E+02   6.2152785E-04
      2     -110.2125545358  -3.1583748E-07   3.5304198E-04
      3     -110.2125523215   2.2143486E-06   1.2961920E-04
      4     -110.2125546458  -2.3243390E-06   4.5247603E-05
      5     -110.2125547981  -1.5228601E-07   1.6583814E-05
------------------------------------------------------------

 total:                                   0.195 sec
 * total energy  :  -110.2125548 Eh     change       -0.1843793E-04 Eh
   gradient norm :     0.0029768 Eh/α   predicted    -0.1379850E-04 ( -25.16%)
   displ. norm   :     0.1534866 α      lambda       -0.3592879E-04
   maximum displ.:     0.0562017 α      in ANC's #3, #14, #6, ...

........................................................................
.............................. CYCLE   19 ..............................
........................................................................
------------------------------------------------------------
  cycle        total energy    energy error   density error
------------------------------------------------------------
      1     -110.2125700685  -1.1147490E+02   8.5613859E-04
      2     -110.2125710135  -9.4502192E-07   4.8328292E-04
      3     -110.2125661772   4.8362594E-06   1.9870425E-04
      4     -110.2125715044  -5.3271297E-06   6.5029908E-05
      5     -110.2125717267  -2.2228248E-07   3.3039064E-05
      6     -110.2125718497  -1.2308131E-07   1.2122731E-05
------------------------------------------------------------

 total:                                   0.232 sec
 * total energy  :  -110.2125718 Eh     change       -0.1705166E-04 Eh
   gradient norm :     0.0021732 Eh/α   predicted    -0.1839022E-04 (   7.85%)
   displ. norm   :     0.0534501 α      lambda       -0.1786783E-04
   maximum displ.:     0.0212898 α      in ANC's #3, #2, #15, ...

........................................................................
.............................. CYCLE   20 ..............................
........................................................................
------------------------------------------------------------
  cycle        total energy    energy error   density error
------------------------------------------------------------
      1     -110.2125824756  -1.1147515E+02   2.7436885E-04
      2     -110.2125825515  -7.5843474E-08   1.5246873E-04
      3     -110.2125810621   1.4893167E-06   1.1729643E-04
      4     -110.2125829663  -1.9041393E-06   2.5102528E-05
      5     -110.2125829889  -2.2642254E-08   1.3799999E-05
------------------------------------------------------------

 total:                                   0.202 sec
 * total energy  :  -110.2125830 Eh     change       -0.1113917E-04 Eh
   gradient norm :     0.0014037 Eh/α   predicted    -0.8962112E-05 ( -19.54%)
   displ. norm   :     0.0553753 α      lambda       -0.1019347E-04
   maximum displ.:     0.0221280 α      in ANC's #2, #15, #14, ...
 * RMSD in coord.:     0.4931758 α      energy gain  -0.8741127E-01 Eh

generating ANC from exact Hessian ...
Using Lindh-Hessian (1995)
 Shifting diagonal of input Hessian by    9.8157203448037845E-003
 Lowest  eigenvalues of input Hessian
    0.000000    0.000000    0.000000    0.000000    0.000000    0.000000
    0.010000    0.010072    0.010157    0.010221    0.010467    0.010744
    0.010813    0.011008    0.011657    0.011867    0.013494    0.013684
 Highest eigenvalues
    2.119190    2.199287    2.208549    2.637241    2.659573    2.668340


........................................................................
.............................. CYCLE   21 ..............................
........................................................................
------------------------------------------------------------
  cycle        total energy    energy error   density error
------------------------------------------------------------
      1     -110.2125909720  -1.1147529E+02   3.4037690E-04
      2     -110.2125913155  -3.4347708E-07   1.8685098E-04
      3     -110.2125901768   1.1386643E-06   1.0251797E-04
      4     -110.2125916327  -1.4559132E-06   3.0368497E-05
      5     -110.2125916832  -5.0456833E-08   1.4729476E-05
------------------------------------------------------------

 total:                                   0.176 sec
 * total energy  :  -110.2125917 Eh     change       -0.8694288E-05 Eh
   gradient norm :     0.0017516 Eh/α   predicted     0.0000000E+00 (-100.00%)
   displ. norm   :     0.0244837 α      lambda       -0.5768057E-05
   maximum displ.:     0.0097021 α      in ANC's #2, #4, #21, ...

........................................................................
.............................. CYCLE   22 ..............................
........................................................................
------------------------------------------------------------
  cycle        total energy    energy error   density error
------------------------------------------------------------
      1     -110.2125992914  -1.1147529E+02   1.8900701E-04
      2     -110.2125993774  -8.5949708E-08   1.0512775E-04
      3     -110.2125989217   4.5571397E-07   7.4164700E-05
      4     -110.2125996234  -7.0176704E-07   2.0675129E-05
      5     -110.2125996449  -2.1514452E-08   1.0432905E-05
------------------------------------------------------------

 total:                                   0.293 sec
 * total energy  :  -110.2125996 Eh     change       -0.7961735E-05 Eh
   gradient norm :     0.0005895 Eh/α   predicted    -0.3722339E-05 ( -53.25%)
   displ. norm   :     0.0519366 α      lambda       -0.7239595E-05
   maximum displ.:     0.0219391 α      in ANC's #2, #4, #6, ...

........................................................................
.............................. CYCLE   23 ..............................
........................................................................
------------------------------------------------------------
  cycle        total energy    energy error   density error
------------------------------------------------------------
      1     -110.2126071187  -1.1147518E+02   3.0231759E-04
      2     -110.2126073269  -2.0824523E-07   1.6110285E-04
      3     -110.2126063821   9.4486113E-07   9.7782532E-05
      4     -110.2126075158  -1.1337349E-06   3.4552248E-05
      5     -110.2126076048  -8.9050545E-08   1.7258731E-05
------------------------------------------------------------

 total:                                   0.264 sec
 * total energy  :  -110.2126076 Eh     change       -0.7959909E-05 Eh
   gradient norm :     0.0009368 Eh/α   predicted    -0.3624394E-05 ( -54.47%)
   displ. norm   :     0.0794185 α      lambda       -0.7144161E-05
   maximum displ.:     0.0345394 α      in ANC's #2, #6, #4, ...

........................................................................
.............................. CYCLE   24 ..............................
........................................................................
------------------------------------------------------------
  cycle        total energy    energy error   density error
------------------------------------------------------------
      1     -110.2126148652  -1.1147511E+02   4.3401155E-04
      2     -110.2126151528  -2.8756115E-07   2.2834660E-04
      3     -110.2126129107   2.2420526E-06   1.4618890E-04
      4     -110.2126156644  -2.7536265E-06   4.4538881E-05
      5     -110.2126157478  -8.3466745E-08   2.4421354E-05
      6     -110.2126158005  -5.2694247E-08   8.1892531E-06
------------------------------------------------------------

 total:                                   0.257 sec
 * total energy  :  -110.2126158 Eh     change       -0.8195672E-05 Eh
   gradient norm :     0.0014101 Eh/α   predicted    -0.3586004E-05 ( -56.25%)
   displ. norm   :     0.1041661 α      lambda       -0.7580905E-05
   maximum displ.:     0.0467972 α      in ANC's #2, #6, #4, ...

........................................................................
.............................. CYCLE   25 ..............................
........................................................................
------------------------------------------------------------
  cycle        total energy    energy error   density error
------------------------------------------------------------
      1     -110.2126238162  -1.1147508E+02   5.2504928E-04
      2     -110.2126241958  -3.7954985E-07   2.7325641E-04
      3     -110.2126236050   5.9076187E-07   8.9802655E-05
      4     -110.2126241017  -4.9668499E-07   5.3760546E-05
      5     -110.2126243511  -2.4937587E-07   1.8004828E-05
------------------------------------------------------------

 total:                                   0.220 sec
 * total energy  :  -110.2126244 Eh     change       -0.8550561E-05 Eh
   gradient norm :     0.0012084 Eh/α   predicted    -0.3821313E-05 ( -55.31%)
   displ. norm   :     0.0950246 α      lambda       -0.5989069E-05
   maximum displ.:     0.0453691 α      in ANC's #2, #6, #4, ...

........................................................................
.............................. CYCLE   26 ..............................
........................................................................
------------------------------------------------------------
  cycle        total energy    energy error   density error
------------------------------------------------------------
      1     -110.2126303924  -1.1147517E+02   4.7079419E-04
      2     -110.2126306655  -2.7310917E-07   2.4704559E-04
      3     -110.2126282044   2.4611706E-06   1.3902049E-04
      4     -110.2126310452  -2.8408206E-06   4.5625361E-05
      5     -110.2126311169  -7.1674208E-08   2.1508982E-05
      6     -110.2126311482  -3.1303060E-08   7.1137415E-06
------------------------------------------------------------

 total:                                   0.271 sec
 * total energy  :  -110.2126311 Eh     change       -0.6797077E-05 Eh
   gradient norm :     0.0005490 Eh/α   predicted    -0.3018807E-05 ( -55.59%)
   displ. norm   :     0.0752815 α      lambda       -0.4288447E-05
   maximum displ.:     0.0393058 α      in ANC's #6, #2, #4, ...

........................................................................
.............................. CYCLE   27 ..............................
........................................................................
------------------------------------------------------------
  cycle        total energy    energy error   density error
------------------------------------------------------------
      1     -110.2126358448  -1.1147528E+02   3.5484135E-04
      2     -110.2126360213  -1.7649826E-07   1.8221433E-04
      3     -110.2126359928   2.8429042E-08   4.5095848E-05
      4     -110.2126359522   4.0649809E-08   3.2904083E-05
      5     -110.2126360652  -1.1297142E-07   1.1216880E-05
------------------------------------------------------------

 total:                                   0.229 sec
 * total energy  :  -110.2126361 Eh     change       -0.4917007E-05 Eh
   gradient norm :     0.0004273 Eh/α   predicted    -0.2154154E-05 ( -56.19%)
   displ. norm   :     0.0626831 α      lambda       -0.3385680E-05
   maximum displ.:     0.0354380 α      in ANC's #6, #2, #4, ...

........................................................................
.............................. CYCLE   28 ..............................
........................................................................
------------------------------------------------------------
  cycle        total energy    energy error   density error
------------------------------------------------------------
      1     -110.2126397731  -1.1147534E+02   3.0713200E-04
      2     -110.2126398475  -7.4425841E-08   1.6025992E-04
      3     -110.2126384636   1.3838616E-06   1.0365750E-04
      4     -110.2126400928  -1.6292123E-06   2.8144964E-05
      5     -110.2126401094  -1.6524780E-08   1.0971208E-05
------------------------------------------------------------

 total:                                   0.162 sec
 * total energy  :  -110.2126401 Eh     change       -0.4044204E-05 Eh
   gradient norm :     0.0006915 Eh/α   predicted    -0.1699452E-05 ( -57.98%)
   displ. norm   :     0.0643949 α      lambda       -0.3280386E-05
   maximum displ.:     0.0374279 α      in ANC's #6, #2, #4, ...

........................................................................
.............................. CYCLE   29 ..............................
........................................................................
------------------------------------------------------------
  cycle        total energy    energy error   density error
------------------------------------------------------------
      1     -110.2126437526  -1.1147532E+02   3.2636136E-04
      2     -110.2126439344  -1.8181187E-07   1.7111028E-04
      3     -110.2126432393   6.9507306E-07   8.3855759E-05
      4     -110.2126440498  -8.1045629E-07   3.2398983E-05
      5     -110.2126440846  -3.4832524E-08   1.7306103E-05
------------------------------------------------------------

 total:                                   0.330 sec
 * total energy  :  -110.2126441 Eh     change       -0.3975229E-05 Eh
   gradient norm :     0.0006804 Eh/α   predicted    -0.1647468E-05 ( -58.56%)
   displ. norm   :     0.0775222 α      lambda       -0.3508442E-05
   maximum displ.:     0.0452141 α      in ANC's #6, #2, #4, ...

........................................................................
.............................. CYCLE   30 ..............................
........................................................................
------------------------------------------------------------
  cycle        total energy    energy error   density error
------------------------------------------------------------
      1     -110.2126476170  -1.1147524E+02   4.1713038E-04
      2     -110.2126478128  -1.9583075E-07   2.2209551E-04
      3     -110.2126449968   2.8160189E-06   1.5003090E-04
      4     -110.2126484049  -3.4081238E-06   4.0582346E-05
      5     -110.2126484516  -4.6703860E-08   2.1472379E-05
      6     -110.2126484865  -3.4879264E-08   8.0684449E-06
------------------------------------------------------------

 total:                                   0.294 sec
 * total energy  :  -110.2126485 Eh     change       -0.4401894E-05 Eh
   gradient norm :     0.0005110 Eh/α   predicted    -0.1761925E-05 ( -59.97%)
   displ. norm   :     0.0982079 α      lambda       -0.4079359E-05
   maximum displ.:     0.0574290 α      in ANC's #6, #2, #4, ...

........................................................................
.............................. CYCLE   31 ..............................
........................................................................
------------------------------------------------------------
  cycle        total energy    energy error   density error
------------------------------------------------------------
      1     -110.2126528879  -1.1147513E+02   5.3990571E-04
      2     -110.2126534303  -5.4239581E-07   2.7857632E-04
      3     -110.2126533280   1.0229341E-07   7.4093659E-05
      4     -110.2126533310  -2.9117899E-09   5.0201982E-05
      5     -110.2126535319  -2.0090192E-07   2.0677433E-05
      6     -110.2126535562  -2.4326795E-08   9.7065700E-06
------------------------------------------------------------

 total:                                   0.260 sec
 * total energy  :  -110.2126536 Eh     change       -0.5069695E-05 Eh
   gradient norm :     0.0004697 Eh/α   predicted    -0.2056851E-05 ( -59.43%)
   displ. norm   :     0.1322816 α      lambda       -0.4911383E-05
   maximum displ.:     0.0772699 α      in ANC's #6, #2, #4, ...

........................................................................
.............................. CYCLE   32 ..............................
........................................................................
------------------------------------------------------------
  cycle        total energy    energy error   density error
------------------------------------------------------------
      1     -110.2126579746  -1.1147501E+02   7.4444752E-04
      2     -110.2126589467  -9.7211039E-07   3.8033002E-04
      3     -110.2126572705   1.6762101E-06   1.3664859E-04
      4     -110.2126586910  -1.4205096E-06   8.2459820E-05
      5     -110.2126593771  -6.8602809E-07   2.7253575E-05
      6     -110.2126593896  -1.2514406E-08   1.2926259E-05
------------------------------------------------------------

 total:                                   0.262 sec
 * total energy  :  -110.2126594 Eh     change       -0.5833387E-05 Eh
   gradient norm :     0.0006485 Eh/α   predicted    -0.2476675E-05 ( -57.54%)
   displ. norm   :     0.1467171 α      lambda       -0.4544738E-05
   maximum displ.:     0.0860910 α      in ANC's #6, #2, #4, ...

........................................................................
.............................. CYCLE   33 ..............................
........................................................................
------------------------------------------------------------
  cycle        total energy    energy error   density error
------------------------------------------------------------
      1     -110.2126627173  -1.1147493E+02   8.2890081E-04
      2     -110.2126639766  -1.2592281E-06   4.1719365E-04
      3     -110.2126629284   1.0482074E-06   1.3671528E-04
      4     -110.2126637920  -8.6360149E-07   8.5204141E-05
      5     -110.2126643742  -5.8224460E-07   3.2950268E-05
      6     -110.2126644183  -4.4099565E-08   1.7109460E-05
------------------------------------------------------------

 total:                                   0.273 sec
 * total energy  :  -110.2126644 Eh     change       -0.5028732E-05 Eh
   gradient norm :     0.0007389 Eh/α   predicted    -0.2298978E-05 ( -54.28%)
   displ. norm   :     0.1142372 α      lambda       -0.3010800E-05
   maximum displ.:     0.0677668 α      in ANC's #6, #2, #4, ...

........................................................................
.............................. CYCLE   34 ..............................
........................................................................
------------------------------------------------------------
  cycle        total energy    energy error   density error
------------------------------------------------------------
      1     -110.2126661589  -1.1147501E+02   6.4649608E-04
      2     -110.2126667187  -5.5976675E-07   3.2687853E-04
      3     -110.2126620915   4.6272167E-06   1.8895901E-04
      4     -110.2126675519  -5.4604249E-06   6.1645988E-05
      5     -110.2126676703  -1.1839637E-07   2.8481209E-05
      6     -110.2126677180  -4.7701363E-08   1.3288148E-05
------------------------------------------------------------

 total:                                   0.354 sec
 * total energy  :  -110.2126677 Eh     change       -0.3299675E-05 Eh
   gradient norm :     0.0005503 Eh/α   predicted    -0.1516688E-05 ( -54.04%)
   displ. norm   :     0.0759728 α      lambda       -0.1920800E-05
   maximum displ.:     0.0456489 α      in ANC's #6, #2, #4, ...

........................................................................
.............................. CYCLE   35 ..............................
........................................................................
------------------------------------------------------------
  cycle        total energy    energy error   density error
------------------------------------------------------------
      1     -110.2126691693  -1.1147516E+02   4.2760751E-04
      2     -110.2126694634  -2.9410225E-07   2.1148263E-04
      3     -110.2126682860   1.1773519E-06   1.0874557E-04
      4     -110.2126697163  -1.4303159E-06   3.9838704E-05
      5     -110.2126697372  -2.0876101E-08   2.1602494E-05
      6     -110.2126697891  -5.1938784E-08   8.2703349E-06
------------------------------------------------------------

 total:                                   0.291 sec
 * total energy  :  -110.2126698 Eh     change       -0.2071154E-05 Eh
   gradient norm :     0.0002829 Eh/α   predicted    -0.9632553E-06 ( -53.49%)
   displ. norm   :     0.0550989 α      lambda       -0.1171981E-05
   maximum displ.:     0.0335508 α      in ANC's #6, #2, #4, ...

........................................................................
.............................. CYCLE   36 ..............................
........................................................................
------------------------------------------------------------
  cycle        total energy    energy error   density error
------------------------------------------------------------
      1     -110.2126707767  -1.1147523E+02   3.1739079E-04
      2     -110.2126709046  -1.2786286E-07   1.5951743E-04
      3     -110.2126701225   7.8209065E-07   7.9497139E-05
      4     -110.2126710376  -9.1515513E-07   2.8394671E-05
      5     -110.2126710521  -1.4520992E-08   1.2116070E-05
------------------------------------------------------------

 total:                                   0.168 sec
 * total energy  :  -110.2126711 Eh     change       -0.1263004E-05 Eh
   gradient norm :     0.0002425 Eh/α   predicted    -0.5873325E-06 ( -53.50%)
   displ. norm   :     0.0362964 α      lambda       -0.8416039E-06
   maximum displ.:     0.0213726 α      in ANC's #6, #2, #12, ...

........................................................................
.............................. CYCLE   37 ..............................
........................................................................
------------------------------------------------------------
  cycle        total energy    energy error   density error
------------------------------------------------------------
      1     -110.2126717475  -1.1147528E+02   2.1674453E-04
      2     -110.2126718293  -8.1804430E-08   1.1706834E-04
      3     -110.2126711518   6.7756132E-07   7.6600900E-05
      4     -110.2126720226  -8.7087641E-07   1.9790622E-05
------------------------------------------------------------

 total:                                   0.163 sec
 * total energy  :  -110.2126720 Eh     change       -0.9705086E-06 Eh
   gradient norm :     0.0002828 Eh/α   predicted    -0.4250047E-06 ( -56.21%)
   displ. norm   :     0.0351350 α      lambda       -0.7448037E-06
   maximum displ.:     0.0212897 α      in ANC's #6, #12, #2, ...

   *** GEOMETRY OPTIMIZATION CONVERGED AFTER 37 ITERATIONS ***

------------------------------------------------------------------------
 total energy gain   :        -0.0875003 Eh      -54.9073 kcal/mol
 total RMSD          :         0.5321345 a0        0.2816 Å
 total power (kW/mol):        -6.2089735 (step)  -23.8157 (real)
------------------------------------------------------------------------

 ANCopt (total)                0 d,  0 h,  0 min,  9.646 sec
 optimizer setup                ...        0 min,  0.001 sec (  0.014%)
 model hessian                  ...        0 min,  0.023 sec (  0.237%)
 ANC generation                 ...        0 min,  0.016 sec (  0.165%)
 coordinate transformation      ...        0 min,  0.001 sec (  0.007%)
 single point calculation       ...        0 min,  9.590 sec ( 99.420%)
 optimization log               ...        0 min,  0.005 sec (  0.055%)
 hessian update                 ...        0 min,  0.002 sec (  0.021%)
 rational function              ...        0 min,  0.006 sec (  0.061%)

================
 final structure:
================
 xtb: 6.7.1 (edcfbbe)
          02282512543D

 58 62  0     0  0            999 V2000
   -2.0933    1.5298   -2.6752 C   0  0  0  0  0  0  0  0  0  0  0  0
   -1.8735    0.6810   -1.6087 C   0  0  0  0  0  0  0  0  0  0  0  0
   -1.0442    1.1124   -0.5393 C   0  0  0  0  0  0  0  0  0  0  0  0
   -0.2451    2.2875   -0.7159 C   0  0  0  0  0  0  0  0  0  0  0  0
   -0.5190    3.1441   -1.8094 C   0  0  0  0  0  0  0  0  0  0  0  0
   -1.4515    2.7715   -2.7284 C   0  0  0  0  0  0  0  0  0  0  0  0
   -0.8744    0.4017    0.6874 C   0  0  0  0  0  0  0  0  0  0  0  0
    0.3193    0.6361    1.3881 C   0  0  0  0  0  0  0  0  0  0  0  0
    1.1391    1.7483    1.0320 C   0  0  0  0  0  0  0  0  0  0  0  0
    0.7814    2.6006    0.0753 N   0  0  0  0  0  0  0  0  0  0  0  0
   -1.7920   -0.5184    1.2802 C   0  0  0  0  0  0  0  0  0  0  0  0
   -1.2556   -1.4266    2.2492 C   0  0  0  0  0  0  0  0  0  0  0  0
   -0.0339   -1.3021    2.7719 N   0  0  0  0  0  0  0  0  0  0  0  0
    0.6978   -0.2405    2.4488 C   0  0  0  0  0  0  0  0  0  0  0  0
    1.9148    0.0089    3.1217 C   0  0  0  0  0  0  0  0  0  0  0  0
    2.6844    1.0982    2.7731 C   0  0  0  0  0  0  0  0  0  0  0  0
    2.3248    1.9728    1.7665 C   0  0  0  0  0  0  0  0  0  0  0  0
   -3.1917   -0.5187    1.0455 C   0  0  0  0  0  0  0  0  0  0  0  0
   -3.9566   -1.5514    1.5516 C   0  0  0  0  0  0  0  0  0  0  0  0
   -3.3729   -2.5432    2.3403 C   0  0  0  0  0  0  0  0  0  0  0  0
   -2.0670   -2.4824    2.7289 C   0  0  0  0  0  0  0  0  0  0  0  0
   -3.7030    0.5522    0.3916 O   0  0  0  0  0  0  0  0  0  0  0  0
   -2.3391   -0.5908   -1.5398 O   0  0  0  0  0  0  0  0  0  0  0  0
   -1.9139    3.8797   -4.1141 S   0  0  0  0  0  0  0  0  0  0  0  0
   -4.4269   -3.9398    2.9011 S   0  0  0  0  0  0  0  0  0  0  0  0
    0.0371    4.0611   -1.9192 H   0  0  0  0  0  0  0  0  0  0  0  0
   -2.7554    1.2665   -3.4843 H   0  0  0  0  0  0  0  0  0  0  0  0
    2.9422    2.8201    1.5150 H   0  0  0  0  0  0  0  0  0  0  0  0
    2.2324   -0.6491    3.9158 H   0  0  0  0  0  0  0  0  0  0  0  0
   -1.6383   -3.1954    3.4132 H   0  0  0  0  0  0  0  0  0  0  0  0
   -5.0170   -1.6301    1.3688 H   0  0  0  0  0  0  0  0  0  0  0  0
   -1.0562    5.0338   -3.9557 O   0  0  0  0  0  0  0  0  0  0  0  0
   -3.4250    4.2632   -3.4932 O   0  0  0  0  0  0  0  0  0  0  0  0
   -3.4378    5.1401   -2.3967 C   0  0  0  0  0  0  0  0  0  0  0  0
    4.2779    1.3998    3.6497 S   0  0  0  0  0  0  0  0  0  0  0  0
    4.3137    0.3714    4.6686 O   0  0  0  0  0  0  0  0  0  0  0  0
    5.2564    0.9082    2.3863 O   0  0  0  0  0  0  0  0  0  0  0  0
    5.3403   -0.4745    2.1575 C   0  0  0  0  0  0  0  0  0  0  0  0
   -5.7143   -3.6509    2.2953 O   0  0  0  0  0  0  0  0  0  0  0  0
   -3.6702   -5.1045    1.9719 O   0  0  0  0  0  0  0  0  0  0  0  0
   -3.8719   -5.0274    0.5856 C   0  0  0  0  0  0  0  0  0  0  0  0
   -5.0974    0.6288    0.2099 C   0  0  0  0  0  0  0  0  0  0  0  0
   -3.1255   -1.0810   -2.5988 C   0  0  0  0  0  0  0  0  0  0  0  0
   -3.7352   -6.0276    0.1770 H   0  0  0  0  0  0  0  0  0  0  0  0
   -3.1535   -4.3387    0.1282 H   0  0  0  0  0  0  0  0  0  0  0  0
   -4.8911   -4.6850    0.3756 H   0  0  0  0  0  0  0  0  0  0  0  0
    6.3175   -0.6777    1.7217 H   0  0  0  0  0  0  0  0  0  0  0  0
    4.5527   -0.8014    1.4711 H   0  0  0  0  0  0  0  0  0  0  0  0
    5.2440   -1.0158    3.1046 H   0  0  0  0  0  0  0  0  0  0  0  0
   -3.3789   -2.1048   -2.3264 H   0  0  0  0  0  0  0  0  0  0  0  0
   -2.5694   -1.0846   -3.5416 H   0  0  0  0  0  0  0  0  0  0  0  0
   -4.0447   -0.4999   -2.7217 H   0  0  0  0  0  0  0  0  0  0  0  0
   -5.2724    1.5663   -0.3162 H   0  0  0  0  0  0  0  0  0  0  0  0
   -5.6247    0.6450    1.1684 H   0  0  0  0  0  0  0  0  0  0  0  0
   -5.4722   -0.2031   -0.3941 H   0  0  0  0  0  0  0  0  0  0  0  0
   -4.3846    5.6780   -2.4155 H   0  0  0  0  0  0  0  0  0  0  0  0
   -2.6119    5.8540   -2.4806 H   0  0  0  0  0  0  0  0  0  0  0  0
   -3.3418    4.5864   -1.4569 H   0  0  0  0  0  0  0  0  0  0  0  0
  1  2  2  0  0  0  0
  1  6  1  0  0  0  0
  1 27  1  0  0  0  0
  2  3  1  0  0  0  0
  2 23  1  0  0  0  0
  3  4  2  0  0  0  0
  3  7  1  0  0  0  0
  4  5  1  0  0  0  0
  4 10  1  0  0  0  0
  5  6  2  0  0  0  0
  5 26  1  0  0  0  0
  6 24  1  0  0  0  0
  7  8  2  0  0  0  0
  7 11  1  0  0  0  0
  8  9  1  0  0  0  0
  8 14  1  0  0  0  0
  9 10  1  0  0  0  0
  9 17  2  0  0  0  0
 11 12  2  0  0  0  0
 11 18  1  0  0  0  0
 12 13  1  0  0  0  0
 12 21  1  0  0  0  0
 13 14  2  0  0  0  0
 14 15  1  0  0  0  0
 15 16  2  0  0  0  0
 15 29  1  0  0  0  0
 16 17  1  0  0  0  0
 16 35  1  0  0  0  0
 17 28  1  0  0  0  0
 18 19  2  0  0  0  0
 18 22  1  0  0  0  0
 19 20  1  0  0  0  0
 19 31  1  0  0  0  0
 20 21  2  0  0  0  0
 20 25  1  0  0  0  0
 21 30  1  0  0  0  0
 22 42  1  0  0  0  0
 23 43  1  0  0  0  0
 24 32  2  0  0  0  0
 24 33  1  0  0  0  0
 25 39  2  0  0  0  0
 25 40  1  0  0  0  0
 33 34  1  0  0  0  0
 34 56  1  0  0  0  0
 34 57  1  0  0  0  0
 34 58  1  0  0  0  0
 35 36  2  0  0  0  0
 35 37  1  0  0  0  0
 37 38  1  0  0  0  0
 38 47  1  0  0  0  0
 38 48  1  0  0  0  0
 38 49  1  0  0  0  0
 40 41  1  0  0  0  0
 41 44  1  0  0  0  0
 41 45  1  0  0  0  0
 41 46  1  0  0  0  0
 42 53  1  0  0  0  0
 42 54  1  0  0  0  0
 42 55  1  0  0  0  0
 43 50  1  0  0  0  0
 43 51  1  0  0  0  0
 43 52  1  0  0  0  0
M  END

 Bond Distances (Angstroems)
 ---------------------------
C1-C2=1.3807         C1-C6=1.3988         C1-H27=1.0781        C2-C1=1.3807         C2-C3=1.4204         C2-O23=1.3561        
C3-C2=1.4204         C3-C4=1.4320         C3-C7=1.4278         C4-C3=1.4320         C4-C5=1.4158         C4-N10=1.3333        
C5-C4=1.4158         C5-C6=1.3612         C5-H26=1.0780        C6-C1=1.3988         C6-C5=1.3612         C6-S24=1.8336        
C7-C3=1.4278         C7-C8=1.4039         C7-C11=1.4283        C8-C7=1.4039         C8-C9=1.4269         C8-C14=1.4271        
C9-C8=1.4269         C9-N10=1.3303        C9-C17=1.4127        N10-C4=1.3333        N10-C9=1.3303        C11-C7=1.4283        
C11-C12=1.4323       C11-C18=1.4193       C12-C11=1.4323       C12-N13=1.3346       C12-C21=1.4154       N13-C12=1.3346       
N13-C14=1.3292       C14-C8=1.4271        C14-N13=1.3292       C14-C15=1.4129       C15-C14=1.4129       C15-C16=1.3785       
C15-H29=1.0791       C16-C15=1.3785       C16-C17=1.3811       C16-S35=1.8435       C17-C9=1.4127        C17-C16=1.3811       
C17-H28=1.0781       C18-C11=1.4193       C18-C19=1.3812       C18-O22=1.3549       C19-C18=1.3812       C19-C20=1.3951       
C19-H31=1.0789       C20-C19=1.3951       C20-C21=1.3639       C20-S25=1.8373       C21-C12=1.4154       C21-C20=1.3639       
C21-H30=1.0772       O22-C18=1.3549       O22-C42=1.4083       O23-C2=1.3561        O23-C43=1.4072       S24-C6=1.8336        
S24-O32=1.4467       S24-O33=1.6781       S25-C20=1.8373       S25-O39=1.4518       S25-O40=1.6710       H26-C5=1.0780        
H27-C1=1.0781        H28-C17=1.0781       H29-C15=1.0791       H30-C21=1.0772       H31-C19=1.0789       O32-S24=1.4467       
O33-S24=1.6781       O33-C34=1.4041       C34-O33=1.4041       C34-H56=1.0891       C34-H57=1.0949       C34-H58=1.0949       
S35-C16=1.8435       S35-O36=1.4482       S35-O37=1.6720       O36-S35=1.4482       O37-S35=1.6720       O37-C38=1.4041       
C38-O37=1.4041       C38-H47=1.0891       C38-H48=1.0947       C38-H49=1.0952       O39-S25=1.4518       O40-S25=1.6710       
O40-C41=1.4030       C41-O40=1.4030       C41-H44=1.0891       C41-H45=1.0953       C41-H46=1.0955       C42-O22=1.4083       
C42-H53=1.0892       C42-H54=1.0941       C42-H55=1.0942       C43-O23=1.4072       C43-H50=1.0893       C43-H51=1.0946       
C43-H52=1.0943       H44-C41=1.0891       H45-C41=1.0953       H46-C41=1.0955       H47-C38=1.0891       H48-C38=1.0947       
H49-C38=1.0952       H50-C43=1.0893       H51-C43=1.0946       H52-C43=1.0943       H53-C42=1.0892       H54-C42=1.0941       
H55-C42=1.0942       H56-C34=1.0891       H57-C34=1.0949       H58-C34=1.0949       
 C  H  Rav=1.0887 sigma=0.0070  Rmin=1.0772  Rmax=1.0955    21
 C  C  Rav=1.4055 sigma=0.0223  Rmin=1.3612  Rmax=1.4323    21
 N  C  Rav=1.3319 sigma=0.0022  Rmin=1.3292  Rmax=1.3346     4
 O  C  Rav=1.3911 sigma=0.0226  Rmin=1.3549  Rmax=1.4083     7
 S  C  Rav=1.8381 sigma=0.0041  Rmin=1.8336  Rmax=1.8435     3
 S  O  Rav=1.5613 sigma=0.1124  Rmin=1.4467  Rmax=1.6781     6

 selected bond angles (degree)
 --------------------
C6-C1-C2=120.13                H27-C1-C2=121.83               H27-C1-C6=118.04               C3-C2-C1=119.20                
O23-C2-C1=124.13               O23-C2-C3=116.56               C4-C3-C2=118.83                C7-C3-C2=124.41                
C7-C3-C4=116.62                C5-C4-C3=118.93                N10-C4-C3=123.31               N10-C4-C5=117.72               
C6-C5-C4=119.23                H26-C5-C4=119.57               H26-C5-C6=121.16               C5-C6-C1=122.12                
S24-C6-C1=116.71               S24-C6-C5=121.17               C8-C7-C3=116.54                C11-C7-C3=126.93               
C11-C7-C8=116.53               C9-C8-C7=119.61                C14-C8-C7=119.60               C14-C8-C9=120.79               
N10-C9-C8=121.63               C17-C9-C8=118.45               C17-C9-N10=119.85              C9-N10-C4=118.90               

 selected dihedral angles (degree)
 ---------------------------------
C3-C2-C1-C6=  3.15            C3-C2-C1-H27=183.23           O23-C2-C1-C6=187.15           O23-C2-C1-H27=  7.23          
C4-C3-C2-C1=347.34            C4-C3-C2-O23=163.63           C7-C3-C2-C1=171.84            C7-C3-C2-O23=348.14           
C5-C4-C3-C2= 13.99            C5-C4-C3-C7=189.84            N10-C4-C3-C2=196.27           N10-C4-C3-C7= 12.12           
C6-C5-C4-C3=354.24            C6-C5-C4-N10=172.09           H26-C5-C4-C3=176.39           H26-C5-C4-N10=354.24          
C5-C6-C1-C2=  5.42            C5-C6-C1-H27=185.35           S24-C6-C1-C2=184.82           S24-C6-C1-H27=  4.75          
C1-C6-C5-C4=356.01            C1-C6-C5-H26=173.82           S24-C6-C5-C4=176.63           S24-C6-C5-H26=354.45          
C8-C7-C3-C2=155.28            C8-C7-C3-C4=339.70            C11-C7-C3-C2=335.03           C11-C7-C3-C4=159.44           
C9-C8-C7-C3= 13.95            C9-C8-C7-C11=194.18           C14-C8-C7-C3=193.90           C14-C8-C7-C11= 14.13          
N10-C9-C8-C7=  2.15           N10-C9-C8-C14=182.20          C17-C9-C8-C7=179.07           C17-C9-C8-C14=359.11          
C9-N10-C4-C3=  4.04           C9-N10-C4-C5=186.30           C4-N10-C9-C8=348.62           C4-N10-C9-C17=171.75          
           -------------------------------------------------
          |                Final Singlepoint                |
           -------------------------------------------------
repulsion energy          1.2616186953827E+00 Eh
dispersion energy         9.8717298520567E-04 Eh
interaction energy        0.0000000000000E+00 Eh
number of electrons       1.9300000000000E+02 e
integral cutoff           1.8403572253217E+01 bohr

------------------------------------------------------------
  cycle        total energy    energy error   density error
------------------------------------------------------------
      1     -110.2126717273  -1.1147528E+02   4.1307221E-05
      2     -110.2126716173   1.0996821E-07   4.7259780E-05
      3     -110.2126720396  -4.2225518E-07   2.5891265E-06
------------------------------------------------------------

electronic energy        -1.1147527790796E+02 Eh
total energy             -1.1021267203960E+02 Eh

 total:                                   0.105 sec
 - repulsion                              0.000 sec (  0%)
 - dispersion                             0.003 sec (  2%)
 - coulomb                                0.001 sec (  1%)
 - hamiltonian                            0.006 sec (  5%)
 - scc                                    0.095 sec ( 89%)

           -------------------------------------------------
          |                Property Printout                |
           -------------------------------------------------
           -------------------------------------------------
          |                Geometry Summary                 |
           -------------------------------------------------

      molecular mass/u    :      561.6274254
   center of mass at/Å    :       -0.9906629       0.3149273       0.5458291
  moments of inertia/u·Å² :        0.6449638E+04   0.6618981E+04   0.1205184E+05
rotational constants/cm⁻¹ :        0.2613733E-02   0.2546862E-02   0.1398760E-02

 * 56 selected distances

     #   Z          #   Z                                           value/Å
     1   6 C        2   6 C                                       1.3807281
     2   6 C        3   6 C                                       1.4203861
     3   6 C        4   6 C                                       1.4320198
     4   6 C        5   6 C                                       1.4158401
     1   6 C        6   6 C                                       1.3988054
     5   6 C        6   6 C                                       1.3611871
     3   6 C        7   6 C                                       1.4277885
     7   6 C        8   6 C                                       1.4039118
     8   6 C        9   6 C                                       1.4268618
     4   6 C       10   7 N                                       1.3333290
     9   6 C       10   7 N                                       1.3303324
     7   6 C       11   6 C                                       1.4282592
    11   6 C       12   6 C                                       1.4322588
    12   6 C       13   7 N                                       1.3346063
     8   6 C       14   6 C                                       1.4270531
    13   7 N       14   6 C                                       1.3292232
    14   6 C       15   6 C                                       1.4128840
    15   6 C       16   6 C                                       1.3784879
     9   6 C       17   6 C                                       1.4126950
    16   6 C       17   6 C                                       1.3811224
    11   6 C       18   6 C                                       1.4192646
    18   6 C       19   6 C                                       1.3812150
    19   6 C       20   6 C                                       1.3951470
    12   6 C       21   6 C                                       1.4153515
    20   6 C       21   6 C                                       1.3638660
    18   6 C       22   8 O                                       1.3548680
     2   6 C       23   8 O                                       1.3560700
     5   6 C       26   1 H                                       1.0780205
     1   6 C       27   1 H                                       1.0780710
    17   6 C       28   1 H                                       1.0781023
    15   6 C       29   1 H                                       1.0791286
    21   6 C       30   1 H                                       1.0772395 (min)
    19   6 C       31   1 H                                       1.0789211
    24  16 S       32   8 O                                       1.4466675
    33   8 O       34   6 C                                       1.4040683
    35  16 S       36   8 O                                       1.4481961
    37   8 O       38   6 C                                       1.4040793
    25  16 S       39   8 O                                       1.4518133 (max)
    40   8 O       41   6 C                                       1.4029987
    22   8 O       42   6 C                                       1.4082833
    23   8 O       43   6 C                                       1.4071716
    41   6 C       44   1 H                                       1.0890586
    41   6 C       45   1 H                                       1.0952997
    41   6 C       46   1 H                                       1.0955011
    38   6 C       47   1 H                                       1.0890572
    38   6 C       48   1 H                                       1.0947030
    38   6 C       49   1 H                                       1.0951785
    43   6 C       50   1 H                                       1.0892788
    43   6 C       51   1 H                                       1.0945946
    43   6 C       52   1 H                                       1.0943433
    42   6 C       53   1 H                                       1.0891965
    42   6 C       54   1 H                                       1.0941404
    42   6 C       55   1 H                                       1.0942371
    34   6 C       56   1 H                                       1.0891374
    34   6 C       57   1 H                                       1.0949316
    34   6 C       58   1 H                                       1.0949328

 * 5 distinct bonds (by element types)

   Z      Z             #   av. dist./Å        max./Å        min./Å
   1 H    6 C          21     1.0887178     1.0955011     1.0772395
   6 C    6 C          21     1.4054825     1.4322588     1.3611871
   6 C    7 N           4     1.3318727     1.3346063     1.3292232
   6 C    8 O           7     1.3910770     1.4082833     1.3548680
   8 O   16 S           3     1.4488923     1.4518133     1.4466675


optimized geometry written to: xtbopt.mol


           -------------------------------------------------
          | TOTAL ENERGY             -110.212672039597 Eh   |
          | GRADIENT NORM               0.000282460288 Eh/α |
           -------------------------------------------------

------------------------------------------------------------------------
Note: The following floating-point exceptions are signalling: IEEE_UNDERFLOW_FLAG
normal termination of xtb
 * finished run on 2025/02/28 at 12:54:04.652     
------------------------------------------------------------------------
 total:
 * wall-time:     0 d,  0 h,  0 min, 10.225 sec
 *  cpu-time:     0 d,  0 h,  0 min, 28.466 sec
 * ratio c/w:     2.784 speedup
 SCF:
 * wall-time:     0 d,  0 h,  0 min,  0.459 sec
 *  cpu-time:     0 d,  0 h,  0 min,  1.126 sec
 * ratio c/w:     2.451 speedup
 ANC optimizer:
 * wall-time:     0 d,  0 h,  0 min,  9.755 sec
 *  cpu-time:     0 d,  0 h,  0 min, 27.335 sec
 * ratio c/w:     2.802 speedup

      -----------------------------------------------------------      
     |                   =====================                   |     
     |                           x T B                           |     
     |                   =====================                   |     
     |                         S. Grimme                         |     
     |          Mulliken Center for Theoretical Chemistry        |     
     |                    University of Bonn                     |     
      -----------------------------------------------------------      

   * xtb version 6.7.1 (edcfbbe) compiled by 'runner@Mac-1732539442253.local' on 2024-11-25

   xtb is free software: you can redistribute it and/or modify it under
   the terms of the GNU Lesser General Public License as published by
   the Free Software Foundation, either version 3 of the License, or
   (at your option) any later version.
   
   xtb is distributed in the hope that it will be useful,
   but WITHOUT ANY WARRANTY; without even the implied warranty of
   MERCHANTABILITY or FITNESS FOR A PARTICULAR PURPOSE.  See the
   GNU Lesser General Public License for more details.
   
   Cite this work as:
   * C. Bannwarth, E. Caldeweyher, S. Ehlert, A. Hansen, P. Pracht,
     J. Seibert, S. Spicher, S. Grimme, WIREs Comput. Mol. Sci., 2020, 11,
     e01493. DOI: 10.1002/wcms.1493
   
   for GFN2-xTB:
   * C. Bannwarth, S. Ehlert and S. Grimme., J. Chem. Theory Comput., 2019,
     15, 1652-1671. DOI: 10.1021/acs.jctc.8b01176
   for GFN1-xTB:
   * S. Grimme, C. Bannwarth, P. Shushkov, J. Chem. Theory Comput., 2017,
     13, 1989-2009. DOI: 10.1021/acs.jctc.7b00118
   for GFN0-xTB:
   * P. Pracht, E. Caldeweyher, S. Ehlert, S. Grimme, ChemRxiv, 2019, preprint.
     DOI: 10.26434/chemrxiv.8326202.v1
   for GFN-FF:
   * S. Spicher and S. Grimme, Angew. Chem. Int. Ed., 2020, 59, 15665-15673.
     DOI: 10.1002/anie.202004239
   
   for ALPB and GBSA implicit solvation:
   * S. Ehlert, M. Stahn, S. Spicher, S. Grimme, J. Chem. Theory Comput.,
     2021, 17, 4250-4261. DOI: 10.1021/acs.jctc.1c00471
   
   for ddCOSMO and CPCM-X implicit solvation:
   * M. Stahn, S. Ehlert, S. Grimme, J. Phys. Chem. A,
     2023, XX, XXXX-XXXX. DOI: 10.1021/acs.jpca.3c04382
   
   for DFT-D4:
   * E. Caldeweyher, C. Bannwarth and S. Grimme, J. Chem. Phys., 2017,
     147, 034112. DOI: 10.1063/1.4993215
   * E. Caldeweyher, S. Ehlert, A. Hansen, H. Neugebauer, S. Spicher,
     C. Bannwarth and S. Grimme, J. Chem. Phys., 2019, 150, 154122.
     DOI: 10.1063/1.5090222
   * E. Caldeweyher, J.-M. Mewes, S. Ehlert and S. Grimme, Phys. Chem. Chem. Phys.
     2020, 22, 8499-8512. DOI: 10.1039/D0CP00502A
   
   for sTDA-xTB:
   * S. Grimme and C. Bannwarth, J. Chem. Phys., 2016, 145, 054103.
     DOI: 10.1063/1.4959605
   
   in the mass-spec context:
   * V. Asgeirsson, C. Bauer and S. Grimme, Chem. Sci., 2017, 8, 4879.
     DOI: 10.1039/c7sc00601b
   * J. Koopman and S. Grimme, ACS Omega 2019, 4, 12, 15120-15133.
     DOI: 10.1021/acsomega.9b02011
   
   for metadynamics refer to:
   * S. Grimme, J. Chem. Theory Comput., 2019, 155, 2847-2862
     DOI: 10.1021/acs.jctc.9b00143
   
   for SPH calculations refer to:
   * S. Spicher and S. Grimme, J. Chem. Theory Comput., 2021, 17, 1701-1714
     DOI: 10.1021/acs.jctc.0c01306
   
   for ONIOM refer to:
   * C. Plett, A. Katbashev, S. Ehlert, S. Grimme, M. Bursch,
     Phys. Chem. Chem. Phys., 2023, 25, 17860-17868. DOI: 10.1039/D3CP02178E
   
   for DIPRO refer to:
   * J. Kohn, N. Gildemeister, S. Grimme, D. Fazzi, A. Hansen,
     J. Chem. Phys., 2023, just accepted.
   
   for PTB refer to:
   * S. Grimme, M. Mueller, A. Hansen, J. Chem. Phys., 2023, 158, 124111.
     DOI: 10.1063/5.0137838
   
   with help from (in alphabetical order)
   P. Atkinson, C. Bannwarth, F. Bohle, G. Brandenburg, E. Caldeweyher
   M. Checinski, S. Dohm, S. Ehlert, S. Ehrlich, I. Gerasimov, C. Hölzer
   A. Katbashev, J. Kohn, J. Koopman, C. Lavigne, S. Lehtola, F. März, M. Müller,
   F. Musil, H. Neugebauer, J. Pisarek, C. Plett, P. Pracht, F. Pultar,
   J. Seibert, P. Shushkov, S. Spicher, M. Stahn, M. Steiner, T. Strunk,
   J. Stückrath, T. Rose, and J. Unsleber
   
 * started run on 2025/02/28 at 12:54:04.688     
   ID    Z sym.   atoms
    1    6 C      1-9, 11, 12, 14-21, 34, 38, 41-43
    2    7 N      10, 13
    3    8 O      22, 23, 32, 33, 36, 37, 39, 40
    4   16 S      24, 25, 35
    5    1 H      26-31, 44-58

           -------------------------------------------------
          |                Calculation Setup                |
           -------------------------------------------------

          program call               : xtb Base3SO2Me.mol --opt tight --cycles 500 --chrg -1 --uhf 0 --spinpol --tblite
          coordinate file            : Base3SO2Me.mol
          omp threads                :                     8

Wavefunction read from restart file
repulsion energy          1.1532234384035E+00 Eh
dispersion energy         7.2386336977476E-04 Eh
interaction energy        0.0000000000000E+00 Eh
number of electrons       1.9400000000000E+02 e
integral cutoff           1.8403572253217E+01 bohr

------------------------------------------------------------
  cycle        total energy    energy error   density error
------------------------------------------------------------
      1     -110.3914232219  -1.1154537E+02   3.4093709E-02
      2     -110.4139094806  -2.2486259E-02   2.0353961E-02
      3     -110.4121212599   1.7882207E-03   1.3764225E-02
      4     -110.4211431633  -9.0219034E-03   5.6858378E-03
      5     -110.4224959720  -1.3528087E-03   2.8000738E-03
      6     -110.4229739524  -4.7798042E-04   1.4676029E-03
      7     -110.4230614594  -8.7506938E-05   8.3410483E-04
      8     -110.4230801419  -1.8682522E-05   5.4605115E-04
      9     -110.4230918470  -1.1705083E-05   2.9564472E-04
     10     -110.4230977326  -5.8856466E-06   1.5150504E-04
     11     -110.4230993372  -1.6046098E-06   7.4855504E-05
     12     -110.4230995468  -2.0954721E-07   3.7024572E-05
     13     -110.4230996009  -5.4098138E-08   1.6120709E-05
------------------------------------------------------------

electronic energy        -1.1157704690266E+02 Eh
total energy             -1.1042309960088E+02 Eh

 total:                                   0.691 sec
 - repulsion                              0.000 sec (  0%)
 - dispersion                             0.003 sec (  0%)
 - coulomb                                0.001 sec (  0%)
 - hamiltonian                            0.008 sec (  1%)
 - scc                                    0.679 sec ( 98%)

      ----------------------------------------------------------- 
     |                   =====================                   |
     |                        A N C O P T                        |
     |                   =====================                   |
     |               Approximate Normal Coordinate               |
     |                Rational Function Optimizer                |
      ----------------------------------------------------------- 
      ----------------------------------------------------------- 
     |                   =====================                   |
     |                        A N C O P T                        |
     |                   =====================                   |
     |               Approximate Normal Coordinate               |
     |                Rational Function Optimizer                |
      ----------------------------------------------------------- 

[...]
    24  16 S       32   8 O                                       1.4455060
    33   8 O       34   6 C                                       1.4035460
    35  16 S       36   8 O                                       1.4555812
    37   8 O       38   6 C                                       1.4028175
    25  16 S       39   8 O                                       1.4512038
    40   8 O       41   6 C                                       1.3993727
    22   8 O       42   6 C                                       1.4086714
    23   8 O       43   6 C                                       1.4072955
    41   6 C       44   1 H                                       1.0901183
    41   6 C       45   1 H                                       1.0958098
    41   6 C       46   1 H                                       1.0954387
    38   6 C       47   1 H                                       1.0891338
    38   6 C       48   1 H                                       1.0949833
    38   6 C       49   1 H                                       1.0948038
    43   6 C       50   1 H                                       1.0889577
    43   6 C       51   1 H                                       1.0946873
    43   6 C       52   1 H                                       1.0941731
    42   6 C       53   1 H                                       1.0898070
    42   6 C       54   1 H                                       1.0941547
    42   6 C       55   1 H                                       1.0936903
    34   6 C       56   1 H                                       1.0892977
    34   6 C       57   1 H                                       1.0950792
    34   6 C       58   1 H                                       1.0951637
    59   6 C       60   6 C                                       1.3804258
    60   6 C       61   6 C                                       1.4233526
    61   6 C       62   6 C                                       1.4323712
    62   6 C       63   6 C                                       1.4150325
    59   6 C       64   6 C                                       1.3932857
    63   6 C       64   6 C                                       1.3633000
    61   6 C       65   6 C                                       1.4291778
    65   6 C       66   6 C                                       1.4041346
    66   6 C       67   6 C                                       1.4242274
    62   6 C       68   7 N                                       1.3404739
    67   6 C       68   7 N                                       1.3308939
    65   6 C       69   6 C                                       1.4277542
    69   6 C       70   6 C                                       1.4305320
    70   6 C       71   7 N                                       1.3313830
    66   6 C       72   6 C                                       1.4279861
    71   7 N       72   6 C                                       1.3302970
    72   6 C       73   6 C                                       1.4111305
    73   6 C       74   6 C                                       1.3808451
    67   6 C       75   6 C                                       1.4161815
    74   6 C       75   6 C                                       1.3799829
    69   6 C       76   6 C                                       1.4184605
    76   6 C       77   6 C                                       1.3798574
    77   6 C       78   6 C                                       1.4034603
    70   6 C       79   6 C                                       1.4180330
    78   6 C       79   6 C                                       1.3613281
    76   6 C       80   8 O                                       1.3532849
    60   6 C       81   8 O                                       1.3561579
    63   6 C       84   1 H                                       1.0780146
    59   6 C       85   1 H                                       1.0781780
Note: The following floating-point exceptions are signalling: IEEE_UNDERFLOW_FLAG
normal termination of xtb
    75   6 C       86   1 H                                       1.0770815
    73   6 C       87   1 H                                       1.0792159
    79   6 C       88   1 H                                       1.0761433 (min)
    77   6 C       89   1 H                                       1.0787959
    82  16 S       90   8 O                                       1.4459803
    91   8 O       92   6 C                                       1.4008535
    93  16 S       94   8 O                                       1.4509565
    95   8 O       96   6 C                                       1.4097876
    83  16 S       97   8 O                                       1.4667188 (max)
    98   8 O       99   6 C                                       1.4140680
    80   8 O      100   6 C                                       1.4075021
    81   8 O      101   6 C                                       1.4074910
    99   6 C      102   1 H                                       1.0932487
    99   6 C      103   1 H                                       1.0889700
    99   6 C      104   1 H                                       1.0922512
    96   6 C      105   1 H                                       1.0893025
    96   6 C      106   1 H                                       1.0912917
    96   6 C      107   1 H                                       1.0945260
   101   6 C      108   1 H                                       1.0897461
   101   6 C      109   1 H                                       1.0935843
   101   6 C      110   1 H                                       1.0948323
   100   6 C      111   1 H                                       1.0889302
   100   6 C      112   1 H                                       1.0946682
   100   6 C      113   1 H                                       1.0941476
    92   6 C      114   1 H                                       1.0899218
    92   6 C      115   1 H                                       1.0947857
    92   6 C      116   1 H                                       1.0956590

 * 5 distinct bonds (by element types)

   Z      Z             #   av. dist./Å        max./Å        min./Å
   1 H    6 C          42     1.0884871     1.0958098     1.0761433
   6 C    6 C          42     1.4055728     1.4355798     1.3613281
   6 C    7 N           8     1.3328873     1.3404739     1.3251238
   6 C    8 O          14     1.3917597     1.4140680     1.3529103
   8 O   16 S           6     1.4526578     1.4667188     1.4455060


optimized geometry written to: xtbopt.mol


           -------------------------------------------------
          | TOTAL ENERGY             -220.477229222983 Eh   |
          | GRADIENT NORM               0.000200409547 Eh/α |
           -------------------------------------------------

------------------------------------------------------------------------
 * finished run on 2025/02/28 at 12:59:08.982     
------------------------------------------------------------------------
 total:
 * wall-time:     0 d,  0 h,  4 min, 27.133 sec
 *  cpu-time:     0 d,  0 h, 16 min, 36.392 sec
 * ratio c/w:     3.730 speedup
 SCF:
 * wall-time:     0 d,  0 h,  0 min,  2.526 sec
 *  cpu-time:     0 d,  0 h,  0 min,  9.449 sec
 * ratio c/w:     3.741 speedup
 ANC optimizer:
 * wall-time:     0 d,  0 h,  4 min, 24.591 sec
 *  cpu-time:     0 d,  0 h, 16 min, 26.938 sec
 * ratio c/w:     3.730 speedup

      -----------------------------------------------------------      
     |                   =====================                   |     
     |                           x T B                           |     
     |                   =====================                   |     
     |                         S. Grimme                         |     
     |          Mulliken Center for Theoretical Chemistry        |     
     |                    University of Bonn                     |     
      -----------------------------------------------------------      

   * xtb version 6.7.1 (edcfbbe) compiled by 'runner@Mac-1732539442253.local' on 2024-11-25

   xtb is free software: you can redistribute it and/or modify it under
   the terms of the GNU Lesser General Public License as published by
   the Free Software Foundation, either version 3 of the License, or
   (at your option) any later version.
   
   xtb is distributed in the hope that it will be useful,
   but WITHOUT ANY WARRANTY; without even the implied warranty of
   MERCHANTABILITY or FITNESS FOR A PARTICULAR PURPOSE.  See the
   GNU Lesser General Public License for more details.
   
   Cite this work as:
   * C. Bannwarth, E. Caldeweyher, S. Ehlert, A. Hansen, P. Pracht,
     J. Seibert, S. Spicher, S. Grimme, WIREs Comput. Mol. Sci., 2020, 11,
     e01493. DOI: 10.1002/wcms.1493
   
   for GFN2-xTB:
   * C. Bannwarth, S. Ehlert and S. Grimme., J. Chem. Theory Comput., 2019,
     15, 1652-1671. DOI: 10.1021/acs.jctc.8b01176
   for GFN1-xTB:
   * S. Grimme, C. Bannwarth, P. Shushkov, J. Chem. Theory Comput., 2017,
     13, 1989-2009. DOI: 10.1021/acs.jctc.7b00118
   for GFN0-xTB:
   * P. Pracht, E. Caldeweyher, S. Ehlert, S. Grimme, ChemRxiv, 2019, preprint.
     DOI: 10.26434/chemrxiv.8326202.v1
   for GFN-FF:
   * S. Spicher and S. Grimme, Angew. Chem. Int. Ed., 2020, 59, 15665-15673.
     DOI: 10.1002/anie.202004239
   
   for ALPB and GBSA implicit solvation:
   * S. Ehlert, M. Stahn, S. Spicher, S. Grimme, J. Chem. Theory Comput.,
     2021, 17, 4250-4261. DOI: 10.1021/acs.jctc.1c00471
   
   for ddCOSMO and CPCM-X implicit solvation:
   * M. Stahn, S. Ehlert, S. Grimme, J. Phys. Chem. A,
     2023, XX, XXXX-XXXX. DOI: 10.1021/acs.jpca.3c04382
   
   for DFT-D4:
   * E. Caldeweyher, C. Bannwarth and S. Grimme, J. Chem. Phys., 2017,
     147, 034112. DOI: 10.1063/1.4993215
   * E. Caldeweyher, S. Ehlert, A. Hansen, H. Neugebauer, S. Spicher,
     C. Bannwarth and S. Grimme, J. Chem. Phys., 2019, 150, 154122.
     DOI: 10.1063/1.5090222
   * E. Caldeweyher, J.-M. Mewes, S. Ehlert and S. Grimme, Phys. Chem. Chem. Phys.
     2020, 22, 8499-8512. DOI: 10.1039/D0CP00502A
   
   for sTDA-xTB:
   * S. Grimme and C. Bannwarth, J. Chem. Phys., 2016, 145, 054103.
     DOI: 10.1063/1.4959605
   
   in the mass-spec context:
   * V. Asgeirsson, C. Bauer and S. Grimme, Chem. Sci., 2017, 8, 4879.
     DOI: 10.1039/c7sc00601b
   * J. Koopman and S. Grimme, ACS Omega 2019, 4, 12, 15120-15133.
     DOI: 10.1021/acsomega.9b02011
   
   for metadynamics refer to:
   * S. Grimme, J. Chem. Theory Comput., 2019, 155, 2847-2862
     DOI: 10.1021/acs.jctc.9b00143
   
   for SPH calculations refer to:
   * S. Spicher and S. Grimme, J. Chem. Theory Comput., 2021, 17, 1701-1714
     DOI: 10.1021/acs.jctc.0c01306
   
   for ONIOM refer to:
   * C. Plett, A. Katbashev, S. Ehlert, S. Grimme, M. Bursch,
     Phys. Chem. Chem. Phys., 2023, 25, 17860-17868. DOI: 10.1039/D3CP02178E
   
   for DIPRO refer to:
   * J. Kohn, N. Gildemeister, S. Grimme, D. Fazzi, A. Hansen,
     J. Chem. Phys., 2023, just accepted.
   
   for PTB refer to:
   * S. Grimme, M. Mueller, A. Hansen, J. Chem. Phys., 2023, 158, 124111.
     DOI: 10.1063/5.0137838
   
   with help from (in alphabetical order)
   P. Atkinson, C. Bannwarth, F. Bohle, G. Brandenburg, E. Caldeweyher
   M. Checinski, S. Dohm, S. Ehlert, S. Ehrlich, I. Gerasimov, C. Hölzer
   A. Katbashev, J. Kohn, J. Koopman, C. Lavigne, S. Lehtola, F. März, M. Müller,
   F. Musil, H. Neugebauer, J. Pisarek, C. Plett, P. Pracht, F. Pultar,
   J. Seibert, P. Shushkov, S. Spicher, M. Stahn, M. Steiner, T. Strunk,
   J. Stückrath, T. Rose, and J. Unsleber
   
 * started run on 2025/02/28 at 12:59:09.026     
   ID    Z sym.   atoms
    1    6 C      1-9, 11, 12, 14-21, 34, 38, 41-43, 59-67, 69, 70, 72-79,
                  92, 96, 99-101
    2    7 N      10, 13, 68, 71
    3    8 O      22, 23, 32, 33, 36, 37, 39, 40, 80, 81, 90, 91, 94, 95, 97,
                  98
    4   16 S      24, 25, 35, 82, 83, 93
    5    1 H      26-31, 44-58, 84-89, 102-116

           -------------------------------------------------
          |                Calculation Setup                |
           -------------------------------------------------

          program call               : xtb opt_dimer.mol --dipro 0.3 --chrg 0 --uhf 2 --spinpol --tblite
          coordinate file            : opt_dimer.mol
          omp threads                :                     8


molecular fragmentation (1/2 indicates fragments):
111111111111111111111111111111111111111111111111111111111122222222222222
22222222222222222222222222222222222222222222
# atoms in fragment 1/2:    58    58
 fragment masses (1/2) :      561.63      561.63
CMA distance (Bohr)    :   8.566
constraining FC (au)   :  0.0500
Wavefunction read from restart file
           -------------------------------------------------
          |                    D I P R O                    |
           -------------------------------------------------
Calculation for dimer 
--------------------- 
  
charge of dimer :   0.
unpaired e- of dimer :  2
repulsion energy          2.5208246525527E+00 Eh
dispersion energy         1.3597229749254E-02 Eh
number of electrons       3.8600000000000E+02 e
integral cutoff           1.8403572253217E+01 bohr

------------------------------------------------------------
  cycle        total energy    energy error   density error
------------------------------------------------------------
      1     -219.5815929664  -2.2211601E+02   2.2206799E-01
      2     -220.3290406266  -7.4744766E-01   1.0744899E-01
      3     -220.2442643201   8.4776306E-02   5.4223443E-02
      4     -220.1350214694   1.0924285E-01   3.7614835E-02
      5     -220.1906297332  -5.5608264E-02   3.1312948E-02
      6     -220.4450129029  -2.5438317E-01   1.5105903E-02
      7     -220.4701038972  -2.5090994E-02   8.2193683E-03
      8     -220.4716144558  -1.5105586E-03   5.2626504E-03
      9     -220.4726734183  -1.0589625E-03   3.3340951E-03
     10     -220.4732193633  -5.4594506E-04   1.3430040E-03
     11     -220.4734068236  -1.8746032E-04   5.8310350E-04
     12     -220.4734204699  -1.3646278E-05   3.6118199E-04
     13     -220.4734363225  -1.5852603E-05   1.5359078E-04
     14     -220.4734386384  -2.3158342E-06   9.3669861E-05
     15     -220.4734396397  -1.0013109E-06   5.0058938E-05
     16     -220.4734397780  -1.3837155E-07   2.2628612E-05
     17     -220.4734398054  -2.7385767E-08   1.0156109E-05
------------------------------------------------------------

electronic energy        -2.2300786168773E+02 Eh
total energy             -2.2047343980542E+02 Eh

 total:                                   1.229 sec
 - repulsion                              0.000 sec (  0%)
 - dispersion                             0.004 sec (  0%)
 - coulomb                                0.001 sec (  0%)
 - hamiltonian                            0.006 sec (  0%)
 - scc                                    1.217 sec ( 99%)

Found 2 fragments!
Fragment 1:  1-58
Fragment 2:  59-116

[Info] Fragment spin read from .UHFfrag
Calculation for fragment 1
 ------------------------------
   
charge of fragment :   0.
unpaired e- of fragment :  1
------------------------------------------------------------
  cycle        total energy    energy error   density error
------------------------------------------------------------
      1     -109.7422300649  -1.1100479E+02   2.2038987E-01
      2     -110.1379179438  -3.9568788E-01   1.0377872E-01
      3     -110.1283786007   9.5393431E-03   5.1015763E-02
      4     -110.1797111501  -5.1332549E-02   2.6104694E-02
      5     -110.2022252085  -2.2514058E-02   1.0181979E-02
      6     -110.2048836420  -2.6584335E-03   4.9786275E-03
      7     -110.2055414020  -6.5776003E-04   2.7085927E-03
      8     -110.2058689917  -3.2758967E-04   1.1642071E-03
      9     -110.2058592656   9.7260285E-06   7.4893064E-04
     10     -110.2058881307  -2.8865095E-05   2.8452546E-04
     11     -110.2058932642  -5.1334434E-06   1.3642676E-04
     12     -110.2058936506  -3.8642800E-07   7.1307194E-05
     13     -110.2058936865  -3.5866634E-08   2.9146437E-05
     14     -110.2058936963  -9.8098667E-09   1.6195846E-05
------------------------------------------------------------

 total:                                   0.435 sec
Calculation for fragment 2
 ------------------------------
   
charge of fragment :   0.
unpaired e- of fragment :  1
------------------------------------------------------------
  cycle        total energy    energy error   density error
------------------------------------------------------------
      1     -109.7241055531  -1.1098349E+02   2.2461777E-01
      2     -110.1222772351  -3.9817168E-01   1.0881190E-01
      3     -110.1128670229   9.4102121E-03   5.3698715E-02
      4     -110.1594037755  -4.6536753E-02   2.8699064E-02
      5     -110.1900078903  -3.0604115E-02   1.0275760E-02
      6     -110.1922525318  -2.2446416E-03   5.5230892E-03
      7     -110.1930379604  -7.8542857E-04   2.8077855E-03
      8     -110.1934257129  -3.8775251E-04   1.1296694E-03
      9     -110.1934186211   7.0918305E-06   6.8595620E-04
     10     -110.1934374498  -1.8828713E-05   2.7238905E-04
     11     -110.1934414708  -4.0210448E-06   1.4219934E-04
     12     -110.1934420208  -5.4999771E-07   7.3261327E-05
     13     -110.1934420534  -3.2536704E-08   3.1999856E-05
     14     -110.1934420653  -1.1934247E-08   1.8131482E-05
------------------------------------------------------------

 total:                                   0.290 sec
   
   ::::::::::::::::::::::::::::::::::::::::::::::
   ::     D I P R O      C O U P L I N G S     ::
   ::::::::::::::::::::::::::::::::::::::::::::::
   
energy threshhold for near-degenerate orbitals near HOMO and LUMO considered for DIPRO:  0.300 eV
no. of orbitals within energy window of frag 1         2
no. of orbitals within energy window of frag 2         2
   
  Fragment 1 SOMO   Fragment 2 SOMO 
--------------------------------------
E_mon(orb) frag1 frag2             -10.247   -10.211 eV
J(AB):               -0.013 eV
S(AB):             0.00076865 Eh
|J(AB,eff)|:            0.005 eV
   
  Fragment 1 SOMO   Fragment 2 LUMO 
--------------------------------------
E_mon(orb) frag1 frag2             -10.247    -9.819 eV
J(AB):                0.022 eV
S(AB):            -0.00098865 Eh
|J(AB,eff)|:            0.013 eV
   
  Fragment 1 LUMO   Fragment 2 SOMO 
--------------------------------------
E_mon(orb) frag1 frag2              -9.855   -10.211 eV
J(AB):                0.016 eV
S(AB):            -0.00066633 Eh
|J(AB,eff)|:            0.009 eV
   
  Fragment 1 LUMO   Fragment 2 LUMO 
--------------------------------------
E_mon(orb) frag1 frag2              -9.855    -9.819 eV
J(AB):                0.141 eV
S(AB):            -0.00599658 Eh
|J(AB,eff)|:            0.082 eV
   
..............................................................................
:  total |J(AB,eff)| for hole transport (occ. MOs) :               0.005 eV  :
:  total |J(AB,eff)| for charge transport (unocc. MOs) :           0.082 eV  :
:  total |J(AB,eff)| for charge transfer (CT) :                    0.015 eV  :
..............................................................................
  
 Please remember, DIPRO is not available for restart!
   
normal termination of dipro
----------------------------------------------------------
 * finished run on 2025/02/28 at 12:59:10.996     
----------------------------------------------------------
 dipro:
 * wall-time:     0 d,  0 h,  0 min,  1.964 sec
 *  cpu-time:     0 d,  0 h,  0 min,  6.484 sec
 * ratio c/w:     3.301 speedup
Reorganization energy (electron): 0.22153763283429137 eV
Reorganization energy (hole): 0.3136567036280763 eV
Electron Transfer integral J: 0.082 eV
Hole Transfer integral J: 0.005 eV
