Optimization of monomers started
Stacking dimer
Calculating transfer integral
Reorganization energy (electron): 0.2143687773676456 eV
Reorganization energy (hole): 0.3130152202605198 eV
Electron Transfer integral J: 0.037 eV
Hole Transfer integral J: 0.007 eV
==                   |     
     |                         S. Grimme                         |     
     |          Mulliken Center for Theoretical Chemistry        |     
     |                    University of Bonn                     |     
      -----------------------------------------------------------      

   * xtb version 6.7.1 (edcfbbe) compiled by 'runner@Mac-1732539442253.local' on 2024-11-25

   xtb is free software: you can redistribute it and/or modify it under
   the terms of the GNU Lesser General Public License as published by
   the Free Software Foundation, either version 3 of the License, or
   (at your option) any later version.
   
   xtb is distributed in the hope that it will be useful,
   but WITHOUT ANY WARRANTY; without even the implied warranty of
   MERCHANTABILITY or FITNESS FOR A PARTICULAR PURPOSE.  See the
   GNU Lesser General Public License for more details.
   
   Cite this work as:
   * C. Bannwarth, E. Caldeweyher, S. Ehlert, A. Hansen, P. Pracht,
     J. Seibert, S. Spicher, S. Grimme, WIREs Comput. Mol. Sci., 2020, 11,
     e01493. DOI: 10.1002/wcms.1493
   
   for GFN2-xTB:
   * C. Bannwarth, S. Ehlert and S. Grimme., J. Chem. Theory Comput., 2019,
     15, 1652-1671. DOI: 10.1021/acs.jctc.8b01176
   for GFN1-xTB:
   * S. Grimme, C. Bannwarth, P. Shushkov, J. Chem. Theory Comput., 2017,
     13, 1989-2009. DOI: 10.1021/acs.jctc.7b00118
   for GFN0-xTB:
   * P. Pracht, E. Caldeweyher, S. Ehlert, S. Grimme, ChemRxiv, 2019, preprint.
     DOI: 10.26434/chemrxiv.8326202.v1
   for GFN-FF:
   * S. Spicher and S. Grimme, Angew. Chem. Int. Ed., 2020, 59, 15665-15673.
     DOI: 10.1002/anie.202004239
   
   for ALPB and GBSA implicit solvation:
   * S. Ehlert, M. Stahn, S. Spicher, S. Grimme, J. Chem. Theory Comput.,
     2021, 17, 4250-4261. DOI: 10.1021/acs.jctc.1c00471
   
   for ddCOSMO and CPCM-X implicit solvation:
   * M. Stahn, S. Ehlert, S. Grimme, J. Phys. Chem. A,
     2023, XX, XXXX-XXXX. DOI: 10.1021/acs.jpca.3c04382
   
   for DFT-D4:
   * E. Caldeweyher, C. Bannwarth and S. Grimme, J. Chem. Phys., 2017,
     147, 034112. DOI: 10.1063/1.4993215
   * E. Caldeweyher, S. Ehlert, A. Hansen, H. Neugebauer, S. Spicher,
     C. Bannwarth and S. Grimme, J. Chem. Phys., 2019, 150, 154122.
     DOI: 10.1063/1.5090222
   * E. Caldeweyher, J.-M. Mewes, S. Ehlert and S. Grimme, Phys. Chem. Chem. Phys.
     2020, 22, 8499-8512. DOI: 10.1039/D0CP00502A
   
   for sTDA-xTB:
   * S. Grimme and C. Bannwarth, J. Chem. Phys., 2016, 145, 054103.
     DOI: 10.1063/1.4959605
   
   in the mass-spec context:
   * V. Asgeirsson, C. Bauer and S. Grimme, Chem. Sci., 2017, 8, 4879.
     DOI: 10.1039/c7sc00601b
   * J. Koopman and S. Grimme, ACS Omega 2019, 4, 12, 15120-15133.
     DOI: 10.1021/acsomega.9b02011
   
   for metadynamics refer to:
   * S. Grimme, J. Chem. Theory Comput., 2019, 155, 2847-2862
     DOI: 10.1021/acs.jctc.9b00143
   
   for SPH calculations refer to:
   * S. Spicher and S. Grimme, J. Chem. Theory Comput., 2021, 17, 1701-1714
     DOI: 10.1021/acs.jctc.0c01306
   
   for ONIOM refer to:
   * C. Plett, A. Katbashev, S. Ehlert, S. Grimme, M. Bursch,
     Phys. Chem. Chem. Phys., 2023, 25, 17860-17868. DOI: 10.1039/D3CP02178E
   
   for DIPRO refer to:
   * J. Kohn, N. Gildemeister, S. Grimme, D. Fazzi, A. Hansen,
     J. Chem. Phys., 2023, just accepted.
   
   for PTB refer to:
   * S. Grimme, M. Mueller, A. Hansen, J. Chem. Phys., 2023, 158, 124111.
     DOI: 10.1063/5.0137838
   
   with help from (in alphabetical order)
   P. Atkinson, C. Bannwarth, F. Bohle, G. Brandenburg, E. Caldeweyher
   M. Checinski, S. Dohm, S. Ehlert, S. Ehrlich, I. Gerasimov, C. Hölzer
   A. Katbashev, J. Kohn, J. Koopman, C. Lavigne, S. Lehtola, F. März, M. Müller,
   F. Musil, H. Neugebauer, J. Pisarek, C. Plett, P. Pracht, F. Pultar,
   J. Seibert, P. Shushkov, S. Spicher, M. Stahn, M. Steiner, T. Strunk,
   J. Stückrath, T. Rose, and J. Unsleber
   
 * started run on 2024/12/02 at 11:40:25.770     
   ID    Z sym.   atoms
    1    6 C      1-9, 11, 12, 14-21, 34, 38, 41-43
    2    7 N      10, 13
    3    8 O      22, 23, 32, 33, 36, 37, 39, 40
    4   16 S      24, 25, 35
    5    1 H      26-31, 44-58

           -------------------------------------------------
          |                Calculation Setup                |
           -------------------------------------------------

          program call               : xtb Base3SO2Me.mol --opt --gfn 2 --chrg 0 --uhf 1 --tight
          coordinate file            : Base3SO2Me.mol
          omp threads                :                     8

########################################################################
[WARNING] Please study the warnings concerning your input carefully
-1- prog_main_parseArguments: Unknown option '--tight' provided
########################################################################

           -------------------------------------------------
          |                 G F N 2 - x T B                 |
           -------------------------------------------------

        Reference                      10.1021/acs.jctc.8b01176
      * Hamiltonian:
        H0-scaling (s, p, d)           1.850000    2.230000    2.230000
        zeta-weighting                 0.500000
      * Dispersion:
        s8                             2.700000
        a1                             0.520000
        a2                             5.000000
        s9                             5.000000
      * Repulsion:
        kExp                           1.500000    1.000000
        rExp                           1.000000
      * Coulomb:
        alpha                          2.000000
        third order                    shell-resolved
        anisotropic                    true
        a3                             3.000000
        a5                             4.000000
        cn-shift                       1.200000
        cn-exp                         4.000000
        max-rad                        5.000000


          ...................................................
          :                      SETUP                      :
          :.................................................:
          :  # basis functions                 187          :
          :  # atomic orbitals                 184          :
          :  # shells                           98          :
          :  # electrons                       193          :
          :  max. iterations                   250          :
          :  Hamiltonian                  GFN2-xTB          :
          :  restarted?                      false          :
          :  GBSA solvation                  false          :
          :  PC potential                    false          :
          :  electronic temp.          300.0000000     K    :
          :  accuracy                    1.0000000          :
          :  -> integral cutoff          0.2500000E+02      :
          :  -> integral neglect         0.1000000E-07      :
          :  -> SCF convergence          0.1000000E-05 Eh   :
          :  -> wf. convergence          0.1000000E-03 e    :
          :  Broyden damping             0.4000000          :
          :  net charge                          0          :
          :  unpaired electrons                  1          :
          ...................................................

 iter      E             dE          RMSdq      gap      omega  full diag
   1   -111.1084371 -0.111108E+03  0.562E+00    1.59       0.0  T
   2   -111.2460781 -0.137641E+00  0.304E+00    1.52       1.0  T
   3   -111.2091822  0.368959E-01  0.140E+00    1.57       1.0  T
   4   -111.2603013 -0.511191E-01  0.634E-01    1.52       1.0  T
   5   -111.2743773 -0.140760E-01  0.272E-01    1.51       1.0  T
   6   -111.2762383 -0.186102E-02  0.136E-01    1.55       1.0  T
   7   -111.2763268 -0.884818E-04  0.963E-02    1.53       1.0  T
   8   -111.2769720 -0.645187E-03  0.444E-02    1.53       1.0  T
   9   -111.2770186 -0.465717E-04  0.212E-02    1.54       1.0  T
  10   -111.2770300 -0.114456E-04  0.837E-03    1.53       1.6  T
  11   -111.2770321 -0.210785E-05  0.396E-03    1.54       3.3  T
  12   -111.2770324 -0.304666E-06  0.201E-03    1.53       6.5  T
  13   -111.2770324 -0.210351E-07  0.868E-04    1.54      15.1  T
  14   -111.2770325 -0.223099E-07  0.351E-04    1.53      37.4  T

   *** convergence criteria satisfied after 14 iterations ***

         #    Occupation            Energy/Eh            Energy/eV
      -------------------------------------------------------------
         1        2.0000           -0.7738817             -21.0584
       ...           ...                  ...                  ...
        91        2.0000           -0.4023401             -10.9482
        92        2.0000           -0.4000815             -10.8868
        93        2.0000           -0.3983838             -10.8406
        94        2.0000           -0.3945773             -10.7370
        95        2.0000           -0.3924306             -10.6786
        96        1.9714           -0.3769554             -10.2575
        97        1.0286           -0.3702603             -10.0753 (HOMO)
        98                         -0.3138516              -8.5403 (LUMO)
        99                         -0.2816920              -7.6652
       100                         -0.2806820              -7.6377
       101                         -0.2565237              -6.9804
       102                         -0.2533706              -6.8946
       ...                                ...                  ...
       184                          0.7138394              19.4246
      -------------------------------------------------------------
                  HL-Gap            0.0564087 Eh            1.5350 eV
             Fermi-level           -0.3578319 Eh           -9.7371 eV

 SCC (total)                   0 d,  0 h,  0 min,  0.255 sec
 SCC setup                      ...        0 min,  0.001 sec (  0.451%)
 Dispersion                     ...        0 min,  0.000 sec (  0.173%)
 classical contributions        ...        0 min,  0.000 sec (  0.087%)
 integral evaluation            ...        0 min,  0.003 sec (  1.153%)
 iterations                     ...        0 min,  0.232 sec ( 91.255%)
 molecular gradient             ...        0 min,  0.013 sec (  5.056%)
 printout                       ...        0 min,  0.005 sec (  1.821%)

         :::::::::::::::::::::::::::::::::::::::::::::::::::::
         ::                     SUMMARY                     ::
         :::::::::::::::::::::::::::::::::::::::::::::::::::::
         :: total energy            -110.123085150051 Eh    ::
         :: gradient norm              0.263794608592 Eh/a0 ::
         :: HOMO-LUMO gap              1.534958710905 eV    ::
         ::.................................................::
         :: SCC energy              -111.276308588455 Eh    ::
         :: -> isotropic ES            0.229597854361 Eh    ::
         :: -> anisotropic ES          0.005231743051 Eh    ::
         :: -> anisotropic XC          0.032878076317 Eh    ::
         :: -> dispersion             -0.082342039582 Eh    ::
         :: repulsion energy           1.153223438403 Eh    ::
         :: add. restraining           0.000000000000 Eh    ::
         :: total charge               0.000000000000 e     ::
         :::::::::::::::::::::::::::::::::::::::::::::::::::::

      ----------------------------------------------------------- 
     |                   =====================                   |
     |                        A N C O P T                        |
     |                   =====================                   |
     |               Approximate Normal Coordinate               |
     |                Rational Function Optimizer                |
      ----------------------------------------------------------- 
      ----------------------------------------------------------- 
     |                   =====================                   |
     |                        A N C O P T                        |
     |                   =====================                   |
     |               Approximate Normal Coordinate               |
     |                Rational Function Optimizer                |
      ----------------------------------------------------------- 

          ...................................................
          :                      SETUP                      :
          :.................................................:
          :   optimization level            normal          :
          :   max. optcycles                   200          :
          :   ANC micro-cycles                  20          :
          :   degrees of freedom               168          :
          :.................................................:
          :   RF solver                   davidson          :
          :   write xtbopt.log                true          :
          :   linear?                        false          :
          :   energy convergence         0.5000000E-05 Eh   :
          :   grad. convergence          0.1000000E-02 Eh/α :
          :   maxmium RF displ.          1.0000000          :
          :   Hlow (freq-cutoff)         0.1000000E-01      :
          :   Hmax (freq-cutoff)         5.0000000          :
          :   S6 in model hess.         20.0000000          :
          ...................................................

generating ANC from exact Hessian ...
Using Lindh-Hessian (1995)
 Shifting diagonal of input Hessian by    9.8479454768016401E-003
 Lowest  eigenvalues of input Hessian
    0.000000    0.000000    0.000000    0.000000    0.000000    0.000000
    0.010000    0.010087    0.010159    0.010214    0.010408    0.010619
    0.010799    0.011324    0.011655    0.012172    0.013096    0.013142
 Highest eigenvalues
    1.998203    2.001135    2.019775    2.051370    2.171033    2.174787


........................................................................
.............................. CYCLE    1 ..............................
........................................................................

 iter      E             dE          RMSdq      gap      omega  full diag
   1   -111.2770325 -0.111277E+03  0.156E-04    1.53       0.0  T
   2   -111.2770325 -0.169535E-10  0.111E-04    1.53     118.1  T
   3   -111.2770325 -0.638266E-09  0.667E-05    1.53     196.8  T
     SCC iter.                  ...        0 min,  0.056 sec
     gradient                   ...        0 min,  0.014 sec
 * total energy  :  -110.1230852 Eh     change       -0.3977590E-08 Eh
   gradient norm :     0.2637953 Eh/α   predicted     0.0000000E+00 (-100.00%)
   displ. norm   :     0.4471940 α      lambda       -0.7227229E-01
   maximum displ.:     0.1662874 α      in ANC's #75, #56, #64, ...

........................................................................
.............................. CYCLE    2 ..............................
........................................................................

 iter      E             dE          RMSdq      gap      omega  full diag
   1   -111.3711047 -0.111371E+03  0.488E-01    1.61       0.0  T
   2   -111.3723009 -0.119620E-02  0.269E-01    1.62       1.0  T
   3   -111.3723017 -0.797300E-06  0.152E-01    1.61       1.0  T
   4   -111.3724163 -0.114563E-03  0.677E-02    1.61       1.0  T
   5   -111.3726412 -0.224936E-03  0.220E-02    1.61       1.0  T
   6   -111.3726526 -0.114299E-04  0.104E-02    1.61       1.3  T
   7   -111.3726562 -0.355520E-05  0.389E-03    1.61       3.4  T
   8   -111.3726563 -0.584193E-07  0.259E-03    1.61       5.1  T
   9   -111.3726564 -0.137423E-06  0.161E-03    1.61       8.2  T
  10   -111.3726565 -0.864103E-07  0.763E-04    1.61      17.2  T
  11   -111.3726565 -0.317922E-07  0.312E-04    1.61      42.1  T
     SCC iter.                  ...        0 min,  0.178 sec
     gradient                   ...        0 min,  0.009 sec
 * total energy  :  -110.1764122 Eh     change       -0.5332704E-01 Eh
   gradient norm :     0.1605306 Eh/α   predicted    -0.4340245E-01 ( -18.61%)
   displ. norm   :     0.4153904 α      lambda       -0.4003473E-01
   maximum displ.:     0.1386386 α      in ANC's #34, #36, #40, ...

........................................................................
.............................. CYCLE    3 ..............................
........................................................................

 iter      E             dE          RMSdq      gap      omega  full diag
   1   -111.4431943 -0.111443E+03  0.385E-01    1.69       0.0  T
   2   -111.4447753 -0.158103E-02  0.248E-01    1.70       1.0  T
   3   -111.4449535 -0.178209E-03  0.142E-01    1.69       1.0  T
   4   -111.4447845  0.169023E-03  0.649E-02    1.69       1.0  T
   5   -111.4450229 -0.238441E-03  0.131E-02    1.69       1.0  T
   6   -111.4450275 -0.452261E-05  0.756E-03    1.69       1.7  T
   7   -111.4450283 -0.836548E-06  0.268E-03    1.69       4.9  T
   8   -111.4450284 -0.113650E-06  0.137E-03    1.69       9.6  T
   9   -111.4450285 -0.906455E-07  0.717E-04    1.69      18.3  T
  10   -111.4450285 -0.129029E-07  0.399E-04    1.69      32.9  T
     SCC iter.                  ...        0 min,  0.159 sec
     gradient                   ...        0 min,  0.015 sec
 * total energy  :  -110.2000250 Eh     change       -0.2361280E-01 Eh
   gradient norm :     0.0325225 Eh/α   predicted    -0.2347135E-01 (  -0.60%)
   displ. norm   :     0.3821309 α      lambda       -0.5801314E-02
   maximum displ.:     0.1447224 α      in ANC's #34, #21, #33, ...

........................................................................
.............................. CYCLE    4 ..............................
........................................................................

 iter      E             dE          RMSdq      gap      omega  full diag
   1   -111.4577140 -0.111458E+03  0.154E-01    1.70       0.0  T
   2   -111.4577443 -0.302425E-04  0.865E-02    1.70       1.0  T
   3   -111.4577143  0.299360E-04  0.301E-02    1.70       1.0  T
   4   -111.4577413 -0.270185E-04  0.153E-02    1.70       1.0  T
   5   -111.4577530 -0.116352E-04  0.544E-03    1.70       2.4  T
   6   -111.4577534 -0.465562E-06  0.342E-03    1.70       3.8  T
   7   -111.4577542 -0.755692E-06  0.124E-03    1.70      10.6  T
   8   -111.4577542 -0.294470E-07  0.739E-04    1.70      17.8  T
   9   -111.4577542 -0.431550E-08  0.360E-04    1.70      36.5  T
     SCC iter.                  ...        0 min,  0.149 sec
     gradient                   ...        0 min,  0.009 sec
 * total energy  :  -110.2042515 Eh     change       -0.4226525E-02 Eh
   gradient norm :     0.0206066 Eh/α   predicted    -0.3324273E-02 ( -21.35%)
   displ. norm   :     0.4340657 α      lambda       -0.3284868E-02
   maximum displ.:     0.1856353 α      in ANC's #21, #8, #31, ...

........................................................................
.............................. CYCLE    5 ..............................
........................................................................

 iter      E             dE          RMSdq      gap      omega  full diag
   1   -111.4638726 -0.111464E+03  0.138E-01    1.70       0.0  T
   2   -111.4639039 -0.313072E-04  0.776E-02    1.70       1.0  T
   3   -111.4638852  0.186702E-04  0.262E-02    1.70       1.0  T
   4   -111.4639015 -0.163018E-04  0.130E-02    1.70       1.0  T
   5   -111.4639104 -0.894947E-05  0.556E-03    1.70       2.4  T
   6   -111.4639110 -0.584792E-06  0.329E-03    1.70       4.0  T
   7   -111.4639117 -0.644467E-06  0.130E-03    1.70      10.1  T
   8   -111.4639117 -0.423283E-07  0.821E-04    1.70      16.0  T
   9   -111.4639117 -0.634724E-08  0.289E-04    1.70      45.5  T
     SCC iter.                  ...        0 min,  0.144 sec
     gradient                   ...        0 min,  0.011 sec
 * total energy  :  -110.2064798 Eh     change       -0.2228311E-02 Eh
   gradient norm :     0.0126635 Eh/α   predicted    -0.1951891E-02 ( -12.40%)
   displ. norm   :     0.3602988 α      lambda       -0.1305443E-02
   maximum displ.:     0.1808821 α      in ANC's #8, #21, #4, ...

........................................................................
.............................. CYCLE    6 ..............................
........................................................................

 iter      E             dE          RMSdq      gap      omega  full diag
   1   -111.4677546 -0.111468E+03  0.960E-02    1.70       0.0  T
   2   -111.4677673 -0.126718E-04  0.539E-02    1.70       1.0  T
   3   -111.4677543  0.129848E-04  0.205E-02    1.70       1.0  T
   4   -111.4677669 -0.125663E-04  0.889E-03    1.70       1.5  T
   5   -111.4677713 -0.438810E-05  0.350E-03    1.70       3.7  T
   6   -111.4677716 -0.325088E-06  0.207E-03    1.70       6.3  T
   7   -111.4677718 -0.217123E-06  0.853E-04    1.70      15.4  T
   8   -111.4677718 -0.210584E-07  0.510E-04    1.70      25.7  T
     SCC iter.                  ...        0 min,  0.125 sec
     gradient                   ...        0 min,  0.010 sec
 * total energy  :  -110.2074585 Eh     change       -0.9786709E-03 Eh
   gradient norm :     0.0109775 Eh/α   predicted    -0.7374813E-03 ( -24.64%)
   displ. norm   :     0.4339447 α      lambda       -0.1101205E-02
   maximum displ.:     0.2524704 α      in ANC's #8, #21, #4, ...

........................................................................
.............................. CYCLE    7 ..............................
........................................................................

 iter      E             dE          RMSdq      gap      omega  full diag
   1   -111.4691060 -0.111469E+03  0.113E-01    1.70       0.0  T
   2   -111.4691186 -0.125851E-04  0.614E-02    1.70       1.0  T
   3   -111.4691007  0.178876E-04  0.228E-02    1.70       1.0  T
   4   -111.4691153 -0.145330E-04  0.115E-02    1.70       1.1  T
   5   -111.4691227 -0.740132E-05  0.469E-03    1.70       2.8  T
   6   -111.4691236 -0.927336E-06  0.224E-03    1.70       5.9  T
   7   -111.4691238 -0.251258E-06  0.808E-04    1.70      16.2  T
   8   -111.4691238 -0.128249E-07  0.505E-04    1.70      26.0  T
     SCC iter.                  ...        0 min,  0.149 sec
     gradient                   ...        0 min,  0.013 sec
 * total energy  :  -110.2083169 Eh     change       -0.8584195E-03 Eh
   gradient norm :     0.0107317 Eh/α   predicted    -0.6542899E-03 ( -23.78%)
   displ. norm   :     0.4647977 α      lambda       -0.9515323E-03
   maximum displ.:     0.2806610 α      in ANC's #8, #4, #21, ...

........................................................................
.............................. CYCLE    8 ..............................
........................................................................

 iter      E             dE          RMSdq      gap      omega  full diag
   1   -111.4691424 -0.111469E+03  0.116E-01    1.70       0.0  T
   2   -111.4691551 -0.126755E-04  0.636E-02    1.70       1.0  T
   3   -111.4691300  0.251131E-04  0.247E-02    1.70       1.0  T
   4   -111.4691471 -0.170601E-04  0.138E-02    1.70       1.0  T
   5   -111.4691599 -0.128386E-04  0.456E-03    1.70       2.9  T
   6   -111.4691605 -0.631836E-06  0.232E-03    1.70       5.7  T
   7   -111.4691608 -0.283830E-06  0.711E-04    1.70      18.5  T
   8   -111.4691608 -0.675540E-08  0.467E-04    1.70      28.1  T
     SCC iter.                  ...        0 min,  0.134 sec
     gradient                   ...        0 min,  0.009 sec
 * total energy  :  -110.2090648 Eh     change       -0.7478340E-03 Eh
   gradient norm :     0.0090445 Eh/α   predicted    -0.5785514E-03 ( -22.64%)
   displ. norm   :     0.4628364 α      lambda       -0.7557371E-03
   maximum displ.:     0.2947029 α      in ANC's #8, #4, #13, ...

........................................................................
.............................. CYCLE    9 ..............................
........................................................................

 iter      E             dE          RMSdq      gap      omega  full diag
   1   -111.4689550 -0.111469E+03  0.110E-01    1.70       0.0  T
   2   -111.4689643 -0.933159E-05  0.603E-02    1.70       1.0  T
   3   -111.4689302  0.341690E-04  0.252E-02    1.70       1.0  T
   4   -111.4689580 -0.278026E-04  0.132E-02    1.70       1.0  T
   5   -111.4689696 -0.116121E-04  0.401E-03    1.70       3.3  T
   6   -111.4689699 -0.322562E-06  0.197E-03    1.70       6.6  T
   7   -111.4689701 -0.243791E-06  0.646E-04    1.70      20.3  T
   8   -111.4689702 -0.488286E-08  0.433E-04    1.70      30.3  T
     SCC iter.                  ...        0 min,  0.189 sec
     gradient                   ...        0 min,  0.013 sec
 * total energy  :  -110.2096280 Eh     change       -0.5632956E-03 Eh
   gradient norm :     0.0081865 Eh/α   predicted    -0.4588199E-03 ( -18.55%)
   displ. norm   :     0.3705874 α      lambda       -0.4588843E-03
   maximum displ.:     0.2527659 α      in ANC's #8, #4, #9, ...

........................................................................
.............................. CYCLE   10 ..............................
........................................................................

 iter      E             dE          RMSdq      gap      omega  full diag
   1   -111.4708930 -0.111471E+03  0.758E-02    1.70       0.0  T
   2   -111.4708996 -0.657192E-05  0.439E-02    1.70       1.0  T
   3   -111.4708824  0.172591E-04  0.181E-02    1.71       1.0  T
   4   -111.4708946 -0.122389E-04  0.996E-03    1.70       1.3  T
   5   -111.4709024 -0.780881E-05  0.262E-03    1.70       5.0  T
   6   -111.4709024 -0.408437E-07  0.171E-03    1.70       7.7  T
   7   -111.4709026 -0.184568E-06  0.471E-04    1.70      27.8  T
   8   -111.4709026 -0.230837E-08  0.328E-04    1.70      40.0  T
     SCC iter.                  ...        0 min,  0.126 sec
     gradient                   ...        0 min,  0.011 sec
 * total energy  :  -110.2099519 Eh     change       -0.3238206E-03 Eh
   gradient norm :     0.0078726 Eh/α   predicted    -0.2609625E-03 ( -19.41%)
   displ. norm   :     0.2934187 α      lambda       -0.2782051E-03
   maximum displ.:     0.2099679 α      in ANC's #8, #9, #13, ...

........................................................................
.............................. CYCLE   11 ..............................
........................................................................

 iter      E             dE          RMSdq      gap      omega  full diag
   1   -111.4715274 -0.111472E+03  0.596E-02    1.71       0.0  T
   2   -111.4715297 -0.226095E-05  0.336E-02    1.70       1.0  T
   3   -111.4715149  0.147733E-04  0.155E-02    1.71       1.0  T
   4   -111.4715308 -0.159173E-04  0.514E-03    1.70       2.6  T
   5   -111.4715315 -0.698010E-06  0.257E-03    1.70       5.1  T
   6   -111.4715318 -0.246528E-06  0.131E-03    1.70      10.0  T
   7   -111.4715319 -0.121778E-06  0.431E-04    1.70      30.5  T
   8   -111.4715319 -0.528497E-08  0.248E-04    1.70      52.9  T
     SCC iter.                  ...        0 min,  0.167 sec
     gradient                   ...        0 min,  0.009 sec
 * total energy  :  -110.2101386 Eh     change       -0.1867287E-03 Eh
   gradient norm :     0.0053126 Eh/α   predicted    -0.1510842E-03 ( -19.09%)
   displ. norm   :     0.2189673 α      lambda       -0.1914990E-03
   maximum displ.:     0.1581429 α      in ANC's #8, #13, #9, ...

........................................................................
.............................. CYCLE   12 ..............................
........................................................................

 iter      E             dE          RMSdq      gap      omega  full diag
   1   -111.4738549 -0.111474E+03  0.385E-02    1.70       0.0  T
   2   -111.4738568 -0.189009E-05  0.225E-02    1.70       1.0  T
   3   -111.4738516  0.515468E-05  0.104E-02    1.71       1.3  T
   4   -111.4738570 -0.542732E-05  0.401E-03    1.70       3.3  T
   5   -111.4738580 -0.101919E-05  0.122E-03    1.70      10.8  T
   6   -111.4738580 -0.621326E-08  0.672E-04    1.70      19.5  T
   7   -111.4738581 -0.206264E-07  0.272E-04    1.70      48.3  T
     SCC iter.                  ...        0 min,  0.123 sec
     gradient                   ...        0 min,  0.009 sec
 * total energy  :  -110.2102676 Eh     change       -0.1290024E-03 Eh
   gradient norm :     0.0049027 Eh/α   predicted    -0.1003407E-03 ( -22.22%)
   displ. norm   :     0.1944346 α      lambda       -0.1156550E-03
   maximum displ.:     0.1343712 α      in ANC's #8, #13, #9, ...

........................................................................
.............................. CYCLE   13 ..............................
........................................................................

 iter      E             dE          RMSdq      gap      omega  full diag
   1   -111.4731498 -0.111473E+03  0.323E-02    1.70       0.0  T
   2   -111.4731508 -0.983955E-06  0.182E-02    1.70       1.0  T
   3   -111.4731473  0.350182E-05  0.845E-03    1.70       1.6  T
   4   -111.4731511 -0.377142E-05  0.324E-03    1.70       4.0  T
   5   -111.4731516 -0.520173E-06  0.119E-03    1.70      11.0  T
   6   -111.4731516 -0.176424E-07  0.709E-04    1.70      18.5  T
   7   -111.4731517 -0.264709E-07  0.350E-04    1.70      37.5  T
     SCC iter.                  ...        0 min,  0.109 sec
     gradient                   ...        0 min,  0.011 sec
 * total energy  :  -110.2103482 Eh     change       -0.8060012E-04 Eh
   gradient norm :     0.0044526 Eh/α   predicted    -0.6001467E-04 ( -25.54%)
   displ. norm   :     0.1875604 α      lambda       -0.1093075E-03
   maximum displ.:     0.1241656 α      in ANC's #8, #3, #11, ...

........................................................................
.............................. CYCLE   14 ..............................
........................................................................

 iter      E             dE          RMSdq      gap      omega  full diag
   1   -111.4743840 -0.111474E+03  0.375E-02    1.70       0.0  T
   2   -111.4743857 -0.173681E-05  0.210E-02    1.70       1.0  T
   3   -111.4743808  0.495440E-05  0.102E-02    1.70       1.3  T
   4   -111.4743855 -0.466613E-05  0.451E-03    1.70       2.9  T
   5   -111.4743868 -0.131783E-05  0.155E-03    1.70       8.5  T
   6   -111.4743868 -0.671218E-07  0.892E-04    1.70      14.7  T
   7   -111.4743869 -0.406300E-07  0.362E-04    1.70      36.3  T
     SCC iter.                  ...        0 min,  0.113 sec
     gradient                   ...        0 min,  0.011 sec
 * total energy  :  -110.2103959 Eh     change       -0.4770688E-04 Eh
   gradient norm :     0.0040050 Eh/α   predicted    -0.5657938E-04 (  18.60%)
   displ. norm   :     0.1081973 α      lambda       -0.6007122E-04
   maximum displ.:     0.0550651 α      in ANC's #8, #13, #11, ...

........................................................................
.............................. CYCLE   15 ..............................
........................................................................

 iter      E             dE          RMSdq      gap      omega  full diag
   1   -111.4728262 -0.111473E+03  0.208E-02    1.70       0.0  T
   2   -111.4728265 -0.291308E-06  0.119E-02    1.70       1.1  T
   3   -111.4728251  0.138548E-05  0.467E-03    1.70       2.8  T
   4   -111.4728265 -0.138863E-05  0.179E-03    1.70       7.3  T
   5   -111.4728267 -0.160272E-06  0.651E-04    1.70      20.2  T
   6   -111.4728267 -0.127532E-07  0.373E-04    1.70      35.2  T
     SCC iter.                  ...        0 min,  0.118 sec
     gradient                   ...        0 min,  0.011 sec
 * total energy  :  -110.2104307 Eh     change       -0.3481126E-04 Eh
   gradient norm :     0.0028997 Eh/α   predicted    -0.3039258E-04 ( -12.69%)
   displ. norm   :     0.0577024 α      lambda       -0.3270586E-04
   maximum displ.:     0.0258775 α      in ANC's #14, #11, #17, ...

........................................................................
.............................. CYCLE   16 ..............................
........................................................................

 iter      E             dE          RMSdq      gap      omega  full diag
   1   -111.4725858 -0.111473E+03  0.170E-02    1.70       0.0  T
   2   -111.4725860 -0.187848E-06  0.985E-03    1.70       1.3  T
   3   -111.4725848  0.115171E-05  0.416E-03    1.70       3.2  T
   4   -111.4725860 -0.120741E-05  0.136E-03    1.70       9.6  T
   5   -111.4725861 -0.104154E-06  0.543E-04    1.70      24.2  T
   6   -111.4725861 -0.107314E-07  0.289E-04    1.70      45.5  T
     SCC iter.                  ...        0 min,  0.098 sec
     gradient                   ...        0 min,  0.010 sec
 * total energy  :  -110.2104576 Eh     change       -0.2684665E-04 Eh
   gradient norm :     0.0024206 Eh/α   predicted    -0.1640887E-04 ( -38.88%)
   displ. norm   :     0.1507318 α      lambda       -0.6200290E-04
   maximum displ.:     0.0672702 α      in ANC's #14, #11, #17, ...

........................................................................
.............................. CYCLE   17 ..............................
........................................................................

 iter      E             dE          RMSdq      gap      omega  full diag
   1   -111.4725468 -0.111473E+03  0.422E-02    1.70       0.0  T
   2   -111.4725477 -0.840323E-06  0.242E-02    1.70       1.0  T
   3   -111.4725420  0.566042E-05  0.888E-03    1.70       1.5  T
   4   -111.4725480 -0.595037E-05  0.302E-03    1.70       4.3  T
   5   -111.4725484 -0.389521E-06  0.137E-03    1.70       9.6  T
   6   -111.4725485 -0.101895E-06  0.554E-04    1.70      23.7  T
   7   -111.4725485 -0.188828E-07  0.238E-04    1.70      55.2  T
     SCC iter.                  ...        0 min,  0.120 sec
     gradient                   ...        0 min,  0.012 sec
 * total energy  :  -110.2104974 Eh     change       -0.3984151E-04 Eh
   gradient norm :     0.0028753 Eh/α   predicted    -0.3170656E-04 ( -20.42%)
   displ. norm   :     0.1097683 α      lambda       -0.2628735E-04
   maximum displ.:     0.0400869 α      in ANC's #11, #3, #14, ...

........................................................................
.............................. CYCLE   18 ..............................
........................................................................

 iter      E             dE          RMSdq      gap      omega  full diag
   1   -111.4723265 -0.111472E+03  0.274E-02    1.70       0.0  T
   2   -111.4723268 -0.328645E-06  0.156E-02    1.70       1.0  T
   3   -111.4723257  0.111815E-05  0.428E-03    1.70       3.1  T
   4   -111.4723269 -0.113903E-05  0.196E-03    1.70       6.7  T
   5   -111.4723270 -0.150025E-06  0.724E-04    1.70      18.1  T
   6   -111.4723270 -0.260011E-07  0.357E-04    1.70      36.8  T
     SCC iter.                  ...        0 min,  0.107 sec
     gradient                   ...        0 min,  0.012 sec
 * total energy  :  -110.2105157 Eh     change       -0.1826327E-04 Eh
   gradient norm :     0.0029040 Eh/α   predicted    -0.1330920E-04 ( -27.13%)
   displ. norm   :     0.1556533 α      lambda       -0.3586775E-04
   maximum displ.:     0.0569379 α      in ANC's #3, #14, #6, ...

........................................................................
.............................. CYCLE   19 ..............................
........................................................................

 iter      E             dE          RMSdq      gap      omega  full diag
   1   -111.4731188 -0.111473E+03  0.392E-02    1.70       0.0  T
   2   -111.4731196 -0.825897E-06  0.221E-02    1.70       1.0  T
   3   -111.4731179  0.168007E-05  0.573E-03    1.70       2.3  T
   4   -111.4731195 -0.162208E-05  0.301E-03    1.70       4.4  T
   5   -111.4731199 -0.407043E-06  0.963E-04    1.70      13.6  T
   6   -111.4731200 -0.190249E-07  0.572E-04    1.70      22.9  T
     SCC iter.                  ...        0 min,  0.099 sec
     gradient                   ...        0 min,  0.009 sec
 * total energy  :  -110.2105324 Eh     change       -0.1672995E-04 Eh
   gradient norm :     0.0021585 Eh/α   predicted    -0.1837155E-04 (   9.81%)
   displ. norm   :     0.0555933 α      lambda       -0.1853947E-04
   maximum displ.:     0.0221233 α      in ANC's #3, #2, #15, ...

........................................................................
.............................. CYCLE   20 ..............................
........................................................................

 iter      E             dE          RMSdq      gap      omega  full diag
   1   -111.4733045 -0.111473E+03  0.129E-02    1.70       0.0  T
   2   -111.4733046 -0.165050E-06  0.708E-03    1.70       1.9  T
   3   -111.4733043  0.372856E-06  0.265E-03    1.70       5.0  T
   4   -111.4733046 -0.366058E-06  0.129E-03    1.70      10.2  T
   5   -111.4733047 -0.704972E-07  0.584E-04    1.70      22.5  T
   6   -111.4733047 -0.141355E-07  0.266E-04    1.70      49.3  T
     SCC iter.                  ...        0 min,  0.099 sec
     gradient                   ...        0 min,  0.009 sec
 * total energy  :  -110.2105434 Eh     change       -0.1096355E-04 Eh
   gradient norm :     0.0014572 Eh/α   predicted    -0.9301225E-05 ( -15.16%)
   displ. norm   :     0.0480293 α      lambda       -0.9476713E-05
   maximum displ.:     0.0189657 α      in ANC's #14, #2, #15, ...
 * RMSD in coord.:     0.4935818 α      energy gain  -0.8745821E-01 Eh

generating ANC from exact Hessian ...
Using Lindh-Hessian (1995)
 Shifting diagonal of input Hessian by    9.8158774313015246E-003
 Lowest  eigenvalues of input Hessian
    0.000000    0.000000    0.000000    0.000000    0.000000    0.000000
    0.010000    0.010072    0.010157    0.010221    0.010468    0.010744
    0.010813    0.011007    0.011657    0.011868    0.013496    0.013685
 Highest eigenvalues
    2.119277    2.200602    2.208197    2.637167    2.659276    2.668480


........................................................................
.............................. CYCLE   21 ..............................
........................................................................

 iter      E             dE          RMSdq      gap      omega  full diag
   1   -111.4734436 -0.111473E+03  0.142E-02    1.70       0.0  T
   2   -111.4734438 -0.170020E-06  0.779E-03    1.70       1.7  T
   3   -111.4734426  0.119252E-05  0.421E-03    1.70       3.1  T
   4   -111.4734439 -0.128947E-05  0.144E-03    1.70       9.1  T
   5   -111.4734440 -0.918446E-07  0.670E-04    1.70      19.6  T
   6   -111.4734440 -0.152299E-07  0.276E-04    1.70      47.6  T
     SCC iter.                  ...        0 min,  0.097 sec
     gradient                   ...        0 min,  0.010 sec
 * total energy  :  -110.2105518 Eh     change       -0.8411674E-05 Eh
   gradient norm :     0.0016651 Eh/α   predicted     0.0000000E+00 (-100.00%)
   displ. norm   :     0.0243506 α      lambda       -0.5289973E-05
   maximum displ.:     0.0097021 α      in ANC's #2, #4, #21, ...

........................................................................
.............................. CYCLE   22 ..............................
........................................................................

 iter      E             dE          RMSdq      gap      omega  full diag
   1   -111.4734461 -0.111473E+03  0.830E-03    1.70       0.0  T
   2   -111.4734461 -0.909305E-07  0.439E-03    1.70       3.0  T
   3   -111.4734461  0.692470E-07  0.166E-03    1.70       7.9  T
   4   -111.4734461 -0.407807E-07  0.988E-04    1.70      13.3  T
   5   -111.4734462 -0.500413E-07  0.393E-04    1.70      33.4  T
     SCC iter.                  ...        0 min,  0.078 sec
     gradient                   ...        0 min,  0.009 sec
 * total energy  :  -110.2105594 Eh     change       -0.7598883E-05 Eh
   gradient norm :     0.0005634 Eh/α   predicted    -0.3508429E-05 ( -53.83%)
   displ. norm   :     0.0540649 α      lambda       -0.7435126E-05
   maximum displ.:     0.0227932 α      in ANC's #2, #4, #6, ...

........................................................................
.............................. CYCLE   23 ..............................
........................................................................

 iter      E             dE          RMSdq      gap      omega  full diag
   1   -111.4733453 -0.111473E+03  0.142E-02    1.70       0.0  T
   2   -111.4733456 -0.227166E-06  0.749E-03    1.70       1.8  T
   3   -111.4733454  0.163983E-06  0.264E-03    1.70       5.0  T
   4   -111.4733455 -0.131796E-06  0.152E-03    1.70       8.7  T
   5   -111.4733456 -0.963210E-07  0.607E-04    1.70      21.6  T
   6   -111.4733456 -0.560411E-08  0.344E-04    1.70      38.2  T
     SCC iter.                  ...        0 min,  0.109 sec
     gradient                   ...        0 min,  0.011 sec
 * total energy  :  -110.2105676 Eh     change       -0.8182790E-05 Eh
   gradient norm :     0.0009563 Eh/α   predicted    -0.3722594E-05 ( -54.51%)
   displ. norm   :     0.0811930 α      lambda       -0.7219165E-05
   maximum displ.:     0.0353139 α      in ANC's #2, #6, #4, ...

........................................................................
.............................. CYCLE   24 ..............................
........................................................................

 iter      E             dE          RMSdq      gap      omega  full diag
   1   -111.4732831 -0.111473E+03  0.201E-02    1.70       0.0  T
   2   -111.4732834 -0.312895E-06  0.104E-02    1.70       1.3  T
   3   -111.4732832  0.190270E-06  0.304E-03    1.70       4.3  T
   4   -111.4732833 -0.105999E-06  0.196E-03    1.70       6.7  T
   5   -111.4732835 -0.157341E-06  0.795E-04    1.70      16.5  T
   6   -111.4732835 -0.195666E-07  0.422E-04    1.70      31.1  T
     SCC iter.                  ...        0 min,  0.130 sec
     gradient                   ...        0 min,  0.013 sec
 * total energy  :  -110.2105758 Eh     change       -0.8195819E-05 Eh
   gradient norm :     0.0014212 Eh/α   predicted    -0.3624787E-05 ( -55.77%)
   displ. norm   :     0.1011472 α      lambda       -0.7264724E-05
   maximum displ.:     0.0456067 α      in ANC's #2, #6, #4, ...

........................................................................
.............................. CYCLE   25 ..............................
........................................................................

 iter      E             dE          RMSdq      gap      omega  full diag
   1   -111.4732602 -0.111473E+03  0.234E-02    1.70       0.0  T
   2   -111.4732606 -0.372954E-06  0.121E-02    1.70       1.1  T
   3   -111.4732605  0.761507E-07  0.306E-03    1.70       4.3  T
   4   -111.4732605  0.328718E-07  0.208E-03    1.70       6.3  T
   5   -111.4732607 -0.171419E-06  0.901E-04    1.70      14.6  T
   6   -111.4732607 -0.433090E-07  0.407E-04    1.70      32.3  T
     SCC iter.                  ...        0 min,  0.094 sec
     gradient                   ...        0 min,  0.012 sec
 * total energy  :  -110.2105840 Eh     change       -0.8272578E-05 Eh
   gradient norm :     0.0011661 Eh/α   predicted    -0.3659054E-05 ( -55.77%)
   displ. norm   :     0.0939191 α      lambda       -0.5910619E-05
   maximum displ.:     0.0449985 α      in ANC's #2, #6, #4, ...

........................................................................
.............................. CYCLE   26 ..............................
........................................................................

 iter      E             dE          RMSdq      gap      omega  full diag
   1   -111.4733507 -0.111473E+03  0.213E-02    1.70       0.0  T
   2   -111.4733510 -0.293998E-06  0.109E-02    1.70       1.2  T
   3   -111.4733510 -0.106741E-07  0.255E-03    1.70       5.2  T
   4   -111.4733509  0.471094E-07  0.159E-03    1.70       8.3  T
   5   -111.4733510 -0.843197E-07  0.703E-04    1.70      18.7  T
   6   -111.4733510 -0.315996E-07  0.328E-04    1.70      40.0  T
     SCC iter.                  ...        0 min,  0.102 sec
     gradient                   ...        0 min,  0.010 sec
 * total energy  :  -110.2105907 Eh     change       -0.6693535E-05 Eh
   gradient norm :     0.0004933 Eh/α   predicted    -0.2977607E-05 ( -55.52%)
   displ. norm   :     0.0741249 α      lambda       -0.4234045E-05
   maximum displ.:     0.0388797 α      in ANC's #6, #2, #4, ...

........................................................................
.............................. CYCLE   27 ..............................
........................................................................

 iter      E             dE          RMSdq      gap      omega  full diag
   1   -111.4734471 -0.111473E+03  0.161E-02    1.70       0.0  T
   2   -111.4734473 -0.173226E-06  0.825E-03    1.70       1.6  T
   3   -111.4734472  0.165066E-07  0.205E-03    1.70       6.4  T
   4   -111.4734472 -0.241647E-08  0.134E-03    1.70       9.8  T
   5   -111.4734473 -0.613380E-07  0.442E-04    1.70      29.7  T
   6   -111.4734473 -0.623554E-08  0.245E-04    1.70      53.5  T
     SCC iter.                  ...        0 min,  0.119 sec
     gradient                   ...        0 min,  0.012 sec
 * total energy  :  -110.2105956 Eh     change       -0.4900024E-05 Eh
   gradient norm :     0.0004544 Eh/α   predicted    -0.2122458E-05 ( -56.68%)
   displ. norm   :     0.0640082 α      lambda       -0.3448629E-05
   maximum displ.:     0.0361318 α      in ANC's #6, #2, #4, ...

   *** GEOMETRY OPTIMIZATION CONVERGED AFTER 27 ITERATIONS ***

------------------------------------------------------------------------
 total energy gain   :        -0.0875105 Eh      -54.9136 kcal/mol
 total RMSD          :         0.4940369 a0        0.2614 Å
 total power (kW/mol):        -8.5095814 (step)  -60.7947 (real)
------------------------------------------------------------------------

 ANCopt (total)                0 d,  0 h,  0 min,  3.779 sec
 optimizer setup                ...        0 min,  0.000 sec (  0.009%)
 model hessian                  ...        0 min,  0.022 sec (  0.581%)
 ANC generation                 ...        0 min,  0.016 sec (  0.418%)
 coordinate transformation      ...        0 min,  0.001 sec (  0.014%)
 single point calculation       ...        0 min,  3.729 sec ( 98.658%)
 optimization log               ...        0 min,  0.004 sec (  0.101%)
 hessian update                 ...        0 min,  0.002 sec (  0.044%)
 rational function              ...        0 min,  0.006 sec (  0.147%)

================
 final structure:
================
 xtb: 6.7.1 (edcfbbe)
          12022411403D

 58 62  0     0  0            999 V2000
   -2.0533    1.5462   -2.6638 C   0  0  0  0  0  0  0  0  0  0  0  0
   -1.8511    0.6965   -1.5943 C   0  0  0  0  0  0  0  0  0  0  0  0
   -1.0337    1.1238   -0.5146 C   0  0  0  0  0  0  0  0  0  0  0  0
   -0.2308    2.2993   -0.6784 C   0  0  0  0  0  0  0  0  0  0  0  0
   -0.4922    3.1600   -1.7728 C   0  0  0  0  0  0  0  0  0  0  0  0
   -1.4101    2.7879   -2.7061 C   0  0  0  0  0  0  0  0  0  0  0  0
   -0.8756    0.4071    0.7099 C   0  0  0  0  0  0  0  0  0  0  0  0
    0.3149    0.6333    1.4189 C   0  0  0  0  0  0  0  0  0  0  0  0
    1.1396    1.7458    1.0754 C   0  0  0  0  0  0  0  0  0  0  0  0
    0.7886    2.6064    0.1217 N   0  0  0  0  0  0  0  0  0  0  0  0
   -1.7997   -0.5129    1.2923 C   0  0  0  0  0  0  0  0  0  0  0  0
   -1.2719   -1.4280    2.2607 C   0  0  0  0  0  0  0  0  0  0  0  0
   -0.0526   -1.3139    2.7874 N   0  0  0  0  0  0  0  0  0  0  0  0
    0.6871   -0.2537    2.4729 C   0  0  0  0  0  0  0  0  0  0  0  0
    1.9059   -0.0197    3.1452 C   0  0  0  0  0  0  0  0  0  0  0  0
    2.6800    1.0701    2.8089 C   0  0  0  0  0  0  0  0  0  0  0  0
    2.3224    1.9598    1.8148 C   0  0  0  0  0  0  0  0  0  0  0  0
   -3.1976   -0.5068    1.0490 C   0  0  0  0  0  0  0  0  0  0  0  0
   -3.9705   -1.5369    1.5488 C   0  0  0  0  0  0  0  0  0  0  0  0
   -3.3964   -2.5331    2.3395 C   0  0  0  0  0  0  0  0  0  0  0  0
   -2.0921   -2.4810    2.7336 C   0  0  0  0  0  0  0  0  0  0  0  0
   -3.7002    0.5666    0.3926 O   0  0  0  0  0  0  0  0  0  0  0  0
   -2.3235   -0.5731   -1.5320 O   0  0  0  0  0  0  0  0  0  0  0  0
   -1.8440    3.8906   -4.1056 S   0  0  0  0  0  0  0  0  0  0  0  0
   -4.4633   -3.9215    2.8966 S   0  0  0  0  0  0  0  0  0  0  0  0
    0.0638    4.0783   -1.8717 H   0  0  0  0  0  0  0  0  0  0  0  0
   -2.7040    1.2851   -3.4827 H   0  0  0  0  0  0  0  0  0  0  0  0
    2.9426    2.8083    1.5748 H   0  0  0  0  0  0  0  0  0  0  0  0
    2.2246   -0.6914    3.9273 H   0  0  0  0  0  0  0  0  0  0  0  0
   -1.6703   -3.1985    3.4176 H   0  0  0  0  0  0  0  0  0  0  0  0
   -5.0299   -1.6109    1.3588 H   0  0  0  0  0  0  0  0  0  0  0  0
   -1.0295    5.0688   -3.9020 O   0  0  0  0  0  0  0  0  0  0  0  0
   -3.3934    4.2224   -3.5538 O   0  0  0  0  0  0  0  0  0  0  0  0
   -3.4841    5.0796   -2.4454 C   0  0  0  0  0  0  0  0  0  0  0  0
    4.2806    1.3469    3.6803 S   0  0  0  0  0  0  0  0  0  0  0  0
    4.3370    0.2723    4.6497 O   0  0  0  0  0  0  0  0  0  0  0  0
    5.2465    0.9251    2.3827 O   0  0  0  0  0  0  0  0  0  0  0  0
    5.3161   -0.4419    2.0692 C   0  0  0  0  0  0  0  0  0  0  0  0
   -5.7373   -3.6381    2.2607 O   0  0  0  0  0  0  0  0  0  0  0  0
   -3.6891   -5.0993    2.0000 O   0  0  0  0  0  0  0  0  0  0  0  0
   -3.8517   -5.0342    0.6078 C   0  0  0  0  0  0  0  0  0  0  0  0
   -5.0926    0.6465    0.1972 C   0  0  0  0  0  0  0  0  0  0  0  0
   -3.1037   -1.0570   -2.5985 C   0  0  0  0  0  0  0  0  0  0  0  0
   -3.7111   -6.0393    0.2125 H   0  0  0  0  0  0  0  0  0  0  0  0
   -3.1158   -4.3550    0.1642 H   0  0  0  0  0  0  0  0  0  0  0  0
   -4.8622   -4.6868    0.3662 H   0  0  0  0  0  0  0  0  0  0  0  0
    6.2842   -0.6245    1.6048 H   0  0  0  0  0  0  0  0  0  0  0  0
    4.5146   -0.7213    1.3776 H   0  0  0  0  0  0  0  0  0  0  0  0
    5.2316   -1.0392    2.9832 H   0  0  0  0  0  0  0  0  0  0  0  0
   -3.3693   -2.0781   -2.3277 H   0  0  0  0  0  0  0  0  0  0  0  0
   -2.5382   -1.0667   -3.5356 H   0  0  0  0  0  0  0  0  0  0  0  0
   -4.0159   -0.4673   -2.7310 H   0  0  0  0  0  0  0  0  0  0  0  0
   -5.2599    1.5824   -0.3342 H   0  0  0  0  0  0  0  0  0  0  0  0
   -5.6290    0.6682    1.1505 H   0  0  0  0  0  0  0  0  0  0  0  0
   -5.4639   -0.1866   -0.4071 H   0  0  0  0  0  0  0  0  0  0  0  0
   -4.4433    5.5924   -2.5024 H   0  0  0  0  0  0  0  0  0  0  0  0
   -2.6750    5.8167   -2.4768 H   0  0  0  0  0  0  0  0  0  0  0  0
   -3.4191    4.5123   -1.5111 H   0  0  0  0  0  0  0  0  0  0  0  0
  1  2  2  0  0  0  0
  1  6  1  0  0  0  0
  1 27  1  0  0  0  0
  2  3  1  0  0  0  0
  2 23  1  0  0  0  0
  3  4  2  0  0  0  0
  3  7  1  0  0  0  0
  4  5  1  0  0  0  0
  4 10  1  0  0  0  0
  5  6  2  0  0  0  0
  5 26  1  0  0  0  0
  6 24  1  0  0  0  0
  7  8  2  0  0  0  0
  7 11  1  0  0  0  0
  8  9  1  0  0  0  0
  8 14  1  0  0  0  0
  9 10  1  0  0  0  0
  9 17  2  0  0  0  0
 11 12  2  0  0  0  0
 11 18  1  0  0  0  0
 12 13  1  0  0  0  0
 12 21  1  0  0  0  0
 13 14  2  0  0  0  0
 14 15  1  0  0  0  0
 15 16  2  0  0  0  0
 15 29  1  0  0  0  0
 16 17  1  0  0  0  0
 16 35  1  0  0  0  0
 17 28  1  0  0  0  0
 18 19  2  0  0  0  0
 18 22  1  0  0  0  0
 19 20  1  0  0  0  0
 19 31  1  0  0  0  0
 20 21  2  0  0  0  0
 20 25  1  0  0  0  0
 21 30  1  0  0  0  0
 22 42  1  0  0  0  0
 23 43  1  0  0  0  0
 24 32  2  0  0  0  0
 24 33  1  0  0  0  0
 25 39  2  0  0  0  0
 25 40  1  0  0  0  0
 33 34  1  0  0  0  0
 34 56  1  0  0  0  0
 34 57  1  0  0  0  0
 34 58  1  0  0  0  0
 35 36  2  0  0  0  0
 35 37  1  0  0  0  0
 37 38  1  0  0  0  0
 38 47  1  0  0  0  0
 38 48  1  0  0  0  0
 38 49  1  0  0  0  0
 40 41  1  0  0  0  0
 41 44  1  0  0  0  0
 41 45  1  0  0  0  0
 41 46  1  0  0  0  0
 42 53  1  0  0  0  0
 42 54  1  0  0  0  0
 42 55  1  0  0  0  0
 43 50  1  0  0  0  0
 43 51  1  0  0  0  0
 43 52  1  0  0  0  0
M  END

 Bond Distances (Angstroems)
 ---------------------------
C1-C2=1.3808         C1-C6=1.3991         C1-H27=1.0781        C2-C1=1.3808         C2-C3=1.4200         C2-O23=1.3561        
C3-C2=1.4200         C3-C4=1.4329         C3-C7=1.4277         C4-C3=1.4329         C4-C5=1.4167         C4-N10=1.3318        
C5-C4=1.4167         C5-C6=1.3608         C5-H26=1.0780        C6-C1=1.3991         C6-C5=1.3608         C6-S24=1.8338        
C7-C3=1.4277         C7-C8=1.4040         C7-C11=1.4281        C8-C7=1.4040         C8-C9=1.4268         C8-C14=1.4269        
C9-C8=1.4268         C9-N10=1.3317        C9-C17=1.4112        N10-C4=1.3318        N10-C9=1.3317        C11-C7=1.4281        
C11-C12=1.4331       C11-C18=1.4190       C12-C11=1.4331       C12-N13=1.3331       C12-C21=1.4161       N13-C12=1.3331       
N13-C14=1.3305       C14-C8=1.4269        C14-N13=1.3305       C14-C15=1.4115       C15-C14=1.4115       C15-C16=1.3784       
C15-H29=1.0791       C16-C15=1.3784       C16-C17=1.3811       C16-S35=1.8434       C17-C9=1.4112        C17-C16=1.3811       
C17-H28=1.0781       C18-C11=1.4190       C18-C19=1.3814       C18-O22=1.3549       C19-C18=1.3814       C19-C20=1.3954       
C19-H31=1.0789       C20-C19=1.3954       C20-C21=1.3635       C20-S25=1.8375       C21-C12=1.4161       C21-C20=1.3635       
C21-H30=1.0772       O22-C18=1.3549       O22-C42=1.4083       O23-C2=1.3561        O23-C43=1.4072       S24-C6=1.8338        
S24-O32=1.4467       S24-O33=1.6779       S25-C20=1.8375       S25-O39=1.4518       S25-O40=1.6705       H26-C5=1.0780        
H27-C1=1.0781        H28-C17=1.0781       H29-C15=1.0791       H30-C21=1.0772       H31-C19=1.0789       O32-S24=1.4467       
O33-S24=1.6779       O33-C34=1.4042       C34-O33=1.4042       C34-H56=1.0892       C34-H57=1.0949       C34-H58=1.0949       
S35-C16=1.8434       S35-O36=1.4483       S35-O37=1.6718       O36-S35=1.4483       O37-S35=1.6718       O37-C38=1.4042       
C38-O37=1.4042       C38-H47=1.0891       C38-H48=1.0948       C38-H49=1.0952       O39-S25=1.4518       O40-S25=1.6705       
O40-C41=1.4031       C41-O40=1.4031       C41-H44=1.0891       C41-H45=1.0953       C41-H46=1.0955       C42-O22=1.4083       
C42-H53=1.0891       C42-H54=1.0941       C42-H55=1.0942       C43-O23=1.4072       C43-H50=1.0892       C43-H51=1.0946       
C43-H52=1.0943       H44-C41=1.0891       H45-C41=1.0953       H46-C41=1.0955       H47-C38=1.0891       H48-C38=1.0948       
H49-C38=1.0952       H50-C43=1.0892       H51-C43=1.0946       H52-C43=1.0943       H53-C42=1.0891       H54-C42=1.0941       
H55-C42=1.0942       H56-C34=1.0892       H57-C34=1.0949       H58-C34=1.0949       
 C  H  Rav=1.0887 sigma=0.0070  Rmin=1.0772  Rmax=1.0955    21
 C  C  Rav=1.4055 sigma=0.0224  Rmin=1.3608  Rmax=1.4331    21
 N  C  Rav=1.3318 sigma=0.0009  Rmin=1.3305  Rmax=1.3331     4
 O  C  Rav=1.3911 sigma=0.0226  Rmin=1.3549  Rmax=1.4083     7
 S  C  Rav=1.8382 sigma=0.0039  Rmin=1.8338  Rmax=1.8434     3
 S  O  Rav=1.5612 sigma=0.1123  Rmin=1.4467  Rmax=1.6779     6

 selected bond angles (degree)
 --------------------
C6-C1-C2=120.15                H27-C1-C2=121.85               H27-C1-C6=118.00               C3-C2-C1=119.21                
O23-C2-C1=124.11               O23-C2-C3=116.57               C4-C3-C2=118.85                C7-C3-C2=124.39                
C7-C3-C4=116.61                C5-C4-C3=118.90                N10-C4-C3=123.33               N10-C4-C5=117.73               
C6-C5-C4=119.22                H26-C5-C4=119.55               H26-C5-C6=121.19               C5-C6-C1=122.14                
S24-C6-C1=116.61               S24-C6-C5=121.24               C8-C7-C3=116.49                C11-C7-C3=126.98               
C11-C7-C8=116.52               C9-C8-C7=119.62                C14-C8-C7=119.60               C14-C8-C9=120.78               
N10-C9-C8=121.59               C17-C9-C8=118.46               C17-C9-N10=119.88              C9-N10-C4=118.88               

 selected dihedral angles (degree)
 ---------------------------------
C3-C2-C1-C6=  2.84            C3-C2-C1-H27=183.06           O23-C2-C1-C6=186.86           O23-C2-C1-H27=  7.08          
C4-C3-C2-C1=347.62            C4-C3-C2-O23=163.90           C7-C3-C2-C1=172.34            C7-C3-C2-O23=348.61           
C5-C4-C3-C2= 14.02            C5-C4-C3-C7=189.67            N10-C4-C3-C2=196.50           N10-C4-C3-C7= 12.15           
C6-C5-C4-C3=353.92            C6-C5-C4-N10=171.58           H26-C5-C4-C3=176.20           H26-C5-C4-N10=353.85          
C5-C6-C1-C2=  5.44            C5-C6-C1-H27=185.23           S24-C6-C1-C2=184.45           S24-C6-C1-H27=  4.24          
C1-C6-C5-C4=356.31            C1-C6-C5-H26=174.00           S24-C6-C5-C4=177.35           S24-C6-C5-H26=355.04          
C8-C7-C3-C2=154.86            C8-C7-C3-C4=339.47            C11-C7-C3-C2=334.71           C11-C7-C3-C4=159.33           
C9-C8-C7-C3= 14.16            C9-C8-C7-C11=194.29           C14-C8-C7-C3=194.28           C14-C8-C7-C11= 14.40          
N10-C9-C8-C7=  2.15           N10-C9-C8-C14=182.03          C17-C9-C8-C7=179.23           C17-C9-C8-C14=359.11          
C9-N10-C4-C3=  4.23           C9-N10-C4-C5=186.68           C4-N10-C9-C8=348.42           C4-N10-C9-C17=171.38          
           -------------------------------------------------
          |                Final Singlepoint                |
           -------------------------------------------------

          ...................................................
          :                      SETUP                      :
          :.................................................:
          :  # basis functions                 187          :
          :  # atomic orbitals                 184          :
          :  # shells                           98          :
          :  # electrons                       193          :
          :  max. iterations                   250          :
          :  Hamiltonian                  GFN2-xTB          :
          :  restarted?                      false          :
          :  GBSA solvation                  false          :
          :  PC potential                    false          :
          :  electronic temp.          300.0000000     K    :
          :  accuracy                    1.0000000          :
          :  -> integral cutoff          0.2500000E+02      :
          :  -> integral neglect         0.1000000E-07      :
          :  -> SCF convergence          0.1000000E-05 Eh   :
          :  -> wf. convergence          0.1000000E-03 e    :
          :  Broyden damping             0.4000000          :
          :  net charge                          0          :
          :  unpaired electrons                  1          :
          ...................................................

 iter      E             dE          RMSdq      gap      omega  full diag
   1   -111.4734473 -0.111473E+03  0.158E-04    1.70       0.0  T
   2   -111.4734473  0.375678E-09  0.140E-04    1.70      93.5  T
   3   -111.4734473 -0.990099E-09  0.869E-05    1.70     151.1  T

   *** convergence criteria satisfied after 3 iterations ***

         #    Occupation            Energy/Eh            Energy/eV
      -------------------------------------------------------------
         1        2.0000           -0.7777168             -21.1628
       ...           ...                  ...                  ...
        91        2.0000           -0.4022073             -10.9446
        92        2.0000           -0.3996072             -10.8739
        93        2.0000           -0.3963066             -10.7841
        94        2.0000           -0.3938450             -10.7171
        95        2.0000           -0.3901226             -10.6158
        96        1.9972           -0.3744871             -10.1903
        97        1.0028           -0.3633512              -9.8873 (HOMO)
        98                         -0.3008257              -8.1859 (LUMO)
        99                         -0.2667073              -7.2575
       100                         -0.2651401              -7.2148
       101                         -0.2441982              -6.6450
       102                         -0.2304266              -6.2702
       ...                                ...                  ...
       184                          0.9903748              26.9495
      -------------------------------------------------------------
                  HL-Gap            0.0625255 Eh            1.7014 eV
             Fermi-level           -0.3505038 Eh           -9.5377 eV

 SCC (total)                   0 d,  0 h,  0 min,  0.092 sec
 SCC setup                      ...        0 min,  0.000 sec (  0.159%)
 Dispersion                     ...        0 min,  0.001 sec (  1.298%)
 classical contributions        ...        0 min,  0.000 sec (  0.099%)
 integral evaluation            ...        0 min,  0.002 sec (  2.345%)
 iterations                     ...        0 min,  0.077 sec ( 83.084%)
 molecular gradient             ...        0 min,  0.009 sec (  9.787%)
 printout                       ...        0 min,  0.003 sec (  3.216%)

         :::::::::::::::::::::::::::::::::::::::::::::::::::::
         ::                     SUMMARY                     ::
         :::::::::::::::::::::::::::::::::::::::::::::::::::::
         :: total energy            -110.210595618232 Eh    ::
         :: gradient norm              0.000454095298 Eh/a0 ::
         :: HOMO-LUMO gap              1.701404991300 eV    ::
         ::.................................................::
         :: SCC energy              -111.472449931629 Eh    ::
         :: -> isotropic ES            0.195757374028 Eh    ::
         :: -> anisotropic ES          0.001087840143 Eh    ::
         :: -> anisotropic XC          0.031581356053 Eh    ::
         :: -> dispersion             -0.082998915790 Eh    ::
         :: repulsion energy           1.261854313397 Eh    ::
         :: add. restraining           0.000000000000 Eh    ::
         :: total charge               0.000000000207 e     ::
         :::::::::::::::::::::::::::::::::::::::::::::::::::::

           -------------------------------------------------
          |                Property Printout                |
           -------------------------------------------------

    * Orbital Energies and Occupations

         #    Occupation            Energy/Eh            Energy/eV
      -------------------------------------------------------------
         1        2.0000           -0.7777168             -21.1628
       ...           ...                  ...                  ...
        85        2.0000           -0.4417129             -12.0196
        86        2.0000           -0.4412573             -12.0072
        87        2.0000           -0.4389459             -11.9443
        88        2.0000           -0.4257435             -11.5851
        89        2.0000           -0.4253930             -11.5755
        90        2.0000           -0.4046229             -11.0103
        91        2.0000           -0.4022073             -10.9446
        92        2.0000           -0.3996072             -10.8739
        93        2.0000           -0.3963066             -10.7841
        94        2.0000           -0.3938450             -10.7171
        95        2.0000           -0.3901226             -10.6158
        96        1.9972           -0.3744871             -10.1903
        97        1.0028           -0.3633512              -9.8873 (HOMO)
        98                         -0.3008257              -8.1859 (LUMO)
        99                         -0.2667073              -7.2575
       100                         -0.2651401              -7.2148
       101                         -0.2441982              -6.6450
       102                         -0.2304266              -6.2702
       103                         -0.2222124              -6.0467
       104                         -0.2109472              -5.7402
       105                         -0.2049239              -5.5763
       106                         -0.1898019              -5.1648
       107                         -0.1865926              -5.0774
       108                         -0.1653599              -4.4997
       ...                                ...                  ...
       184                          0.9903748              26.9495
      -------------------------------------------------------------
                  HL-Gap            0.0625255 Eh            1.7014 eV
             Fermi-level           -0.3505038 Eh           -9.5377 eV

     #   Z          covCN         q      C6AA      α(0)
     1   6 C        2.949    -0.076    29.898     8.968
     2   6 C        2.861     0.154    24.657     8.139
     3   6 C        2.982    -0.020    28.496     8.756
     4   6 C        2.964     0.096    25.874     8.343
     5   6 C        2.945    -0.045    29.105     8.848
     6   6 C        2.961    -0.055    29.359     8.887
     7   6 C        2.984     0.040    27.102     8.540
     8   6 C        3.000    -0.024    28.594     8.772
     9   6 C        2.956     0.096    25.872     8.343
    10   7 N        1.851    -0.236    27.029     7.705
    11   6 C        2.982    -0.020    28.509     8.758
    12   6 C        2.964     0.096    25.869     8.343
    13   7 N        1.851    -0.236    27.034     7.706
    14   6 C        2.956     0.095    25.887     8.345
    15   6 C        2.943    -0.031    28.778     8.798
    16   6 C        2.954    -0.053    29.325     8.882
    17   6 C        2.948    -0.039    28.980     8.829
    18   6 C        2.861     0.153    24.683     8.144
    19   6 C        2.942    -0.069    29.727     8.942
    20   6 C        2.960    -0.056    29.383     8.891
    21   6 C        2.950    -0.053    29.321     8.881
    22   8 O        1.705    -0.257    18.265     5.770
    23   8 O        1.705    -0.258    18.269     5.771
    24  16 S        2.861     0.666   116.822    18.191
    25  16 S        2.860     0.675   116.539    18.169
    26   1 H        0.926     0.084     1.936     2.176
    27   1 H        0.926     0.047     2.355     2.400
    28   1 H        0.926     0.068     2.107     2.270
    29   1 H        0.926     0.086     1.914     2.163
    30   1 H        0.926     0.067     2.121     2.277
    31   1 H        0.926     0.070     2.080     2.255
    32   8 O        0.860    -0.496    23.695     6.526
    33   8 O        1.705    -0.377    20.400     6.098
    34   6 C        3.742     0.050    19.815     6.351
    35  16 S        2.855     0.675   116.526    18.168
    36   8 O        0.860    -0.498    23.741     6.533
    37   8 O        1.705    -0.373    20.324     6.087
    38   6 C        3.741     0.049    19.828     6.353
    39   8 O        0.860    -0.507    23.937     6.560
    40   8 O        1.706    -0.372    20.295     6.082
    41   6 C        3.744     0.051    19.789     6.346
    42   6 C        3.645     0.036    20.302     6.476
    43   6 C        3.645     0.037    20.289     6.474
    44   1 H        0.925     0.059     2.213     2.326
    45   1 H        0.924     0.031     2.568     2.506
    46   1 H        0.924     0.055     2.254     2.348
    47   1 H        0.925     0.059     2.206     2.323
    48   1 H        0.924     0.032     2.554     2.499
    49   1 H        0.924     0.061     2.191     2.315
    50   1 H        0.925     0.064     2.158     2.297
    51   1 H        0.924     0.046     2.374     2.410
    52   1 H        0.924     0.047     2.363     2.404
    53   1 H        0.925     0.064     2.149     2.293
    54   1 H        0.924     0.049     2.328     2.386
    55   1 H        0.924     0.047     2.358     2.402
    56   1 H        0.925     0.057     2.235     2.338
    57   1 H        0.924     0.061     2.191     2.315
    58   1 H        0.924     0.032     2.561     2.503

 Mol. C6AA /au·bohr⁶  :      54240.128227
 Mol. C8AA /au·bohr⁸  :    1454060.731062
 Mol. α(0) /au        :        364.983810


Wiberg/Mayer (AO) data.
largest (>0.10) Wiberg bond orders for each atom

 ---------------------------------------------------------------------------
     #   Z sym  total        # sym  WBO       # sym  WBO       # sym  WBO
 ---------------------------------------------------------------------------
     1   6 C    3.942 --     2 C    1.431     6 C    1.313    27 H    0.962
     2   6 C    3.935 --     1 C    1.431     3 C    1.239    23 O    1.079
     3   6 C    3.980 --     2 C    1.239     7 C    1.211     4 C    1.210
     4   6 C    3.979 --    10 N    1.355     5 C    1.226     3 C    1.210
     5   6 C    3.958 --     6 C    1.538     4 C    1.226    26 H    0.957
     6   6 C    3.969 --     5 C    1.538     1 C    1.313    24 S    0.911
     7   6 C    3.986 --     8 C    1.321     3 C    1.211    11 C    1.209
     8   6 C    3.983 --     7 C    1.321    14 C    1.190     9 C    1.190
     9   6 C    3.980 --    10 N    1.346    17 C    1.261     8 C    1.190
    10   7 N    3.034 --     4 C    1.355     9 C    1.346
    11   6 C    3.980 --    18 C    1.244     7 C    1.209    12 C    1.209
    12   6 C    3.979 --    13 N    1.349    21 C    1.236    11 C    1.209
    13   7 N    3.033 --    14 C    1.352    12 C    1.349
    14   6 C    3.980 --    13 N    1.352    15 C    1.252     8 C    1.190
    15   6 C    3.914 --    16 C    1.440    14 C    1.252    29 H    0.957
    16   6 C    3.966 --    15 C    1.440    17 C    1.428    35 S    0.902
    17   6 C    3.915 --    16 C    1.428     9 C    1.261    28 H    0.964
    18   6 C    3.934 --    19 C    1.418    11 C    1.244    22 O    1.082
    19   6 C    3.941 --    18 C    1.418    20 C    1.328    31 H    0.954
    20   6 C    3.969 --    21 C    1.525    19 C    1.328    25 S    0.908
    21   6 C    3.959 --    20 C    1.525    12 C    1.236    30 H    0.963
    22   8 O    2.260 --    18 C    1.082    42 C    0.979
    23   8 O    2.256 --     2 C    1.079    43 C    0.981
    24  16 S    3.916 --    32 O    1.860    33 O    1.033     6 C    0.911
    25  16 S    3.906 --    39 O    1.843    40 O    1.042    20 C    0.908
    26   1 H    0.992 --     5 C    0.957
    27   1 H    0.997 --     1 C    0.962
    28   1 H    0.995 --    17 C    0.964
    29   1 H    0.992 --    15 C    0.957
    30   1 H    0.995 --    21 C    0.963
    31   1 H    0.994 --    19 C    0.954
    32   8 O    2.043 --    24 S    1.860
    33   8 O    2.160 --    24 S    1.033    34 C    0.980
    34   6 C    3.937 --    33 O    0.980    58 H    0.979    56 H    0.975
                            57 H    0.971
    35  16 S    3.912 --    36 O    1.856    37 O    1.043    16 C    0.902
    36   8 O    2.040 --    35 S    1.856
    37   8 O    2.168 --    35 S    1.043    38 C    0.979
    38   6 C    3.936 --    48 H    0.979    37 O    0.979    47 H    0.975
                            49 H    0.971
    39   8 O    2.026 --    25 S    1.843
    40   8 O    2.168 --    25 S    1.042    41 C    0.980
    41   6 C    3.939 --    40 O    0.980    45 H    0.979    44 H    0.975
                            46 H    0.973
    42   6 C    3.939 --    53 H    0.979    22 O    0.979    54 H    0.976
                            55 H    0.975
    43   6 C    3.941 --    23 O    0.981    50 H    0.979    51 H    0.976
                            52 H    0.975
    44   1 H    0.996 --    41 C    0.975
    45   1 H    0.999 --    41 C    0.979
    46   1 H    0.997 --    41 C    0.973
    47   1 H    0.996 --    38 C    0.975
    48   1 H    0.999 --    38 C    0.979
    49   1 H    0.996 --    38 C    0.971
    50   1 H    0.995 --    43 C    0.979
    51   1 H    0.997 --    43 C    0.976
    52   1 H    0.997 --    43 C    0.975
    53   1 H    0.995 --    42 C    0.979
    54   1 H    0.997 --    42 C    0.976
    55   1 H    0.997 --    42 C    0.975
    56   1 H    0.997 --    34 C    0.975
    57   1 H    0.996 --    34 C    0.971
    58   1 H    0.999 --    34 C    0.979
 ---------------------------------------------------------------------------

Topologies differ in bond orders
Writing corrected topology to xtbtopo.mol

molecular dipole:
                 x           y           z       tot (Debye)
 q only:       -0.899      -0.354      -0.813
   full:       -1.442      -0.644      -1.381       5.332
molecular quadrupole (traceless):
                xx          xy          yy          xz          yz          zz
 q only:        1.304      -7.142      -9.366       0.239      23.025       8.062
  q+dip:       10.884     -13.136      -6.488       3.341      25.667      -4.396
   full:       10.205     -16.818      -7.042      -0.240      31.124      -3.163

           -------------------------------------------------
          |                Geometry Summary                 |
           -------------------------------------------------

      molecular mass/u    :      561.6274254
   center of mass at/Å    :       -0.9874878       0.3135141       0.5538644
  moments of inertia/u·Å² :        0.6448653E+04   0.6604562E+04   0.1204438E+05
rotational constants/cm⁻¹ :        0.2614133E-02   0.2552423E-02   0.1399627E-02

 * 56 selected distances

     #   Z          #   Z                                           value/Å
     1   6 C        2   6 C                                       1.3808201
     2   6 C        3   6 C                                       1.4200323
     3   6 C        4   6 C                                       1.4328741
     4   6 C        5   6 C                                       1.4166836
     1   6 C        6   6 C                                       1.3991025
     5   6 C        6   6 C                                       1.3608259
     3   6 C        7   6 C                                       1.4276836
     7   6 C        8   6 C                                       1.4040042
     8   6 C        9   6 C                                       1.4268342
     4   6 C       10   7 N                                       1.3317721
     9   6 C       10   7 N                                       1.3317038
     7   6 C       11   6 C                                       1.4280648
    11   6 C       12   6 C                                       1.4330522
    12   6 C       13   7 N                                       1.3330837
     8   6 C       14   6 C                                       1.4269414
    13   7 N       14   6 C                                       1.3304631
    14   6 C       15   6 C                                       1.4115047
    15   6 C       16   6 C                                       1.3784256
     9   6 C       17   6 C                                       1.4111668
    16   6 C       17   6 C                                       1.3811241
    11   6 C       18   6 C                                       1.4189977
    18   6 C       19   6 C                                       1.3813684
    19   6 C       20   6 C                                       1.3954069
    12   6 C       21   6 C                                       1.4161013
    20   6 C       21   6 C                                       1.3635315
    18   6 C       22   8 O                                       1.3548728
     2   6 C       23   8 O                                       1.3560759
     5   6 C       26   1 H                                       1.0779756
     1   6 C       27   1 H                                       1.0780618
    17   6 C       28   1 H                                       1.0780662
    15   6 C       29   1 H                                       1.0790597
    21   6 C       30   1 H                                       1.0772284 (min)
    19   6 C       31   1 H                                       1.0788870
    24  16 S       32   8 O                                       1.4467292
    33   8 O       34   6 C                                       1.4042081
    35  16 S       36   8 O                                       1.4482683
    37   8 O       38   6 C                                       1.4042140
    25  16 S       39   8 O                                       1.4518170 (max)
    40   8 O       41   6 C                                       1.4031419
    22   8 O       42   6 C                                       1.4083005
    23   8 O       43   6 C                                       1.4072283
    41   6 C       44   1 H                                       1.0890948
    41   6 C       45   1 H                                       1.0953053
    41   6 C       46   1 H                                       1.0955158
    38   6 C       47   1 H                                       1.0891306
    38   6 C       48   1 H                                       1.0948313
Note: The following floating-point exceptions are signalling: IEEE_UNDERFLOW_FLAG
normal termination of xtb
    38   6 C       49   1 H                                       1.0951874
    43   6 C       50   1 H                                       1.0892218
    43   6 C       51   1 H                                       1.0945851
    43   6 C       52   1 H                                       1.0943060
    42   6 C       53   1 H                                       1.0891470
    42   6 C       54   1 H                                       1.0941264
    42   6 C       55   1 H                                       1.0941575
    34   6 C       56   1 H                                       1.0891620
    34   6 C       57   1 H                                       1.0948990
    34   6 C       58   1 H                                       1.0949254

 * 5 distinct bonds (by element types)

   Z      Z             #   av. dist./Å        max./Å        min./Å
   1 H    6 C          21     1.0887083     1.0955158     1.0772284
   6 C    6 C          21     1.4054546     1.4330522     1.3608259
   6 C    7 N           4     1.3317557     1.3330837     1.3304631
   6 C    8 O           7     1.3911488     1.4083005     1.3548728
   8 O   16 S           3     1.4489382     1.4518170     1.4467292


optimized geometry written to: xtbopt.mol


           -------------------------------------------------
          | TOTAL ENERGY             -110.210595618232 Eh   |
          | GRADIENT NORM               0.000454095298 Eh/α |
          | HOMO-LUMO GAP               1.701404991300 eV   |
           -------------------------------------------------
########################################################################
[WARNING] Runtime exception occurred
-3- restart_readRestart: Dimension missmatch in restart file.
-2- restart_readRestart: Multiplicity missmatch in restart file.
-1- restart_readRestart: Number of electron missmatch in restart file.
########################################################################

------------------------------------------------------------------------
 * finished run on 2024/12/02 at 11:40:29.922     
------------------------------------------------------------------------
 total:
 * wall-time:     0 d,  0 h,  0 min,  4.151 sec
 *  cpu-time:     0 d,  0 h,  0 min, 10.251 sec
[...]
    42   6 C       54   1 H                                       1.0938478
    42   6 C       55   1 H                                       1.0939826
    34   6 C       56   1 H                                       1.0889657
    34   6 C       57   1 H                                       1.0943462
    34   6 C       58   1 H                                       1.0924952
    59   6 C       60   6 C                                       1.3810845
    60   6 C       61   6 C                                       1.4200018
    61   6 C       62   6 C                                       1.4306532
    62   6 C       63   6 C                                       1.4159734
    59   6 C       64   6 C                                       1.3980299
    63   6 C       64   6 C                                       1.3606209
    61   6 C       65   6 C                                       1.4294055
    65   6 C       66   6 C                                       1.4039848
    66   6 C       67   6 C                                       1.4248225
    62   6 C       68   7 N                                       1.3334850
    67   6 C       68   7 N                                       1.3308132
    65   6 C       69   6 C                                       1.4278626
    69   6 C       70   6 C                                       1.4327150
    70   6 C       71   7 N                                       1.3336160
    66   6 C       72   6 C                                       1.4276769
    71   7 N       72   6 C                                       1.3270407
    72   6 C       73   6 C                                       1.4144897
    73   6 C       74   6 C                                       1.3731589
    67   6 C       75   6 C                                       1.4121253
    74   6 C       75   6 C                                       1.3849365
    69   6 C       76   6 C                                       1.4193728
    76   6 C       77   6 C                                       1.3807795
    77   6 C       78   6 C                                       1.3954933
    70   6 C       79   6 C                                       1.4160042
    78   6 C       79   6 C                                       1.3636816
    76   6 C       80   8 O                                       1.3564242
    60   6 C       81   8 O                                       1.3547229
    63   6 C       84   1 H                                       1.0777350
    59   6 C       85   1 H                                       1.0771981
    75   6 C       86   1 H                                       1.0781888
    73   6 C       87   1 H                                       1.0785470
    79   6 C       88   1 H                                       1.0771417
    77   6 C       89   1 H                                       1.0789780
    82  16 S       90   8 O                                       1.4528360 (max)
    91   8 O       92   6 C                                       1.4037290
    93  16 S       94   8 O                                       1.4468968
    95   8 O       96   6 C                                       1.4075881
    83  16 S       97   8 O                                       1.4520601
    98   8 O       99   6 C                                       1.4032353
    80   8 O      100   6 C                                       1.4081309
    81   8 O      101   6 C                                       1.4069111
    99   6 C      102   1 H                                       1.0890846
    99   6 C      103   1 H                                       1.0951787
    99   6 C      104   1 H                                       1.0955853
    96   6 C      105   1 H                                       1.0895345
    96   6 C      106   1 H                                       1.0914817
    96   6 C      107   1 H                                       1.0948011
   101   6 C      108   1 H                                       1.0893046
   101   6 C      109   1 H                                       1.0935176
   101   6 C      110   1 H                                       1.0945044
   100   6 C      111   1 H                                       1.0892410
   100   6 C      112   1 H                                       1.0941837
   100   6 C      113   1 H                                       1.0943941
    92   6 C      114   1 H                                       1.0895083
    92   6 C      115   1 H                                       1.0946066
    92   6 C      116   1 H                                       1.0949131

 * 5 distinct bonds (by element types)

   Z      Z             #   av. dist./Å        max./Å        min./Å
   1 H    6 C          42     1.0884104     1.0955853     1.0770181
   6 C    6 C          42     1.4055008     1.4350955     1.3602665
   6 C    7 N           8     1.3307903     1.3336160     1.3270407
   6 C    8 O          14     1.3921140     1.4112654     1.3547229
   8 O   16 S           6     1.4502539     1.4528360     1.4468501


optimized geometry written to: xtbopt.mol


           -------------------------------------------------
          | TOTAL ENERGY             -220.471201125048 Eh   |
          | GRADIENT NORM               0.000399256311 Eh/α |
          | HOMO-LUMO GAP               1.521725261787 eV   |
           -------------------------------------------------
########################################################################
[WARNING] Runtime exception occurred
-3- restart_readRestart: Dimension missmatch in restart file.
-2- restart_readRestart: Multiplicity missmatch in restart file.
-1- restart_readRestart: Number of electron missmatch in restart file.
########################################################################

------------------------------------------------------------------------
 * finished run on 2024/12/02 at 11:41:09.770     
------------------------------------------------------------------------
 total:
 * wall-time:     0 d,  0 h,  0 min, 22.613 sec
 *  cpu-time:     0 d,  0 h,  1 min,  5.025 sec
 * ratio c/w:     2.875 speedup
 SCF:
 * wall-time:     0 d,  0 h,  0 min,  1.159 sec
 *  cpu-time:     0 d,  0 h,  0 min,  3.892 sec
Note: The following floating-point exceptions are signalling: IEEE_UNDERFLOW_FLAG
normal termination of xtb
 * ratio c/w:     3.357 speedup
 ANC optimizer:
 * wall-time:     0 d,  0 h,  0 min, 21.433 sec
 *  cpu-time:     0 d,  0 h,  1 min,  1.094 sec
 * ratio c/w:     2.850 speedup

Running optimization for loose_opt_dimer.mol
      -----------------------------------------------------------      
     |                   =====================                   |     
     |                           x T B                           |     
     |                   =====================                   |     
     |                         S. Grimme                         |     
     |          Mulliken Center for Theoretical Chemistry        |     
     |                    University of Bonn                     |     
      -----------------------------------------------------------      

   * xtb version 6.7.1 (edcfbbe) compiled by 'runner@Mac-1732539442253.local' on 2024-11-25

   xtb is free software: you can redistribute it and/or modify it under
   the terms of the GNU Lesser General Public License as published by
   the Free Software Foundation, either version 3 of the License, or
   (at your option) any later version.
   
   xtb is distributed in the hope that it will be useful,
   but WITHOUT ANY WARRANTY; without even the implied warranty of
   MERCHANTABILITY or FITNESS FOR A PARTICULAR PURPOSE.  See the
   GNU Lesser General Public License for more details.
   
   Cite this work as:
   * C. Bannwarth, E. Caldeweyher, S. Ehlert, A. Hansen, P. Pracht,
     J. Seibert, S. Spicher, S. Grimme, WIREs Comput. Mol. Sci., 2020, 11,
     e01493. DOI: 10.1002/wcms.1493
   
   for GFN2-xTB:
   * C. Bannwarth, S. Ehlert and S. Grimme., J. Chem. Theory Comput., 2019,
     15, 1652-1671. DOI: 10.1021/acs.jctc.8b01176
   for GFN1-xTB:
   * S. Grimme, C. Bannwarth, P. Shushkov, J. Chem. Theory Comput., 2017,
     13, 1989-2009. DOI: 10.1021/acs.jctc.7b00118
   for GFN0-xTB:
   * P. Pracht, E. Caldeweyher, S. Ehlert, S. Grimme, ChemRxiv, 2019, preprint.
     DOI: 10.26434/chemrxiv.8326202.v1
   for GFN-FF:
   * S. Spicher and S. Grimme, Angew. Chem. Int. Ed., 2020, 59, 15665-15673.
     DOI: 10.1002/anie.202004239
   
   for ALPB and GBSA implicit solvation:
   * S. Ehlert, M. Stahn, S. Spicher, S. Grimme, J. Chem. Theory Comput.,
     2021, 17, 4250-4261. DOI: 10.1021/acs.jctc.1c00471
   
   for ddCOSMO and CPCM-X implicit solvation:
   * M. Stahn, S. Ehlert, S. Grimme, J. Phys. Chem. A,
     2023, XX, XXXX-XXXX. DOI: 10.1021/acs.jpca.3c04382
   
   for DFT-D4:
   * E. Caldeweyher, C. Bannwarth and S. Grimme, J. Chem. Phys., 2017,
     147, 034112. DOI: 10.1063/1.4993215
   * E. Caldeweyher, S. Ehlert, A. Hansen, H. Neugebauer, S. Spicher,
     C. Bannwarth and S. Grimme, J. Chem. Phys., 2019, 150, 154122.
     DOI: 10.1063/1.5090222
   * E. Caldeweyher, J.-M. Mewes, S. Ehlert and S. Grimme, Phys. Chem. Chem. Phys.
     2020, 22, 8499-8512. DOI: 10.1039/D0CP00502A
   
   for sTDA-xTB:
   * S. Grimme and C. Bannwarth, J. Chem. Phys., 2016, 145, 054103.
     DOI: 10.1063/1.4959605
   
   in the mass-spec context:
   * V. Asgeirsson, C. Bauer and S. Grimme, Chem. Sci., 2017, 8, 4879.
     DOI: 10.1039/c7sc00601b
   * J. Koopman and S. Grimme, ACS Omega 2019, 4, 12, 15120-15133.
     DOI: 10.1021/acsomega.9b02011
   
   for metadynamics refer to:
   * S. Grimme, J. Chem. Theory Comput., 2019, 155, 2847-2862
     DOI: 10.1021/acs.jctc.9b00143
   
   for SPH calculations refer to:
   * S. Spicher and S. Grimme, J. Chem. Theory Comput., 2021, 17, 1701-1714
     DOI: 10.1021/acs.jctc.0c01306
   
   for ONIOM refer to:
   * C. Plett, A. Katbashev, S. Ehlert, S. Grimme, M. Bursch,
     Phys. Chem. Chem. Phys., 2023, 25, 17860-17868. DOI: 10.1039/D3CP02178E
   
   for DIPRO refer to:
   * J. Kohn, N. Gildemeister, S. Grimme, D. Fazzi, A. Hansen,
     J. Chem. Phys., 2023, just accepted.
   
   for PTB refer to:
   * S. Grimme, M. Mueller, A. Hansen, J. Chem. Phys., 2023, 158, 124111.
     DOI: 10.1063/5.0137838
   
   with help from (in alphabetical order)
   P. Atkinson, C. Bannwarth, F. Bohle, G. Brandenburg, E. Caldeweyher
   M. Checinski, S. Dohm, S. Ehlert, S. Ehrlich, I. Gerasimov, C. Hölzer
   A. Katbashev, J. Kohn, J. Koopman, C. Lavigne, S. Lehtola, F. März, M. Müller,
   F. Musil, H. Neugebauer, J. Pisarek, C. Plett, P. Pracht, F. Pultar,
   J. Seibert, P. Shushkov, S. Spicher, M. Stahn, M. Steiner, T. Strunk,
   J. Stückrath, T. Rose, and J. Unsleber
   
 * started run on 2024/12/02 at 11:41:09.806     
   ID    Z sym.   atoms
    1    6 C      1-9, 11, 12, 14-21, 34, 38, 41-43, 59-67, 69, 70, 72-79,
                  92, 96, 99-101
    2    7 N      10, 13, 68, 71
    3    8 O      22, 23, 32, 33, 36, 37, 39, 40, 80, 81, 90, 91, 94, 95, 97,
                  98
    4   16 S      24, 25, 35, 82, 83, 93
    5    1 H      26-31, 44-58, 84-89, 102-116

           -------------------------------------------------
          |                Calculation Setup                |
           -------------------------------------------------

          program call               : xtb opt_dimer.mol --dipro 0.3 --gfn 2 --chrg 0 --uhf 2
          coordinate file            : opt_dimer.mol
          omp threads                :                     8


molecular fragmentation (1/2 indicates fragments):
111111111111111111111111111111111111111111111111111111111122222222222222
22222222222222222222222222222222222222222222
# atoms in fragment 1/2:    58    58
 fragment masses (1/2) :      561.63      561.63
CMA distance (Bohr)    :  10.997
constraining FC (au)   :  0.0500

           -------------------------------------------------
          |                 G F N 2 - x T B                 |
           -------------------------------------------------

        Reference                      10.1021/acs.jctc.8b01176
      * Hamiltonian:
        H0-scaling (s, p, d)           1.850000    2.230000    2.230000
        zeta-weighting                 0.500000
      * Dispersion:
        s8                             2.700000
        a1                             0.520000
        a2                             5.000000
        s9                             5.000000
      * Repulsion:
        kExp                           1.500000    1.000000
        rExp                           1.000000
      * Coulomb:
        alpha                          2.000000
        third order                    shell-resolved
        anisotropic                    true
        a3                             3.000000
        a5                             4.000000
        cn-shift                       1.200000
        cn-exp                         4.000000
        max-rad                        5.000000

q/qsh data taken from xtbrestart
CAMM data taken from xtbrestart
           -------------------------------------------------
          |                    D I P R O                    |
           -------------------------------------------------
Calculation for dimer 
--------------------- 
  
charge of dimer :   0.
unpaired e- of dimer :  2
repulsion energy          2.5263622676855E+00 Eh
dispersion energy         1.0824822468254E-02 Eh
number of electrons       3.8600000000000E+02 e
integral cutoff           1.8403572253217E+01 bohr

------------------------------------------------------------
  cycle        total energy    energy error   density error
------------------------------------------------------------
      1     -219.5537277386  -2.2209091E+02   2.2053789E-01
      2     -220.3139620656  -7.6023433E-01   1.0565310E-01
      3     -220.2460255190   6.7936547E-02   5.4962359E-02
      4     -220.3560288480  -1.1000333E-01   3.0021926E-02
      5     -220.4341689443  -7.8140096E-02   1.4297171E-02
      6     -220.4485162532  -1.4347309E-02   9.7437054E-03
      7     -220.4677138765  -1.9197623E-02   5.2650571E-03
      8     -220.4701026243  -2.3887478E-03   3.1200668E-03
      9     -220.4707512425  -6.4861817E-04   1.9815760E-03
     10     -220.4710488987  -2.9765628E-04   1.0766909E-03
     11     -220.4711134037  -6.4504995E-05   6.0133283E-04
     12     -220.4711545505  -4.1146785E-05   2.7066911E-04
     13     -220.4711648666  -1.0316122E-05   1.2879952E-04
     14     -220.4711656097  -7.4303099E-07   7.9235009E-05
     15     -220.4711663410  -7.3132486E-07   3.7825599E-05
     16     -220.4711664496  -1.0857144E-07   1.6983055E-05
------------------------------------------------------------

electronic energy        -2.2300835353971E+02 Eh
total energy             -2.2047116644956E+02 Eh

 total:                                   1.084 sec
 - repulsion                              0.000 sec (  0%)
 - dispersion                             0.003 sec (  0%)
 - coulomb                                0.002 sec (  0%)
 - hamiltonian                            0.006 sec (  0%)
 - scc                                    1.073 sec ( 98%)

Found 2 fragments!
Fragment 1:  1-58
Fragment 2:  59-116

[Info] Fragment spin read from .UHFfrag
Calculation for fragment 1
 ------------------------------
   
charge of fragment :   0.
unpaired e- of fragment :  1
------------------------------------------------------------
  cycle        total energy    energy error   density error
------------------------------------------------------------
      1     -109.7556384989  -1.1101983E+02   2.2061006E-01
      2     -110.1432625267  -3.8762403E-01   1.0396818E-01
      3     -110.1343954283   8.8670984E-03   5.1086495E-02
      4     -110.1810604230  -4.6664995E-02   2.6583759E-02
      5     -110.2054539286  -2.4393506E-02   1.0153834E-02
      6     -110.2080785684  -2.6246398E-03   5.1564186E-03
      7     -110.2087880824  -7.0951403E-04   2.8582499E-03
      8     -110.2091410269  -3.5294449E-04   1.2943896E-03
      9     -110.2091560419  -1.5014953E-05   8.2116301E-04
     10     -110.2091866921  -3.0650204E-05   2.9514356E-04
     11     -110.2091920423  -5.3502263E-06   1.3305275E-04
     12     -110.2091923078  -2.6551844E-07   6.9622827E-05
     13     -110.2091923355  -2.7706903E-08   2.8094216E-05
     14     -110.2091923425  -6.9381088E-09   1.5294596E-05
------------------------------------------------------------

 total:                                   0.282 sec
Calculation for fragment 2
 ------------------------------
   
charge of fragment :   0.
unpaired e- of fragment :  1
------------------------------------------------------------
  cycle        total energy    energy error   density error
------------------------------------------------------------
      1     -109.7496979076  -1.1101364E+02   2.2046278E-01
      2     -110.1412713839  -3.9157348E-01   1.0462557E-01
      3     -110.1357380938   5.5332901E-03   5.0923303E-02
      4     -110.1770709271  -4.1332833E-02   2.7277787E-02
      5     -110.2045120625  -2.7441135E-02   1.0118750E-02
      6     -110.2070380748  -2.5260123E-03   5.2324503E-03
      7     -110.2077277801  -6.8970525E-04   2.7097220E-03
      8     -110.2080424024  -3.1462231E-04   1.1301634E-03
      9     -110.2080350381   7.3643109E-06   7.0196848E-04
     10     -110.2080571748  -2.2136670E-05   2.7107459E-04
     11     -110.2080614873  -4.3125823E-06   1.3913958E-04
     12     -110.2080619711  -4.8372699E-07   7.1085861E-05
     13     -110.2080620041  -3.3074400E-08   2.9862531E-05
     14     -110.2080620156  -1.1456621E-08   1.6724460E-05
------------------------------------------------------------

 total:                                   0.299 sec
   
   ::::::::::::::::::::::::::::::::::::::::::::::
   ::     D I P R O      C O U P L I N G S     ::
   ::::::::::::::::::::::::::::::::::::::::::::::
   
energy threshhold for near-degenerate orbitals near HOMO and LUMO considered for DIPRO:  0.300 eV
no. of orbitals within energy window of frag 1         2
no. of orbitals within energy window of frag 2         2
   
  Fragment 1 SOMO   Fragment 2 SOMO 
--------------------------------------
E_mon(orb) frag1 frag2             -10.231   -10.146 eV
J(AB):                0.014 eV
S(AB):            -0.00064093 Eh
|J(AB,eff)|:            0.007 eV
   
  Fragment 1 SOMO   Fragment 2 LUMO 
--------------------------------------
E_mon(orb) frag1 frag2             -10.231    -9.840 eV
J(AB):                0.004 eV
S(AB):            -0.00022995 Eh
|J(AB,eff)|:            0.002 eV
   
  Fragment 1 LUMO   Fragment 2 SOMO 
--------------------------------------
E_mon(orb) frag1 frag2              -9.913   -10.146 eV
J(AB):               -0.030 eV
S(AB):             0.00131630 Eh
|J(AB,eff)|:            0.016 eV
   
  Fragment 1 LUMO   Fragment 2 LUMO 
--------------------------------------
E_mon(orb) frag1 frag2              -9.913    -9.840 eV
J(AB):                0.057 eV
S(AB):            -0.00203821 Eh
|J(AB,eff)|:            0.037 eV
   
..............................................................................
:  total |J(AB,eff)| for hole transport (occ. MOs) :               0.007 eV  :
:  total |J(AB,eff)| for charge transport (unocc. MOs) :           0.037 eV  :
:  total |J(AB,eff)| for charge transfer (CT) :                    0.016 eV  :
..............................................................................
  
 Please remember, DIPRO is not available for restart!
   
normal termination of dipro
----------------------------------------------------------
 * finished run on 2024/12/02 at 11:41:11.488     
----------------------------------------------------------
 dipro:
 * wall-time:     0 d,  0 h,  0 min,  1.677 sec
 *  cpu-time:     0 d,  0 h,  0 min,  5.110 sec
 * ratio c/w:     3.047 speedup
