116
 energy: -220.376298437139 gnorm: 0.238683933330 xtb: 6.7.1 (edcfbbe)
C           -1.95300000000000        1.63160000000000       -2.11970000000000
C           -1.76070000000000        0.65350000000000       -1.15140000000000
C           -0.96810000000000        0.98550000000000        0.00330000000000
C           -0.14150000000000        2.14510000000000       -0.04460000000000
C           -0.36630000000000        3.08010000000000       -1.06690000000000
C           -1.28370000000000        2.84300000000000       -2.05060000000000
C           -0.87450000000000        0.15230000000000        1.16380000000000
C            0.27420000000000        0.30790000000000        1.94650000000000
C            1.14030000000000        1.41950000000000        1.72290000000000
N            0.87280000000000        2.37850000000000        0.81630000000000
C           -1.84730000000000       -0.78630000000000        1.63500000000000
C           -1.43380000000000       -1.72710000000000        2.62260000000000
N           -0.23030000000000       -1.69180000000000        3.23740000000000
C            0.56760000000000       -0.64370000000000        2.96570000000000
C            1.74980000000000       -0.48320000000000        3.69500000000000
C            2.58660000000000        0.58420000000000        3.46710000000000
C            2.29030000000000        1.53140000000000        2.51330000000000
C           -3.24220000000000       -0.71360000000000        1.28900000000000
C           -4.08670000000000       -1.72650000000000        1.72940000000000
C           -3.64430000000000       -2.69780000000000        2.61100000000000
C           -2.35140000000000       -2.69900000000000        3.05340000000000
O           -3.72410000000000        0.43230000000000        0.65600000000000
O           -2.22750000000000       -0.65120000000000       -1.28100000000000
S           -1.60740000000000        4.13490000000000       -3.27240000000000
S           -4.80730000000000       -3.94010000000000        3.22740000000000
H            0.17990000000000        4.00720000000000       -1.06740000000000
H           -2.61640000000000        1.45990000000000       -2.94660000000000
H            2.96210000000000        2.35430000000000        2.34680000000000
H            2.01930000000000       -1.21690000000000        4.43410000000000
H           -2.02500000000000       -3.44350000000000        3.75550000000000
H           -5.12140000000000       -1.74160000000000        1.44170000000000
O           -0.91700000000000        5.28440000000000       -2.56740000000000
O           -3.21160000000000        4.40810000000000       -2.84530000000000
C           -3.33540000000000        4.98920000000000       -1.59050000000000
S            4.10920000000000        0.71870000000000        4.42800000000000
O            4.27430000000000       -0.74390000000000        4.78120000000000
O            5.15720000000000        0.86070000000000        3.12220000000000
C            5.23080000000000       -0.30670000000000        2.37370000000000
O           -5.58560000000000       -4.15790000000000        1.94940000000000
O           -3.73080000000000       -5.22880000000000        3.19580000000000
C           -3.46120000000000       -5.65010000000000        1.90040000000000
C           -5.02730000000000        0.33130000000000        0.13270000000000
C           -2.86450000000000       -0.93960000000000       -2.50090000000000
H           -2.81550000000000       -6.53170000000000        1.93860000000000
H           -2.96360000000000       -4.84950000000000        1.34620000000000
H           -4.40880000000000       -5.90130000000000        1.41270000000000
H            5.99800000000000       -0.18540000000000        1.60400000000000
H            4.26480000000000       -0.50740000000000        1.90280000000000
H            5.49810000000000       -1.13380000000000        3.03900000000000
H           -3.14170000000000       -1.99430000000000       -2.50060000000000
H           -2.17960000000000       -0.75100000000000       -3.32860000000000
H           -3.76620000000000       -0.33510000000000       -2.60180000000000
H           -5.21950000000000        1.21680000000000       -0.47430000000000
H           -5.75860000000000        0.28910000000000        0.94010000000000
H           -5.10160000000000       -0.55620000000000       -0.49650000000000
H           -4.37490000000000        5.29160000000000       -1.43870000000000
H           -2.68130000000000        5.86610000000000       -1.53930000000000
H           -3.04990000000000        4.26400000000000       -0.82440000000000
C           -2.24190000000000        2.36020000000000        3.15050000000000
C           -2.15750000000000        1.42700000000000        4.17400000000000
C           -1.10990000000000        1.55810000000000        5.14780000000000
C           -0.13310000000000        2.58040000000000        4.97130000000000
C           -0.31970000000000        3.52610000000000        3.94710000000000
C           -1.34320000000000        3.40470000000000        3.04870000000000
C           -0.90260000000000        0.61940000000000        6.20780000000000
C            0.37420000000000        0.58340000000000        6.77800000000000
C            1.28700000000000        1.65070000000000        6.53720000000000
N            1.01270000000000        2.65770000000000        5.68780000000000
C           -1.83880000000000       -0.33930000000000        6.71760000000000
C           -1.31290000000000       -1.50350000000000        7.35480000000000
N           -0.03670000000000       -1.59560000000000        7.78970000000000
C            0.74660000000000       -0.51350000000000        7.61170000000000
C            1.99400000000000       -0.46210000000000        8.24340000000000
C            2.83180000000000        0.61830000000000        8.08510000000000
C            2.50350000000000        1.64970000000000        7.23200000000000
C           -3.26300000000000       -0.12720000000000        6.75130000000000
C           -4.07630000000000       -1.22650000000000        6.99640000000000
C           -3.53350000000000       -2.44720000000000        7.36670000000000
C           -2.19150000000000       -2.57010000000000        7.61070000000000
O           -3.75320000000000        1.17200000000000        6.61960000000000
O           -3.02810000000000        0.33430000000000        4.19230000000000
S           -1.46860000000000        4.58670000000000        1.68340000000000
S           -4.64320000000000       -3.86660000000000        7.52210000000000
H            0.38860000000000        4.32870000000000        3.84250000000000
H           -2.95990000000000        2.22460000000000        2.36300000000000
H            3.18780000000000        2.46660000000000        7.08910000000000
H            2.29920000000000       -1.27440000000000        8.87920000000000
H           -1.79600000000000       -3.49710000000000        7.98570000000000
H           -5.14320000000000       -1.14800000000000        6.89550000000000
O           -1.65600000000000        5.85130000000000        2.49590000000000
O           -3.05420000000000        4.22050000000000        1.25280000000000
C           -3.97880000000000        4.82050000000000        2.09850000000000
S            4.37020000000000        0.68380000000000        9.03680000000000
O            4.42020000000000       -0.77000000000000        9.46140000000000
O            5.40910000000000        0.68780000000000        7.71450000000000
C            5.57700000000000       -0.58410000000000        7.18700000000000
O           -5.22110000000000       -3.83630000000000        6.11980000000000
O           -3.46480000000000       -5.06000000000000        7.38220000000000
C           -3.01050000000000       -5.21700000000000        6.08060000000000
C           -5.05980000000000        1.36080000000000        7.11050000000000
C           -4.35360000000000        0.65340000000000        3.82860000000000
H           -2.31090000000000       -6.05650000000000        6.04500000000000
H           -2.51150000000000       -4.30320000000000        5.75190000000000
H           -3.86660000000000       -5.41640000000000        5.42960000000000
H            6.24730000000000       -0.52770000000000        6.32410000000000
H            4.60330000000000       -0.97100000000000        6.86890000000000
H            5.99910000000000       -1.23430000000000        7.96000000000000
H           -4.99720000000000       -0.18560000000000        4.09490000000000
H           -4.41770000000000        0.83190000000000        2.75750000000000
H           -4.66940000000000        1.54290000000000        4.37430000000000
H           -5.27230000000000        2.43040000000000        7.11950000000000
H           -5.12900000000000        0.97550000000000        8.12850000000000
H           -5.78170000000000        0.86020000000000        6.46510000000000
H           -4.98900000000000        4.55220000000000        1.77760000000000
H           -3.84400000000000        5.90530000000000        2.04670000000000
H           -3.81240000000000        4.48600000000000        3.12580000000000
116
 energy: -220.415170247775 gnorm: 0.145431238758 xtb: 6.7.1 (edcfbbe)
C           -1.94690485492122        1.62371466600077       -2.12319452911711
C           -1.75984999248417        0.65478314300892       -1.15265980779763
C           -0.97105123779395        0.97206191311342       -0.00703023453645
C           -0.14849681481932        2.13861858428940       -0.04197483788787
C           -0.36492002772494        3.08657054744872       -1.05921259728078
C           -1.27865258877322        2.84366834461873       -2.04121958968421
C           -0.88397787134420        0.15483045311077        1.16038917397356
C            0.26677362383070        0.31071092715046        1.94459293465639
C            1.13524385272715        1.41941722047305        1.71779802527788
N            0.85388481343859        2.36840168202600        0.82032026758279
C           -1.85962063140151       -0.77386903852496        1.63456813693303
C           -1.43636471552165       -1.71872536690432        2.61979906604010
N           -0.23902486539855       -1.67941794027016        3.22397978363499
C            0.55612306126144       -0.63768062581913        2.96866159711792
C            1.74286183762092       -0.48133779198259        3.70435577100017
C            2.57421981029159        0.59358462197162        3.47206200289279
C            2.28622488854707        1.54517246891577        2.51615305365870
C           -3.23975964246267       -0.72102220424407        1.28716788310734
C           -4.08691453504912       -1.71890756798447        1.73683755527464
C           -3.63430430929962       -2.69738119172541        2.61502413553671
C           -2.34436914144227       -2.70064543847574        3.06050112624784
O           -3.70999354153344        0.40409948031999        0.64127831741372
O           -2.22742417483358       -0.63069846147770       -1.27720665391755
S           -1.60086648125083        4.15451406994590       -3.25542608333346
S           -4.81494037278871       -3.94815796381241        3.20856045738605
H            0.19282750355467        4.00831516546240       -1.06434158562010
H           -2.61278041937524        1.45906847211220       -2.95350724045831
H            2.95897596631805        2.36920244590357        2.34597441416633
H            2.01835209329338       -1.22204371892937        4.43796767719631
H           -2.01330666402770       -3.43916883650999        3.77017446001775
H           -5.12297438883994       -1.74870640796922        1.44444557714477
O           -0.88844712031617        5.30027657864812       -2.62441270340164
O           -3.21261313618460        4.39891827675476       -2.85315556598237
C           -3.34825811500078        4.99092904092834       -1.59469012348465
S            4.11309975031291        0.69328341524216        4.42378463544910
O            4.25545151018795       -0.74010159890082        4.79878472500975
O            5.14897655962361        0.86587069284953        3.11728585146300
C            5.23667290503002       -0.30652005852076        2.36333484924902
O           -5.63160835801985       -4.13816246699167        1.97604072828706
O           -3.73343827691952       -5.22949877021148        3.18919577258385
C           -3.45615372777330       -5.66017807253335        1.89153198984152
C           -5.02227492411445        0.32631110646113        0.12870839544496
C           -2.86331967630548       -0.93693193553778       -2.49662080147511
H           -2.81397628005400       -6.53750567331662        1.94913147934488
H           -2.95303330828899       -4.86557917273709        1.33177930080431
H           -4.39535755597620       -5.91145690824821        1.39046910490587
H            6.00612109550485       -0.17287399756390        1.60493050833541
H            4.27585689941340       -0.51946118093532        1.88429345248489
H            5.49973037309141       -1.14149024457398        3.02042660207386
H           -3.13008510731855       -1.99350699053640       -2.47559292755810
H           -2.18599329361011       -0.75662927727152       -3.33610500132471
H           -3.77304154329577       -0.34299832169132       -2.61644080748740
H           -5.19482301261011        1.22179741571587       -0.46932248490272
H           -5.76293751434011        0.29270167962483        0.93317897798493
H           -5.12272277317875       -0.55819051609575       -0.50320356644705
H           -4.38519717529761        5.29237561057990       -1.45866199532039
H           -2.69470882823200        5.86672639366150       -1.52840222947494
H           -3.06676081365777        4.27547209845110       -0.81948196476096
C           -2.23005088908693        2.34298244495526        3.14376174745931
C           -2.15649075701820        1.42679825421918        4.17572695457468
C           -1.11876714590076        1.54658254198387        5.14037330784946
C           -0.13331605990566        2.56898091167235        4.96522582206125
C           -0.30665797383624        3.52475016644436        3.94379479402549
C           -1.32853749128687        3.39582995804100        3.04776900521442
C           -0.91165706909667        0.61834277223124        6.20616428311712
C            0.36810595306930        0.58211370050226        6.77359809317798
C            1.28526084072481        1.64490471422436        6.52237251440375
N            1.00068412712809        2.64448164981376        5.68348652260226
C           -1.85000769327155       -0.32470824436019        6.72469285337985
C           -1.31590237232319       -1.49233794756723        7.35231696589758
N           -0.04583335425257       -1.58195404912972        7.77239008214367
C            0.73883684539235       -0.51226786326942        7.61021811625141
C            1.98888992018549       -0.46564722085331        8.24881635072618
C            2.82181071719372        0.62085862619320        8.08477346584369
C            2.50543465694553        1.65446327103283        7.22548823349770
C           -3.26131102092249       -0.12856117414469        6.75135053205240
C           -4.07504600271067       -1.21801642573847        7.00456830845192
C           -3.52383912283945       -2.44348319755765        7.37175299705530
C           -2.18489665881082       -2.57088036215027        7.61432389512823
O           -3.74404723892232        1.15424840622666        6.62650202336864
O           -3.02402617797682        0.35225501541347        4.21127512177152
S           -1.47001699066475        4.60400604140663        1.69843545503272
S           -4.64238208203431       -3.86838957751360        7.49284750402392
H            0.40129571453470        4.33024932183363        3.84695485272595
H           -2.96374384550701        2.22190750952906        2.36404187451200
H            3.18739707678800        2.47726205821044        7.08647239406747
H            2.29859308643894       -1.28089975912974        8.88307832014441
H           -1.78277302426311       -3.49118872233995        8.00450610319482
H           -5.14533648448774       -1.14682930183494        6.90448201081287
O           -1.61195339907304        5.86664202096698        2.47428878796982
O           -3.04964133032438        4.21545978376682        1.26696366537955
C           -3.98907291762536        4.82343076221158        2.10367923354221
S            4.37186079209378        0.66158087517969        9.03462214150244
O            4.43446762532626       -0.74271262975433        9.53038003836260
O            5.41236701704821        0.69288889225932        7.72112699776825
C            5.59128360796938       -0.58911244170019        7.19347706251321
O           -5.25923819319004       -3.81983880329648        6.13172974190471
O           -3.47271806847181       -5.06350784939568        7.38520726084625
C           -3.00584532679325       -5.22794802412306        6.07938566679517
C           -5.05467671118067        1.35559368982087        7.10937274662749
C           -4.35180748024156        0.66071678516285        3.83458919452921
H           -2.31140797254892       -6.06526865298554        6.06169795748185
H           -2.49789056111175       -4.31955838181646        5.74258923276464
H           -3.84899365390653       -5.42964288178556        5.41472901567515
H            6.25632219792513       -0.51689628715926        6.33557425878594
H            4.63029844624553       -0.99390881521602        6.86740673880191
H            6.01608907344805       -1.24902099414165        7.95293743811221
H           -4.97719304665988       -0.19116585106137        4.10310440397372
H           -4.43198310431336        0.83665969040583        2.76506007073233
H           -4.68637737631598        1.55122583861978        4.36930602073989
H           -5.24624862302694        2.42897731172777        7.11092592776880
H           -5.14149469947704        0.97601192445724        8.13081797726305
H           -5.79290994559907        0.86634219098798        6.46891237246984
H           -4.98698260936602        4.54532562352275        1.76607559576764
H           -3.86496903269964        5.90820212696690        2.05826404295290
H           -3.83700292388132        4.49522180354161        3.13569144613257
116
 energy: -220.435229512064 gnorm: 0.027406384566 xtb: 6.7.1 (edcfbbe)
C           -1.94107307297915        1.62524697965587       -2.13050309273931
C           -1.75540912516196        0.65788529846911       -1.16180626809883
C           -0.97448273615423        0.96164363377754       -0.01851297876641
C           -0.15523593466575        2.13571327674810       -0.03943449019010
C           -0.36707735262430        3.09911697825160       -1.04972294647650
C           -1.27769471618538        2.85303279359613       -2.03113514070677
C           -0.89270256953333        0.15836634339336        1.15733244425266
C            0.25859813987518        0.31611405793364        1.94572233096374
C            1.12701044053732        1.42449340219814        1.71837481876976
N            0.83380642852179        2.36088202812005        0.82540225381919
C           -1.87379696013177       -0.76151091891736        1.63460601262815
C           -1.44275953991248       -1.70809264779037        2.62198135940363
N           -0.25167734752144       -1.66377621698687        3.21534745586233
C            0.54339393530325       -0.63029505803652        2.97347986807185
C            1.73620648710890       -0.47856022660524        3.71114097405227
C            2.56127546779993        0.60154789087561        3.47320150394505
C            2.28175014683622        1.55929485685986        2.52080256004163
C           -3.24269123370474       -0.72703004500972        1.28832646107876
C           -4.08737284538775       -1.72108075409168        1.73844680621993
C           -3.62404187861801       -2.70488712406724        2.61344992555012
C           -2.34038514931780       -2.70303188672674        3.06955041724287
O           -3.70208946744312        0.37373139115736        0.62696999982076
O           -2.22425395888045       -0.60770631002684       -1.28185957551296
S           -1.58830682136335        4.18174354727552       -3.25029336434544
S           -4.83354850003692       -3.95877076648891        3.18848903675263
H            0.20284984782682        4.01350829194153       -1.05532430927813
H           -2.60348325984598        1.46932881107780       -2.96657062504511
H            2.95305496727509        2.38464489797809        2.34828417911588
H            2.01458903204848       -1.22309486112191        4.44113679870081
H           -1.99973082468635       -3.43388546416782        3.78375988130564
H           -5.12549195529515       -1.76443243836815        1.45053814424717
O           -0.86538957787236        5.30006124692351       -2.67371849425769
O           -3.20437192846560        4.38640320170828       -2.86262584769584
C           -3.36106580566268        4.99040195308409       -1.60019046039078
S            4.11644606146443        0.66293917181579        4.42565559498930
O            4.23385224620793       -0.73322429953741        4.81071312780427
O            5.13007462030720        0.86808312363285        3.11343429746275
C            5.24138084651573       -0.30682923585211        2.34989935518173
O           -5.67081517169633       -4.11870774707408        2.00414178758007
O           -3.74189317999397       -5.22716212971052        3.17886489160062
C           -3.45081660704294       -5.67009293186742        1.87969389705402
C           -5.02027074329129        0.32329611548163        0.12203352362394
C           -2.86306736181275       -0.93890330952434       -2.49496046679187
H           -2.81404329425723       -6.54609159348023        1.96053050790263
H           -2.93665967022974       -4.88338517148438        1.31690858800309
H           -4.38181008761339       -5.92120723935177        1.36444414737526
H            6.01742206230631       -0.15554196639802        1.60605075747470
H            4.28821173763441       -0.53090774140352        1.85818331717101
H            5.50203975539139       -1.14775151810763        3.00045467075610
H           -3.11566808521712       -1.99753646884012       -2.44455516935274
H           -2.19402565021947       -0.76674871983983       -3.34529941789804
H           -3.78038244852185       -0.35621122256257       -2.63189551523460
H           -5.16525829440756        1.23012157193528       -0.46561848748790
H           -5.76647885821406        0.29917929991278        0.92536804777580
H           -5.14921986050639       -0.55714775179488       -0.51308540708195
H           -4.39790624189425        5.29302090713230       -1.48809577912799
H           -2.70934092661890        5.86667214534012       -1.52140921348359
H           -3.09044760353896        4.28360959480855       -0.81377459936917
C           -2.21789832404657        2.33184556854008        3.13477189481363
C           -2.15352503908359        1.42557082989615        4.17193225153292
C           -1.12337495175637        1.53320015337146        5.13040025669196
C           -0.12834279300426        2.55475698535518        4.95654634695841
C           -0.29421009535340        3.52445628697260        3.94143256064793
C           -1.31566440276400        3.39198138424726        3.04809943588855
C           -0.91660398114727        0.61644382988507        6.20613026192447
C            0.36674038355152        0.57985993590249        6.77142052771783
C            1.28664796963219        1.63986555030700        6.51274575460450
N            0.99294560103091        2.62813670356177        5.67796104306202
C           -1.86073557381071       -0.31082336530266        6.73348302599645
C           -1.31904502524060       -1.48249935414372        7.35386874909962
N           -0.05506478194193       -1.56918096479447        7.75823570963244
C            0.73495429964237       -0.51337759063769        7.61042683405138
C            1.99122420275817       -0.47318693872759        8.24922792681309
C            2.82052055122041        0.61694923092460        8.07764961051373
C            2.51306277668339        1.65562583366811        7.22044693270619
C           -3.26223057661910       -0.12844373858202        6.76117741615643
C           -4.07363768183004       -1.21635957020189        7.00983096200315
C           -3.51317111711872       -2.44676283699647        7.36889791289360
C           -2.17893887761723       -2.57459338308437        7.61860812078707
O           -3.73909796853764        1.13658038191756        6.63965330965575
O           -3.02390873544022        0.37491107635841        4.22926978240277
S           -1.46692761426611        4.62991990894246        1.71033272989454
S           -4.65335153838313       -3.87338386026665        7.46178411858118
H            0.41472386885212        4.33039400052747        3.85537111520847
H           -2.96035154591609        2.22466844171565        2.35964181968329
H            3.19002935621426        2.48361161795525        7.08380833193495
H            2.30028304334113       -1.28624735937448        8.88821896392132
H           -1.76636362517352       -3.48494284425180        8.02254743261382
H           -5.14613978473994       -1.15516793955714        6.91586123774155
O           -1.56825799140189        5.87504592369763        2.44930360449298
O           -3.04232848582825        4.21337639576020        1.28501604429711
C           -4.00056426032195        4.82671226882806        2.11145821792675
S            4.37796490207606        0.64088557675785        9.04667153069866
O            4.43426653269809       -0.70858723041450        9.58266890863282
O            5.40943445248769        0.69456041046491        7.73768724133677
C            5.60798724142393       -0.59569871978166        7.20449057644431
O           -5.29044696727022       -3.80506106673513        6.14697290153668
O           -3.48769673690669       -5.05942302185956        7.38733746718294
C           -2.99935729084491       -5.24008910975481        6.07969599627230
C           -5.05289654534254        1.35572168903958        7.10895574913321
C           -4.35364326370206        0.66682961378733        3.84010693796850
H           -2.30990357921600       -6.07824840446401        6.08667779712428
H           -2.48018089095842       -4.33863784111692        5.73754910470328
H           -3.82947467141199       -5.44379453632264        5.40093994053486
H            6.27299602249548       -0.50279109484251        6.35216813509892
H            4.65946405900190       -1.01880815146074        6.87046425732298
H            6.03934710310654       -1.25736697435723        7.95648023609358
H           -4.95605887025517       -0.19945154509544        4.11443303539844
H           -4.44547376017319        0.83813643253463        2.77053410073965
H           -4.70699751870306        1.55812665119222        4.36469154636127
H           -5.21668756215300        2.43331170040905        7.10136912347903
H           -5.15783226018523        0.97955117217858        8.13212192624961
H           -5.80324067265930        0.87692395226451        6.47127791048687
H           -4.98559510305299        4.53929460435482        1.75163458992790
H           -3.88433703483748        5.91146680133334        2.07035753141246
H           -3.86666044363473        4.50182748362485        3.14792511874245
116
 energy: -220.441610884189 gnorm: 0.019215149338 xtb: 6.7.1 (edcfbbe)
C           -1.93326383591475        1.63806697144296       -2.13783334331202
C           -1.75375562308871        0.66656812460242       -1.17035235399599
C           -0.98013495479204        0.96865015152731       -0.01957818004101
C           -0.16346941445814        2.14569030020311       -0.03425888168645
C           -0.36845745287356        3.11147776977994       -1.04393159500625
C           -1.27249926972671        2.86545798087321       -2.03099640455754
C           -0.90114950976791        0.16387521015514        1.15758018154986
C            0.24659522775143        0.32579019615952        1.95166052395720
C            1.11401506137545        1.43557736310759        1.72792113581556
N            0.82027428976762        2.37139951897369        0.83459130456322
C           -1.88123516236741       -0.76124724083474        1.63248091110075
C           -1.45213145547545       -1.70265669595240        2.62613751974016
N           -0.26387118064319       -1.65314908902287        3.22247265826421
C            0.53005989985505       -0.61900002685991        2.98090702701937
C            1.72326687819387       -0.46849073243721        3.71675454537807
C            2.54860969933770        0.60918820724684        3.47684287277792
C            2.26945108282138        1.57026732973119        2.52960410604164
C           -3.25043781617748       -0.73754770739249        1.27937806543209
C           -4.09218172991759       -1.73285760307640        1.73642745646171
C           -3.62521424498675       -2.71382039336428        2.61209445446599
C           -2.34366960684924       -2.70393848346137        3.07247268506337
O           -3.70391199114749        0.35551208854698        0.60429681953949
O           -2.22301017886827       -0.59851564249531       -1.28863960078181
S           -1.58323383291144        4.18456499372246       -3.26835555351928
S           -4.84114340262118       -3.96688192822117        3.19158643402988
H            0.20662994055292        4.02225028178887       -1.04216332057129
H           -2.58484280500876        1.48354751557559       -2.98212242515971
H            2.93749217001957        2.39845427444539        2.35908260241595
H            2.00165621465481       -1.21524218652100        4.44395824871513
H           -1.99547665895818       -3.42505657549402        3.79299072583713
H           -5.13031067968054       -1.78265446200941        1.45191667106299
O           -0.84654340328310        5.31136935679281       -2.73856730247527