116
 energy: -220.386039684973 gnorm: 0.244609207567 xtb: 6.7.1 (edcfbbe)
C           -1.67250000000000        2.03370000000000       -1.29790000000000
C           -1.58900000000000        0.92810000000000       -0.45990000000000
C           -0.82130000000000        1.04600000000000        0.75120000000000
C            0.05720000000000        2.15720000000000        0.90150000000000
C           -0.06130000000000        3.22920000000000        0.00360000000000
C           -0.92880000000000        3.17660000000000       -1.04980000000000
C           -0.80850000000000        0.04770000000000        1.77660000000000
C            0.29980000000000        0.04190000000000        2.62840000000000
C            1.21030000000000        1.13920000000000        2.61330000000000
N            1.03580000000000        2.21910000000000        1.82960000000000
C           -1.81090000000000       -0.94290000000000        2.03050000000000
C           -1.43760000000000       -2.07630000000000        2.81150000000000
N           -0.29070000000000       -2.14290000000000        3.52450000000000
C            0.50880000000000       -1.06020000000000        3.50820000000000
C            1.62940000000000       -1.02870000000000        4.34500000000000
C            2.50990000000000        0.02750000000000        4.31710000000000
C            2.30970000000000        1.10010000000000        3.47810000000000
C           -3.19290000000000       -0.78280000000000        1.66140000000000
C           -4.03330000000000       -1.88050000000000        1.78590000000000
C           -3.60120000000000       -3.05320000000000        2.38110000000000
C           -2.34300000000000       -3.14730000000000        2.91140000000000
O           -3.64940000000000        0.48170000000000        1.30100000000000
O           -2.13880000000000       -0.31010000000000       -0.77750000000000
S           -1.07710000000000        4.61240000000000       -2.14100000000000
S           -4.72680000000000       -4.46430000000000        2.48960000000000
H            0.53970000000000        4.11020000000000        0.14890000000000
H           -2.29450000000000        2.00930000000000       -2.17300000000000
H            3.00690000000000        1.91900000000000        3.47270000000000
H            1.81620000000000       -1.85070000000000        5.01320000000000
H           -2.03860000000000       -4.04100000000000        3.42650000000000
H           -5.04820000000000       -1.84010000000000        1.43660000000000
O           -0.14640000000000        5.55200000000000       -1.40290000000000
O           -2.57480000000000        5.13380000000000       -1.57900000000000
C           -2.50810000000000        5.64670000000000       -0.29130000000000
S            3.97370000000000        0.00840000000000        5.37420000000000
O            3.78790000000000       -1.35280000000000        6.00740000000000
O            5.09470000000000       -0.34630000000000        4.17420000000000
C            4.92350000000000       -1.61650000000000        3.64010000000000
O           -5.78540000000000       -3.98480000000000        1.51730000000000
O           -3.83370000000000       -5.50540000000000        1.51830000000000
C           -3.78920000000000       -5.08250000000000        0.19680000000000
C           -5.03070000000000        0.57380000000000        1.04720000000000
C           -2.89350000000000       -0.34610000000000       -1.96280000000000
H           -3.29270000000000       -5.85030000000000       -0.40310000000000
H           -3.23390000000000       -4.14310000000000        0.12710000000000
H           -4.81480000000000       -4.93760000000000       -0.15800000000000
H            5.75840000000000       -1.83100000000000        2.96720000000000
H            3.98340000000000       -1.66100000000000        3.08410000000000
H            4.90970000000000       -2.34390000000000        4.45800000000000
H           -3.29860000000000       -1.35180000000000       -2.08030000000000
H           -2.25340000000000       -0.11790000000000       -2.81580000000000
H           -3.71920000000000        0.36320000000000       -1.89600000000000
H           -5.26750000000000        1.61230000000000        0.81160000000000
H           -5.59310000000000        0.27600000000000        1.93290000000000
H           -5.29210000000000       -0.05360000000000        0.19470000000000
H           -3.47720000000000        6.07930000000000       -0.02790000000000
H           -1.73040000000000        6.41700000000000       -0.25650000000000
H           -2.26370000000000        4.84080000000000        0.40480000000000
C           -2.93350000000000        1.17220000000000        4.34540000000000
C           -2.45620000000000        0.55470000000000        5.49240000000000
C           -1.33420000000000        1.14960000000000        6.16520000000000
C           -0.57520000000000        2.15420000000000        5.49880000000000
C           -1.11220000000000        2.72640000000000        4.33330000000000
C           -2.27710000000000        2.25790000000000        3.79250000000000
C           -0.86590000000000        0.69720000000000        7.43700000000000
C            0.46580000000000        0.97980000000000        7.75040000000000
C            1.19410000000000        1.92030000000000        6.96380000000000
N            0.65410000000000        2.55010000000000        5.90140000000000
C           -1.62040000000000       -0.00460000000000        8.43090000000000
C           -0.89460000000000       -0.72710000000000        9.42280000000000
N            0.43480000000000       -0.57780000000000        9.62280000000000
C            1.07240000000000        0.33960000000000        8.86990000000000
C            2.39370000000000        0.67640000000000        9.17860000000000
C            3.08420000000000        1.61130000000000        8.44280000000000
C            2.50590000000000        2.22440000000000        7.35110000000000
C           -3.05020000000000        0.09830000000000        8.55240000000000
C           -3.69220000000000       -0.76170000000000        9.43220000000000
C           -2.97740000000000       -1.60560000000000       10.26450000000000
C           -1.60920000000000       -1.57390000000000       10.28830000000000
O           -3.71300000000000        1.10290000000000        7.85400000000000
O           -2.95850000000000       -0.65060000000000        5.97240000000000
S           -2.97260000000000        3.02100000000000        2.30890000000000
S           -3.87300000000000       -2.74580000000000       11.34630000000000
H           -0.59240000000000        3.53450000000000        3.84950000000000
H           -3.79950000000000        0.79150000000000        3.83790000000000
H            3.06260000000000        2.94730000000000        6.78240000000000
H            2.87540000000000        0.21060000000000       10.02020000000000
H           -1.06610000000000       -2.19340000000000       10.97960000000000
H           -4.76440000000000       -0.79020000000000        9.49150000000000
O           -2.21480000000000        4.32850000000000        2.33360000000000
O           -4.44260000000000        3.48960000000000        2.96880000000000
C           -4.28480000000000        4.41200000000000        3.99560000000000
S            4.77300000000000        2.03730000000000        8.93510000000000
O            4.91020000000000        1.06740000000000       10.09110000000000
O            5.54140000000000        1.19180000000000        7.69850000000000
C            5.62910000000000       -0.16920000000000        7.96350000000000
O           -5.21590000000000       -2.71690000000000       10.64530000000000
O           -3.21040000000000       -4.16090000000000       10.72840000000000
C           -3.62000000000000       -4.40780000000000        9.42480000000000
C           -5.09990000000000        1.17250000000000        8.07590000000000
C           -4.07630000000000       -1.14550000000000        5.28420000000000
H           -3.24170000000000       -5.38580000000000        9.11450000000000
H           -3.22830000000000       -3.63240000000000        8.76060000000000
H           -4.71450000000000       -4.40600000000000        9.39660000000000
H            6.20120000000000       -0.64970000000000        7.16430000000000
H            4.62230000000000       -0.59690000000000        8.00180000000000
H            6.13030000000000       -0.30980000000000        8.92650000000000
H           -4.39760000000000       -2.07040000000000        5.76420000000000
H           -3.79440000000000       -1.35530000000000        4.25410000000000
H           -4.88910000000000       -0.41950000000000        5.32430000000000
H           -5.50060000000000        1.99580000000000        7.48360000000000
H           -5.29640000000000        1.36470000000000        9.13140000000000
H           -5.57270000000000        0.24270000000000        7.75750000000000
H           -5.26940000000000        4.78270000000000        4.29370000000000
H           -3.67140000000000        5.24270000000000        3.63230000000000
H           -3.79840000000000        3.93640000000000        4.85160000000000
116
 energy: -220.425919625664 gnorm: 0.148230233080 xtb: 6.7.1 (edcfbbe)
C           -1.66775373688527        2.02650532482343       -1.30080707010933
C           -1.58944561534443        0.93050421135581       -0.45880228772636
C           -0.83133216559294        1.03881684744723        0.74454568395955
C            0.05056255558760        2.15214528888784        0.90404285203389
C           -0.05668409949470        3.23356809840958        0.00998891556894
C           -0.92339095550719        3.17519022000125       -1.04007386635507
C           -0.81819380571004        0.05146552559503        1.77504408896057
C            0.29286019945711        0.04455542555819        2.62729161126789
C            1.20692772025380        1.13998787365561        2.60802300614611
N            1.02056166046055        2.20625049763422        1.82647564833762
C           -1.82308757340771       -0.92940190775705        2.03441076525208
C           -1.43946923101179       -2.06712536709202        2.81129858918393
N           -0.29530209408964       -2.13102199511611        3.50894793780010
C            0.50033066575539       -1.05711612954598        3.50880028530501
C            1.62529798326889       -1.03062248433306        4.35061122350047
C            2.50169687416188        0.03286791141945        4.31964522258994
C            2.30983611046959        1.11047800970879        3.47974783322271
C           -3.19094875359466       -0.78509007233651        1.66004015400800
C           -4.03287581079870       -1.87375201382093        1.78934502191422
C           -3.58897672896132       -3.05346300850869        2.37874075912044
C           -2.33595932249114       -3.15206150378572        2.91605676463259
O           -3.63975656457825        0.46444974836044        1.29680937919374
O           -2.14174800321378       -0.28981622961949       -0.76662581933892
S           -1.06732349469399        4.62815111741741       -2.12266189374518
S           -4.73592276341937       -4.45862058822174        2.46453240185598
H            0.55364655285370        4.11035568020058        0.15138715174765
H           -2.29201940297228        2.01024373188216       -2.17812269265112
H            3.00728213482936        1.93110325287520        3.47143086550629
H            1.81611407056164       -1.85629442083818        5.01760398490180
H           -2.02884418122319       -4.04179840717481        3.43955216066463
H           -5.05155947320244       -1.84591417341642        1.44052634776052
O           -0.11701689921038        5.56938702668058       -1.46847045229711
O           -2.57796579123648        5.12473973224141       -1.58855683596376
C           -2.51870948231531        5.65495209813759       -0.29545721401294
S            3.96994644528631       -0.01552737108478        5.38204439875076
O            3.77815970559908       -1.33324353486311        6.04869415724830
O            5.08275689381765       -0.33930250620177        4.17048137525451
C            4.92803633773232       -1.61845667502732        3.63259607673129
O           -5.82389171904219       -3.99142597495515        1.55724711022349
O           -3.82677823458871       -5.50184843290874        1.51896879453516
C           -3.78256684688436       -5.08849798328649        0.18683028872585
C           -5.02406026847171        0.57298935475877        1.04492526706105
C           -2.89220139445228       -0.34437567685616       -1.95771248235767
H           -3.28962569896360       -5.86303280304345       -0.39772465101187
H           -3.22628444446179       -4.14889473514980        0.10394636008802
H           -4.80410502957417       -4.93722642112952       -0.17690536006533
H            5.76815635865943       -1.81923526689780        2.96909267650996
H            3.99063706715824       -1.67961823774902        3.07083480228640
H            4.90997348198328       -2.35342544570075        4.44361886882903
H           -3.28523543223705       -1.35626871529713       -2.05729901320845
H           -2.26018538890673       -0.12299365685069       -2.82210965504858
H           -3.72717326714190        0.35959442172646       -1.91184383126080
H           -5.23932843887186        1.61665949070345        0.81614267744235
H           -5.60149080971815        0.27922554052056        1.92598314679965
H           -5.30692567783779       -0.04970435844937        0.19297011815931
H           -3.48764644882034        6.08350256025628       -0.04757981997792
H           -1.74495419985375        6.42638596279710       -0.24738134788807
H           -2.27128327576290        4.86654924649892        0.41669732705989
C           -2.92757647342410        1.15745264710365        4.34267582127677
C           -2.45398077849456        0.55199308426161        5.49057413336744
C           -1.33884838218083        1.13227663146611        6.16029277673856
C           -0.57512548473579        2.14169557994866        5.49768958825260
C           -1.10343434188095        2.72581954962237        4.32825052649751
C           -2.26754310671794        2.25374039710321        3.79681099497633
C           -0.87479791690498        0.69527403166844        7.43514556391192
C            0.45929378436519        0.97725585314607        7.74801640533822
C            1.19026444041283        1.91047902565314        6.95397466781708
N            0.64127135431302        2.53650222317328        5.90673773379348
C           -1.63221010231083        0.00807933828429        8.43106866591505
C           -0.89795911093488       -0.71943530289777        9.41892444609269
N            0.42235461197095       -0.57366839336338        9.60640634716809
C            1.06361327384751        0.33963097166227        8.87070833371505
C            2.39019724031386        0.67328193986763        9.18464916607094
C            3.07415665963565        1.61109860937320        8.44190741852998
C            2.50702122193566        2.22340552100769        7.34056446556845
C           -3.04886633662831        0.09822016429483        8.55399303431665
C           -3.69117456240659       -0.75069187579311        9.43575591288310
C           -2.96738288868770       -1.60191247835172       10.26319266403152
C           -1.60129533309247       -1.57423534893271       10.29396151112639
O           -3.70448442199764        1.08335856983563        7.85673020969354
O           -2.95762317216593       -0.62993998860061        5.97463186248534
S           -2.95846233948346        3.03584327142978        2.31924519069369
S           -3.88967308285392       -2.75038663126124       11.32642984116158
H           -0.58307284963896        3.53778722956558        3.84732206628263
H           -3.80553805072735        0.79303957384834        3.83979557889894
H            3.06074516827850        2.95468073566975        6.77482895820189
H            2.87516262053398        0.20672862206704       10.02727086856571
H           -1.05266033092606       -2.18845018132757       10.98822100051717
H           -4.76561246054708       -0.79222082102395        9.49938013515858
O           -2.19162888229423        4.31073881905515        2.31019284225600
O           -4.43702181258886        3.47110296277863        2.97985529967397
C           -4.29288863002587        4.41314855388403        4.00225819318112
S            4.77311108620957        2.01613868253666        8.94416030029713
O            4.94036387618017        1.12603539697032       10.12771313259672
O            5.53853767031791        1.19341068888131        7.69505427098159
C            5.63755061192672       -0.17609423565731        7.96300376694463
O           -5.23968746932867       -2.70084522835707       10.69353072238263
O           -3.20492782498240       -4.15744342679177       10.72540991811401
C           -3.61642736764404       -4.41750146970712        9.41732353343929
C           -5.09461721014814        1.16933710100904        8.07472291906524
C           -4.07539274406868       -1.14115418411503        5.29051707525430
H           -3.23554868048461       -5.39415004068874        9.12419970063316
H           -3.22797506978922       -3.64816465785431        8.74178094774347
H           -4.71055015470812       -4.41428574865370        9.37726696019968
H            6.20863487288216       -0.63913295282480        7.16082290012316
H            4.64051641676158       -0.62260472953180        8.00370750455658
H            6.13879362518102       -0.32865626154219        8.92225576741370
H           -4.37894003684972       -2.06392903005718        5.78408621210941
H           -3.81135314017276       -1.36300037981723        4.25571641541759
H           -4.90261857798233       -0.42721493294703        5.32266430438832
H           -5.47418747698132        1.99784944132044        7.47630297239712
H           -5.30669708204542        1.36634451837276        9.12895816583646
H           -5.58873687809970        0.24632673823191        7.76072763710828
H           -5.28033953486170        4.77746294073671        4.28343088322514
H           -3.67746818125690        5.24492419085343        3.64492037051547
H           -3.80632054736482        3.95330659287946        4.86802358797785
116
 energy: -220.445875740095 gnorm: 0.026647556858 xtb: 6.7.1 (edcfbbe)
C           -1.66394424234500        2.03013692894540       -1.30525633024235
C           -1.58999625696503        0.93769946460418       -0.46208316643267
C           -0.84205357681821        1.03510250201390        0.73771700374125
C            0.04513738278565        2.15044137512933        0.90660569601942
C           -0.05491768846526        3.24424275807997        0.01827741229559
C           -0.92157168223377        3.18313540631575       -1.02890433113758
C           -0.82775177910028        0.05693945793254        1.77533417564832
C            0.28578339473741        0.04840621657942        2.62943845010644
C            1.20266465040559        1.14278151153761        2.60741675111046
N            1.00498008573929        2.19452703764153        1.82451490580566
C           -1.83707198247458       -0.91635204713759        2.03810259500017
C           -1.44453211070012       -2.05898307267854        2.81247449548761
N           -0.30370866395257       -2.11886530800612        3.49521033642788
C            0.49140467459759       -1.05480843344089        3.50996711506441
C            1.62194911277228       -1.03247295216329        4.35355078900631
C            2.49225654721599        0.03756615343978        4.31981514929179
C            2.31012458453695        1.12024302199658        3.48357879791888
C           -3.19429144731242       -0.78646667039887        1.66058536106795
C           -4.03295941624891       -1.87380996248892        1.78710744322498
C           -3.57654567509113       -3.05975460249848        2.37054293914487
C           -2.33202553314761       -3.15935698619965        2.91995368896706
O           -3.63517759616323        0.44593702396440        1.29143586541671
O           -2.14567168706316       -0.26368155458030       -0.76029749253856
S           -1.05099126754850        4.65182015398112       -2.11666831402458
S           -4.75430566661601       -4.45768251540281        2.44331177830939
H            0.56786798962645        4.11293656688064        0.15705647915823
H           -2.28321884077956        2.02309572711533       -2.18737366398982
H            3.00613643820452        1.94235080986900        3.47282288375341
H            1.81432047276392       -1.85860435316888        5.02161372383649
H           -2.01837429558115       -4.04233124249647        3.45115513177654
H           -5.05617888220106       -1.86125939700187        1.44616625685964
O           -0.09693107259784        5.56795802215461       -1.52211839284491
O           -2.57166801311883        5.11109864345645       -1.60162999126062
C           -2.52962936065792        5.66518248154919       -0.30360613321554
S            3.96326432262534       -0.04119357909108        5.39826195950600
O            3.75661610638416       -1.31326582495631        6.07366833073817
O            5.05886024515908       -0.33117072588971        4.16916333440262
C            4.92995013116019       -1.61982330977960        3.62394723632400
O           -5.84468619271645       -3.99317097536525        1.59624832578646
O           -3.82266198216549       -5.49221157244645        1.52247866389880
C           -3.77393295170088       -5.09351436157516        0.17666117738101
C           -5.01979539354114        0.57654198835999        1.04056270189329
C           -2.89292597538513       -0.34586218653395       -1.95430694379526
H           -3.28621269401383       -5.87967194631373       -0.39077981187318
H           -3.21224132843342       -4.15699650653060        0.07855247403350
H           -4.79169027944578       -4.93674183623132       -0.19623115822978
H            5.78095030205555       -1.80201507938816        2.97333686343029
H            3.99919561604698       -1.69891213999386        3.05080275939382
H            4.90973504171981       -2.36147672645711        4.42916365957067
H           -3.26909616883375       -1.36605911565770       -2.02750849371728
H           -2.26754563181886       -0.13245896240157       -2.82795355441756
H           -3.73742719394611        0.35125421970347       -1.93088789596665
H           -5.20479116276560        1.62662507943866        0.82048301704382
H           -5.60918948826456        0.28671202226271        1.91790701095965
H           -5.32333766284714       -0.04017694342195        0.18889657146778
H           -3.50278450941507        6.09000420193167       -0.07897503456781
H           -1.76209728602332        6.44153223138302       -0.24957323455122
H           -2.28243950613522        4.89537524273012        0.42682515394963
C           -2.92308106778470        1.14666764762448        4.33726161615222
C           -2.45177371989254        0.54583490999060        5.48453722671702
C           -1.34112239429043        1.11271328219190        6.15406191637980
C           -0.57114436084340        2.12746992722940        5.49643435634069
C           -1.09365512485585        2.72537553829715        4.32473708685458
C           -2.25749857907032        2.25142080476443        3.80214119953230
C           -0.88015205689463        0.69191837113372        7.43417562114567
C            0.45738527688370        0.97338458375705        7.74725452413342
C            1.19086741960763        1.90097018936050        6.94773067507331
N            0.63239859520452        2.51923889271771        5.91197109363505
C           -1.64485613903163        0.02011830239019        8.43297481413420
C           -0.90303921580454       -0.71175295926222        9.41946691865997
N            0.40802821521097       -0.56861559511485        9.59409154192869
C            1.05807809102252        0.33768497188947        8.87377593035999
C            2.39195197467713        0.66591523481088        9.18840003607668
C            3.07035854632603        1.60431522393467        8.43821804924861
C            2.51386612552937        2.21970154403692        7.33265113329444
C           -3.05114489256762        0.09993860750736        8.55874932748420
C           -3.69169848185861       -0.74841409397032        9.43820779045564
C           -2.95893747212772       -1.60666673908376       10.26012756837648
C           -1.59610196108153       -1.57751394088101       10.30198207219641
O           -3.70044212011961        1.06352108656881        7.86178484554254
O           -2.95986010641556       -0.61028984088793        5.97257029595622
S           -2.93968943428832        3.05033573862256        2.32493120493559
S           -3.91461045884244       -2.75607273708274       11.31644405109939
H           -0.57004026093590        3.53834437151649        3.84822241813458
H           -3.81005224355886        0.80177047143555        3.83533693484789
H            3.06285352089790        2.95659711210948        6.76839047247578
H            2.87673919705324        0.20425195279421       10.03514150982092
H           -1.03895567296731       -2.18324663596098       10.99701541073814
H           -4.76625321475075       -0.80025844445451        9.51470668678713
O           -2.16876110047507        4.28347666142677        2.28970330674666
O           -4.42357526092356        3.44641136238560        2.99576920432078
C           -4.29987323068878        4.41287555913049        4.01119067663768
S            4.78045665421832        2.00268048429642        8.96193170178675
O            4.95013634424237        1.17999707089891       10.14694879798536
O            5.53013078029065        1.19647903032294        7.69981720106850
C            5.64810603960685       -0.18319662489234        7.96719511706257
O           -5.24819091317319       -2.68151644420619       10.73389611355704
O           -3.20181924329556       -4.14546071788640       10.72277566754269
C           -3.61142651753696       -4.42520646383489        9.40864411902360
C           -5.09256552261454        1.17015446779803        8.07109559865751
C           -4.07874882029864       -1.14178504553746        5.30057080205140
H           -3.22854294974049       -5.40396230672523        9.13700277177575
H           -3.22232635927172       -3.66628593911928        8.71968878272956
H           -4.70542468050793       -4.42180642758312        9.35716726624416
H            6.22193462772653       -0.62577937346113        7.15943023619187
H            4.66188429585511       -0.65019425742564        8.01038100133384
H            6.15357676272018       -0.33988620470809        8.92234328613985
H           -4.35757935687139       -2.06096366074871        5.81346544265153
H           -3.83211620065974       -1.37529115230301        4.26223136240223
H           -4.91902683368870       -0.43951592727710        5.32627943359655
H           -5.44311593000412        2.00458850630092        7.46420505508461
H           -5.31723220600039        1.37173390870944        9.12380729894329
H           -5.60720626660574        0.25449726811088        7.76136875858619
H           -5.29363455137949        4.76975976998015        4.26828830504015
H           -3.68446283714882        5.24538408192144        3.65564607481522
H           -3.81813966210881        3.97175923714333        4.89070176809388
116
 energy: -220.451916394896 gnorm: 0.018462172399 xtb: 6.7.1 (edcfbbe)
C           -1.65918026807658        2.04657423910635       -1.30564524814942
C           -1.59579969901373        0.95275762693463       -0.46142415066224
C           -0.85075067343983        1.04690264807041        0.74213738948134
C            0.04052231380676        2.16009002825392        0.91175127475867
C           -0.05032178569479        3.25473580885643        0.02259822081299
C           -0.91381942148511        3.19571161694681       -1.02697888518747
C           -0.83650665265250        0.06543819262210        1.77898885609980
C            0.27663944885698        0.05542382463783        2.63469057456741
C            1.19508442484578        1.14823179118453        2.61400861890192
N            0.99916147522962        2.19954183784284        1.82956798904547
C           -1.84425102856627       -0.91286435539165        2.03748407102473
C           -1.45048972912264       -2.05589359374887        2.81093142350335
N           -0.31098129126055       -2.11480821181377        3.49363201945516
C            0.48240350737735       -1.04943362182226        3.51280459919337
C            1.61045384243318       -1.02704055545869        4.35823078648268
C            2.47831656081747        0.04308527247759        4.32631058583445
C            2.30161785023231        1.12516472775412        3.49057924810392
C           -3.20283843561272       -0.78857917692107        1.65650458550497
C           -4.03778345906295       -1.88018961884085        1.78502823164672
C           -3.57602692514519       -3.06456492239582        2.36660658471540
C           -2.33279007421109       -3.16056833375543        2.91659533466131
O           -3.63863171573123        0.44210027629411        1.28085409310401
O           -2.15434006832649       -0.24776545767732       -0.75565809296470
S           -1.04696752786259        4.65402557638747       -2.13758739232085
S           -4.75211547730521       -4.46947948439429        2.44475225858994
H            0.58167119445708        4.11606280460388        0.16454213348624
H           -2.26759116831809        2.04134467329808       -2.19477633983098
H            2.99626458413544        1.94838613376628        3.48117062278587
H            1.80250976413697       -1.85412942261610        5.02469876870542
H           -2.01283914761256       -4.03785774056868        3.45344363127321
H           -5.06216762400670       -1.87406753030215        1.44940774667606
O           -0.07756722871388        5.58246710731865       -1.59635118233114