116
 energy: -22.928061455056 gnorm: 0.329736929581 xtb: 6.6.1 (8d0f1dd)
C           -3.31122850772930        0.79849766164622       -0.92477639677520
C           -2.44380812530352       -0.12270372891954       -0.27661132624697
C           -1.41337090092821        0.39579727573559        0.56335275196199
C           -0.89266158675590        1.65801491088749        0.27377586709581
C           -1.72665675402493        2.51431363229076       -0.49448366572522
C           -2.95444148494349        2.13954154133227       -1.01494489940871
C           -0.74098268209890       -0.43411532818871        1.49825021926784
C            0.56872586496315        0.03782116815119        1.86248088067890
C            1.03782416582094        1.29402317993033        1.50887470833621
N            0.31238977034758        2.07067427098208        0.65193736800696
C           -1.29695700510141       -1.39996043042223        2.41574187746061
C           -0.38243517664656       -2.18060797534842        3.13232615520648
N            0.91308504082021       -1.90366887689689        3.30325166013478
C            1.37712470144904       -0.74872102533751        2.81811050966982
C            2.52149331701875       -0.17739833758153        3.39379298866852
C            2.95849061756259        1.02681208890480        2.95105897606587
C            2.24288949469137        1.78498308775960        2.03503020483770
C           -2.74860936222260       -1.74497937691422        2.38401158947411
C           -3.09416315450955       -2.91614440870436        3.00571134491758
C           -2.16786021984049       -3.77788778654213        3.63251872101904
C           -0.85708937311598       -3.40495313382985        3.68547234358092
O           -3.71994433332149       -0.94984598373544        1.67726658385724
O           -2.55702603277562       -1.47241711578389       -0.57241635275616
C           -3.84297843593025        3.13357444054366       -1.60938954875544
C           -2.68769581069131       -5.03867041417370        4.30484659386931
H           -1.39666850744143        3.51251503834900       -0.76806311868865
H           -4.27662633836220        0.55105838579656       -1.33106614114542
H            2.66329581305412        2.73912661909249        1.72562431984580
H            3.05775395548473       -0.69369546277216        4.16536137542516
H           -0.24710966264510       -4.12034095424229        4.22946223699121
H           -4.11477991332403       -3.04712728052358        3.03244694615357
O           -4.21824883374556        4.03433712717988       -0.87713382485991
O           -4.44510595673734        2.90643496899600       -2.81853501752979
C           -5.44216520282800        3.83300025693726       -3.02488532025093
C            4.23586651889298        1.50004220933226        3.59165660008449
O            5.05927614697201        0.66079890002952        3.91714215179376
O            4.47001334453535        2.86385149488593        3.72605651435371
C            5.79457498613219        3.08584475587818        4.15829123132174
O           -3.82227255313510       -5.27347675879771        4.16636005494405
O           -1.85023202017753       -5.79767454267276        5.06656077253571
C           -2.55119635829503       -6.86252441382958        5.62930343183426
C           -5.07197156564436       -1.42399175670916        1.58830531863830
C           -1.33089900128490       -2.23622472573986       -0.99264499351172
H           -2.54510546830388       -7.76426885143998        4.99136022291012
H           -3.57194749219491       -6.44405511486021        5.74196173723541
H           -2.09133598235598       -7.02043774843818        6.64022264233588
H            5.72707967266424        3.46798026205549        5.10135971236643
H            6.34060091246885        3.78468702308830        3.50069950143490
H            6.17933064298187        2.03010500085905        4.19342358084693
H           -0.91862729772622       -2.57650129080332       -0.01361370304871
H           -0.49769766914251       -1.60651221708571       -1.34094446550576
H           -1.52632419730509       -2.94569707152159       -1.75361447637286
H           -5.11788846557077       -2.41810833635233        1.17520213188926
H           -5.67929807973498       -0.69619639428435        1.04301666067831
H           -5.57598832326623       -1.42383358739762        2.57928294206544
H           -6.13050215934830        3.76035386975488       -2.23272855695873
H           -5.86615610071888        3.45938329385866       -4.02668959924245
H           -5.13479557532099        4.87790991548477       -2.98314551356402
C           -1.38192942069774        3.73616555005018        2.91232598411686
C           -1.84821468128685        2.59982427735607        3.49755545445181
C           -1.05946531454833        2.05730632010638        4.60922730982276
C            0.19893954712228        2.69376791964407        4.86302140881997
C            0.50425395911860        3.94630308659851        4.28768785650746
C           -0.26031777722226        4.46998310053134        3.25072669343212
C           -1.20488993561782        0.74454293276906        5.14851520323437
C           -0.06287609782692        0.02744069315890        5.60930570802864
C            1.19208754369866        0.71421540266195        5.78882868583885
N            1.19428660993148        2.06344359410476        5.62744624321596
C           -2.41361422770794        0.07928500213936        5.25249410304426
C           -2.45851584031083       -1.32662100968547        5.60237876023992
N           -1.29466212405906       -1.98318595734370        5.89916817085159
C           -0.14475655767527       -1.32117560077092        5.98824682881008
C            0.97209270935794       -1.98958449505532        6.53157704134458
C            2.21982707914082       -1.36973967291181        6.68703967237737
C            2.30561929262884       -0.09745313075593        6.26436900324455
C           -3.73018485967715        0.71367583494582        5.25810242262992
C           -4.89964478833448       -0.06184623426677        5.21204641615509
C           -4.82617965800088       -1.39228978090841        5.46901303780036
C           -3.67144193418464       -1.98914944386360        5.67265433266067
O           -3.75568638935321        2.07705011038914        5.52067969627343
O           -2.94192434743730        1.91263938797883        3.01658762327703
C            0.21273512614467        5.50086066357994        2.34765104514621
C           -6.06660304520411       -2.17604633098929        5.80641622556876
H            1.41756699010566        4.38133362238595        4.66974005703471
H           -1.82880610647429        4.11982501512100        2.06992133318584
H            3.26888037378556        0.32655662585251        6.31721410015598
H            0.87146188387207       -3.08471526305024        6.57830423410869
H           -3.67716811065157       -3.05999292755990        5.83019634570050
H           -5.77379677507622        0.43595144608221        4.71017130754348
O            1.34459852619901        5.82615848916894        2.44941456579099
O           -0.74718748219123        6.07961784856304        1.59848183464284
C           -0.21473095568964        7.24015934882472        1.05753806029483
C            3.53228080814219       -2.00967610361154        7.02506769044485
O            3.64093082622715       -3.14437803815732        7.50071391725347
O            4.56565258381079       -1.22937033368332        6.69086985080897
C            5.72579357310716       -1.80692399125161        7.22246151275881
O           -7.04801223588612       -1.95726935745904        5.14194115322235
O           -6.01514389321278       -2.93743591896022        6.94765316328794
C           -7.21292732384718       -3.62681918543340        7.15115816329978
C           -4.95459780685163        2.65960679932188        5.86868674392943
C           -3.68284113682406        2.59129188358641        2.05479246020704
H           -7.43119628931628       -4.22607794725959        6.20622607140901
H           -8.06548455146707       -2.91765848248592        7.29781126410398
H           -7.07314693247270       -4.33087306029711        7.91223421050944
H            6.57332189837178       -1.29353136199234        6.78341268688262
H            5.74663761932316       -2.84282155125561        6.88089468184451
H            5.69426191474290       -1.72781984964892        8.29460302186842
H           -4.10481209541493        3.44288266176275        2.60483747673152
H           -4.49244774344916        1.87419893016926        1.82433103764650
H           -3.18901540870812        2.85154642679373        1.06781919454921
H           -5.55414326821421        2.76698137191684        4.93950725322359
H           -4.78658370641210        3.62090640967288        6.25983200635257
H           -5.43485580473958        1.97242995129449        6.65265772412460
H            0.89164886030839        7.38838561720231        1.13776105146914
H           -0.62894889903848        8.04195665205089        1.64837664327952
H           -0.59282546386754        7.45699159724320        0.03719083132488
116
 energy: -22.692318339707 gnorm: 0.521651992495 xtb: 6.6.1 (8d0f1dd)
C           -3.41307199781628        0.14616234401256       -1.38471107459603
C           -2.64943326807000       -0.64487219365109       -0.50946411181550
C           -1.64648648549223       -0.06080942335130        0.28836193349837
C           -1.34038513956796        1.25339329332875       -0.04554464605828
C           -2.19598479032855        1.98985257050293       -0.99109007381697
C           -3.15928665572042        1.50346195695599       -1.80500367013448
C           -0.99665595604339       -0.60812482391816        1.37897722914702
C            0.16215137711520        0.02237351377735        1.70846043049004
C            0.42102281011585        1.44429856649660        1.29684868531960
N           -0.36124060770641        2.11740002842688        0.40368474616615
C           -1.39466100155298       -1.69502947191662        2.25183565355610
C           -0.40730492194013       -2.38203393649609        3.10045344873079
N            0.88974100250521       -1.94937637722712        3.08751091749415
C            1.02306159328858       -0.66149714339386        2.64253005979278
C            2.15430950481137        0.10082342111783        3.08860959205779
C            2.40268674643068        1.34638650287652        2.60548773665064
C            1.59834396793387        2.02939350709371        1.68059112896088
C           -2.76188579095433       -2.24916502388158        2.31193370070519
C           -2.89935141241186       -3.61367135796523        2.60826228781031
C           -1.92520039173851       -4.19966283954832        3.38352606048822
C           -0.70399532915370       -3.59124404668653        3.55337111395915
O           -3.86941655163913       -1.29182962655160        2.16639263122742
O           -3.21176182519147       -1.98049767870790       -0.49116279293792
C           -4.15695003972754        2.28481701928407       -2.42503382563254
C           -2.02013663364899       -5.55351824101522        3.88277468709987
H           -2.20583079382918        3.07366808492492       -0.82917683078775
H           -4.26127263235879       -0.19440092571211       -1.84889580877250
H            1.77088234592580        3.01966649247926        1.24784499275389
H            2.79348616819982       -0.34679672281562        3.76533662939563
H            0.00295399607803       -4.10284833873821        4.15412182978707
H           -3.89015310479704       -3.99359718801285        2.54385819152317
O           -3.97510088156839        3.40554117401444       -2.88052651266663
O           -5.45032040274240        1.92645923086999       -2.17209305412770
C           -6.30958444851823        3.00998358431213       -2.63229369135147
C            3.70533376078033        1.70979682222560        3.35081098833865
O            4.52341768026905        1.00538178000367        3.93148093107330
O            3.79039897728701        2.98974021037638        3.13470612529122
C            4.91565579648571        3.61759903670562        3.72191020399646
O           -3.15583604478954       -5.99318201939063        3.98035959102917
O           -1.02218867384581       -6.39917113876185        4.20789830348549
C           -1.64120906395007       -7.71530450056017        4.50413843426002
C           -5.10112542423145       -1.75226555394942        1.71410177570859
C           -2.38109502633837       -3.11158795062713       -0.83451701170736
H           -2.60722729722134       -7.73488973628367        4.46812735688695
H           -1.09334308727981       -8.18032782735531        5.33080766864152
H           -1.42125205763289       -8.34240197898666        3.59393222658581
H            4.79171783745421        3.56232803600101        4.92444490799015
H            5.02839224058010        4.53390469747239        3.08646329139717
H            5.72966523607223        2.98663710052119        3.43494379866475
H           -1.91139435834790       -3.56959822768636        0.09982945218092
H           -1.63001808119429       -2.54282620147229       -1.50641091539758
H           -2.93875068567709       -3.79174627117955       -1.33643718402116
H           -4.96767937026864       -2.74002164742156        1.30329863450331
H           -5.46382873856610       -1.19885594305802        0.92984359883721
H           -6.07305427080499       -1.47632765194427        2.17267228348901
H           -6.35264508240183        3.99175579264309       -2.07440063095741
H           -7.33224525044388        2.47876860991596       -2.62677280600276
H           -5.95631502707884        3.52728882541192       -3.52995692659412
C           -0.96996706371542        4.30251954085205        3.42067339934976
C           -1.42868022011191        3.04957892034186        3.78886825429352
C           -0.57341728591734        2.40941839394607        4.81588744616638
C            0.78092421395773        2.81087365776264        5.05647764664399
C            1.17497565574987        4.04739941072248        4.58086429459138
C            0.27752659948301        4.84157250913190        3.83833735698307
C           -0.91756341324346        1.14969272938882        5.30423182811353
C            0.17794117471266        0.41635188322342        5.85805237701250
C            1.45162791868889        0.92061307032704        6.10607630883069
N            1.79601850341346        2.13445315632519        5.66478809981733
C           -2.25968588179738        0.42276739094853        5.50210656659195
C           -2.36475053418451       -0.95329450468860        5.79357390177764
N           -1.28754622931614       -1.70443547845886        6.10281453161509
C           -0.04336564075849       -1.00636537209990        6.25393460359577
C            1.00390316545531       -1.80720613378833        6.65365364300350
C            2.25657735272428       -1.27306498246761        6.91688135488516
C            2.47326543630212        0.11228593336804        6.65553017020803
C           -3.40494966902780        1.24136424255455        5.83523423697579
C           -4.63516833832583        0.63596249528854        5.67779815696024
C           -4.80157596707332       -0.80780037499148        5.62698115914547
C           -3.70271779349364       -1.58603711211194        5.57611797749563
O           -3.19071856164009        2.43191829672341        6.46790424291143
O           -2.46069867648414        2.24803317205917        3.33308816840010
C            0.63117708812667        6.12089638188683        3.21095282121833
C           -6.13455135325273       -1.30142869606075        5.46915678800807
H            2.06205939374352        4.37089272467227        4.83609283573927
H           -1.48123043448424        4.85274750678581        2.65006508825529
H            3.37568379779079        0.43922948565832        6.98724371837309
H            0.90217195451732       -2.87034632602957        6.85308990769699
H           -3.88978301242236       -2.66107185266909        5.63714945245744
H           -5.38127696516104        1.33330855057090        5.77020483891371
O            1.12102779664326        7.03598021066958        3.84446246040865
O            0.66461280935834        6.07954341859762        1.82349239971596
C            0.91826453446924        7.37391520740474        1.22347776066155
C            3.28109648689361       -1.96599648253791        7.74442162808639
O            3.06927506023634       -3.06974388957901        8.14265112584611
O            4.41928325281667       -1.23942255351341        7.86909368168990
C            5.36797022101462       -2.15703507937947        8.27297652663791
O           -7.03215916036999       -0.55618817104415        5.79398234818859
O           -6.33808842056656       -2.68336516772209        5.07446398710304
C           -7.65720824696931       -3.12626511920619        4.65718290074248
C           -4.08140523394022        2.86139573791443        7.44743404672657
C           -3.23296578933499        2.74065567170963        2.35165559420247
H           -8.21291933007507       -2.44846548739212        4.17209937355305
H           -8.20946106106709       -3.64420886636932        5.44224717106248
H           -7.41506806434834       -3.80682593820455        3.81980029458551
H            6.26753315804482       -1.84114429607002        7.64667873407529
H            5.22563999648746       -3.32901831587133        8.31771806428972
H            5.45342599179411       -2.06153330191560        9.40806568792678
H           -2.68204000228400        2.98415658426060        1.38359187077366
H           -3.84079087163173        3.49881920036834        2.76164990002084
H           -3.78137209190942        1.86785540527798        2.11523503556920
H           -4.75772179568989        3.73714696346391        7.09918560693132
H           -3.37657017950065        3.27502414848865        8.18308724027437
H           -4.67550924800845        1.96032075828594        7.49104060729925
H            0.11809236539744        7.90806228350520        1.44213918970927
H            0.86481100192886        7.15601874732511        0.16087911638578
H            1.68584453278413        7.89410056330284        1.58273636886431
116
 energy: -22.728482424366 gnorm: 0.442860564094 xtb: 6.6.1 (8d0f1dd)
C           -3.36731307782150       -0.25115864361243       -1.94674177397178
C           -2.65732529636017       -0.85070569776054       -0.97115970537835
C           -1.97572881988653       -0.09587401345756        0.00908972134847
C           -1.87807285059723        1.30754384295724       -0.11135101715995
C           -2.81242570773800        2.02360077481167       -0.92485965659638
C           -3.62772514873278        1.15547189977868       -1.70426226603399
C           -1.20875055113360       -0.71204479480074        1.08214737957528
C           -0.13341294092799        0.06083602191917        1.51660437362737
C            0.16251209341288        1.37827503912505        1.01913878198626
N           -0.80057167645930        2.05560223153113        0.41433340342406
C           -1.55473897749864       -1.89958128400699        1.85063958321576
C           -0.40446828900732       -2.54034736119318        2.51328477157693
N            0.73614182181789       -1.82869240111273        2.85905214469034
C            0.78461662453422       -0.48284226755531        2.41231427852800
C            1.99180381003809        0.22282455063453        2.71725908308817
C            2.05647095459111        1.55022298649555        2.60310455492826
C            1.19331230032295        2.13286212095022        1.62788310741085
C           -2.91795769981141       -2.41560532322340        1.95283428110992
C           -3.15293281787471       -3.65365552981003        2.49135521464056
C           -1.98510804817674       -4.34016233756443        2.97183972283432
C           -0.73797657715798       -3.77436403005629        3.15369483144520
O           -3.98311274887221       -1.58066190797848        1.40581859538806
O           -2.53921363035411       -2.23395682678874       -1.08711206167802
C           -4.53270806051986        1.94103558141695       -2.64838646984691
C           -2.23893093892534       -5.63586326330040        3.61082501306150
H           -2.53007963564260        3.16899478654270       -1.06458822132785
H           -3.54812975895803       -0.96662934723851       -2.75954505154773
H            1.23805408959371        3.24970338241849        1.48983288282172
H            2.65963560295243       -0.15613232860873        3.42932231665809
H           -0.07868937862130       -4.29194270632312        3.84297361787003
H           -4.16887868894010       -3.96249679213851        2.70240002446744
O           -5.11570938438387        2.94573523938042       -2.21615182239796
O           -4.59869311653681        1.45638533951071       -3.94186841175996
C           -5.70832374756208        1.82474402033264       -4.71512414445059
C            3.29845361689221        2.23377300365592        3.10688396919961
O            4.15576089789039        1.93831820941413        3.89572595750292
O            3.51433875679013        3.43153807559171        2.53131260006769
C            4.85513745127947        3.95310436406569        2.75077173084638
O           -3.37805353140201       -5.97717410144401        3.81159273539696
O           -0.98707509268577       -6.33901020603654        3.96763432596879
C           -1.27759842009774       -7.48590870386498        4.87799814151830
C           -4.89795476022425       -1.37517742856899        2.32724665592605
C           -1.12912602257189       -2.82351798078149       -1.31624489196605
H           -2.22053675360849       -7.08201242366145        5.33085776499441
H           -0.29455295139821       -7.57396274435031        5.43539553161479
H           -1.58520548035052       -8.38306757895649        4.35429649455270
H            5.23410996019289        3.64806326090446        3.83157435361080
H            4.88682833394782        4.98217524414300        2.47078999149901
H            5.77655583463040        3.57433745968914        2.11615909733898
H           -0.39679220146515       -2.14517782241337       -1.83242122713031
H           -1.22951000580791       -3.77069312581051       -1.93067622039442
H           -0.67670919055647       -3.13516444690312       -0.42308380768731
H           -5.29324480044125       -2.25982996106569        2.95316857695508
H           -5.61902790110130       -0.77586725659528        1.82732837226395
H           -4.33751700050813       -0.95360914519889        3.21509569320303
H           -5.33649730540927        2.21056206628193       -5.71001105656143
H           -6.26054301394085        2.45791405447617       -4.01795656947657
H           -6.32948759948232        0.91653220241348       -4.95035272397930
C           -0.86948635784482        4.35775654264078        4.19232053939692
C           -1.25946933493153        3.12762291952386        4.58680512466300
C           -0.44206058386795        2.44009567559137        5.54224964543022
C            0.94661209357917        2.68790677808700        5.48098968837542
C            1.41964336233790        3.79307932958791        4.62650894796882
C            0.42532495259325        4.73573135913752        4.24451483506319
C           -0.82051982519496        1.12761865733377        6.11921411260039
C            0.20690420573612        0.27664948940578        6.32378125585647
C            1.50904158115172        0.75095378931322        6.42851032042788
N            1.88335442004114        1.92764141455624        6.00542304325960
C           -2.18415292613408        0.69182823708231        6.27933562071877
C           -2.30752945920828       -0.72787832401928        6.19377653860339
N           -1.34217910727533       -1.60664437973430        5.95942385228637
C           -0.10744986920989       -1.10510594675291        6.34376029991521
C            0.88007347449361       -2.03704440468247        6.71705661887727
C            2.17062895445338       -1.57096678486907        6.84354271277545
C            2.52180719492566       -0.20034972247210        6.60867736852529
C           -3.33542697071700        1.51290154827618        6.48103059534302
C           -4.62123818915273        0.81522801468855        6.23122939759282
C           -4.71223206568634       -0.52978450714905        5.85020961434379
C           -3.60205202257722       -1.29529789620828        5.85915867179728
O           -3.12881298290327        2.87400962613475        6.54801524279516
O           -2.45500075033908        2.70088809466216        3.97879884617768
C            0.82794949764000        6.01113601871116        3.61755952353643
C           -6.05367148969648       -1.15401924159799        5.60179107564811
H            2.43562437013425        3.89662989939887        4.58576336797049
H           -1.60738111544613        5.08243630846781        3.91618737784025
H            3.50840931396517        0.24836913585024        6.62024475912713
H            0.64625013908999       -3.13674399314288        6.77824949233003
H           -3.50098808392162       -2.37396718271733        5.51418613202864
H           -5.55237422636151        1.25368565569392        6.26316296391216
O            1.86720793020193        6.39787201312844        4.09052229028268
O            0.02057686050436        6.72893491491010        2.72768271066167
C            0.67598269169991        7.92571632714910        2.54346625467893
C            3.15450591647528       -2.69134620826364        7.40286208458808
O            2.82283055587549       -3.92844121067267        7.48194510218055
O            4.33420864024698       -2.19554966295837        7.84013476469846
C            5.20300368455033       -3.24920501537939        8.30291811765234
O           -7.07849974221977       -0.43149974830256        5.62439428315242
O           -6.06983578688155       -2.52404623372451        5.53905877074295
C           -7.31080246443848       -2.95773070043641        6.07823869490640
C           -4.13525776794962        3.84002326920891        6.58601833415513
C           -2.98143278482740        3.53620443504187        2.99698541055575
H           -8.06971350040768       -2.54765458159228        5.35703726584822
H           -7.73468361355828       -2.73735847019665        7.00494819835028
H           -7.39316797334138       -4.00163399169409        5.87367926806829
H            5.14707730791751       -3.26468093813861        9.42064966346463
H            6.15977695081573       -2.84254308358659        7.97750340816379
H            4.68970754039361       -4.12592848050063        7.98456969874568
H           -3.41940959603298        4.41773017954358        3.39109056898718
H           -3.53627660892703        2.89819073504797        2.35179353365497
H           -2.13746573277199        3.70826912601024        2.23093345065612
H           -4.47794575686647        3.78334286849857        5.51516606264990
H           -3.69069989055612        4.79096180884854        6.68826915565750
H           -5.00104643500591        3.59303348336317        7.24020185953018
H            0.43649587094916        8.09291955490875        1.43751728467238
H            1.72568244508524        7.67412572725641        2.91336719800286
H            0.28578728068506        8.77322623128511        3.10251911906104
116
 energy: -22.732861009453 gnorm: 0.455759834061 xtb: 6.6.1 (8d0f1dd)
C           -3.63850930418982       -0.46395580158278       -1.84715734693951
C           -2.92665404301441       -1.02641030952934       -0.75682922363926
C           -1.85244169012478       -0.22691328212710       -0.08403642266721
C           -1.53610304732009        1.03817472675820       -0.69469901467063
C           -2.30856925796664        1.42558997719548       -1.77504086258669
C           -3.32977997089659        0.77391005333939       -2.33952247713101
C           -1.05221598325157       -0.61575899159846        1.10959032771732
C            0.14989361083872        0.02059010499274        1.21168948623661
C            0.21455948623748        1.23941082164696        0.53223963134812
N           -0.64139661092838        1.88480496171251       -0.28342111975537
C           -1.41692236746361       -1.49150671104159        2.17068794789931
C           -0.41663842820004       -2.14280380978679        2.89753927578262
N            0.89196840560801       -1.74161527798696        2.78366754490579
C            1.19691558916592       -0.60138312063340        2.06362439101794
C            2.26353934493322        0.24270900194024        2.39385076936414
C            2.24372299757576        1.58144299873863        1.99427964505432
C            1.30631241817345        1.96022304643874        1.03161906852635
C           -2.80178449879491       -1.73911125201942        2.59572392888054
C           -2.91865785810122       -2.89374604879095        3.44724561818196
C           -1.89720276911702       -3.70626691706145        3.86500646363937
C           -0.62163861820676       -3.34674747559276        3.60181880596145
O           -3.91033117934791       -0.99324773105290        2.41649258220643
O           -3.26677709476639       -2.26329617403502       -0.28717727929033
C           -4.16628723168216        1.39772507913500       -3.35414616327015
C           -2.21515449169454       -4.88940288556592        4.72923932689383
H           -2.08517536206124        2.47050084170657       -2.23683707032877
H           -4.54814893152138       -1.04412114153353       -2.21784457343733
H            1.36822468444602        2.97033333894129        0.69254034999352
H            3.01533073952371       -0.03919084341828        3.13272463252765
H            0.27792786510423       -4.00783800552207        3.90347687006531
H           -3.71147378024859       -3.29202348433103        4.00602051010284
O           -4.66935206107681        0.50841617793050       -4.01831749559024