Optimization of monomers started
      -----------------------------------------------------------      
     |                   =====================                   |     
     |                           x T B                           |     
     |                   =====================                   |     
     |                         S. Grimme                         |     
     |          Mulliken Center for Theoretical Chemistry        |     
     |                    University of Bonn                     |     
      -----------------------------------------------------------      

   * xtb version 6.7.1 (edcfbbe) compiled by 'runner@Mac-1732539442253.local' on 2024-11-25

   xtb is free software: you can redistribute it and/or modify it under
   the terms of the GNU Lesser General Public License as published by
   the Free Software Foundation, either version 3 of the License, or
   (at your option) any later version.
   
   xtb is distributed in the hope that it will be useful,
   but WITHOUT ANY WARRANTY; without even the implied warranty of
   MERCHANTABILITY or FITNESS FOR A PARTICULAR PURPOSE.  See the
   GNU Lesser General Public License for more details.
   
   Cite this work as:
   * C. Bannwarth, E. Caldeweyher, S. Ehlert, A. Hansen, P. Pracht,
     J. Seibert, S. Spicher, S. Grimme, WIREs Comput. Mol. Sci., 2020, 11,
     e01493. DOI: 10.1002/wcms.1493
   
   for GFN2-xTB:
   * C. Bannwarth, S. Ehlert and S. Grimme., J. Chem. Theory Comput., 2019,
     15, 1652-1671. DOI: 10.1021/acs.jctc.8b01176
   for GFN1-xTB:
   * S. Grimme, C. Bannwarth, P. Shushkov, J. Chem. Theory Comput., 2017,
     13, 1989-2009. DOI: 10.1021/acs.jctc.7b00118
   for GFN0-xTB:
   * P. Pracht, E. Caldeweyher, S. Ehlert, S. Grimme, ChemRxiv, 2019, preprint.
     DOI: 10.26434/chemrxiv.8326202.v1
   for GFN-FF:
   * S. Spicher and S. Grimme, Angew. Chem. Int. Ed., 2020, 59, 15665-15673.
     DOI: 10.1002/anie.202004239
   
   for ALPB and GBSA implicit solvation:
   * S. Ehlert, M. Stahn, S. Spicher, S. Grimme, J. Chem. Theory Comput.,
     2021, 17, 4250-4261. DOI: 10.1021/acs.jctc.1c00471
   
   for ddCOSMO and CPCM-X implicit solvation:
   * M. Stahn, S. Ehlert, S. Grimme, J. Phys. Chem. A,
     2023, XX, XXXX-XXXX. DOI: 10.1021/acs.jpca.3c04382
   
   for DFT-D4:
   * E. Caldeweyher, C. Bannwarth and S. Grimme, J. Chem. Phys., 2017,
     147, 034112. DOI: 10.1063/1.4993215
   * E. Caldeweyher, S. Ehlert, A. Hansen, H. Neugebauer, S. Spicher,
     C. Bannwarth and S. Grimme, J. Chem. Phys., 2019, 150, 154122.
     DOI: 10.1063/1.5090222
   * E. Caldeweyher, J.-M. Mewes, S. Ehlert and S. Grimme, Phys. Chem. Chem. Phys.
     2020, 22, 8499-8512. DOI: 10.1039/D0CP00502A
   
   for sTDA-xTB:
   * S. Grimme and C. Bannwarth, J. Chem. Phys., 2016, 145, 054103.
     DOI: 10.1063/1.4959605
   
   in the mass-spec context:
   * V. Asgeirsson, C. Bauer and S. Grimme, Chem. Sci., 2017, 8, 4879.
     DOI: 10.1039/c7sc00601b
   * J. Koopman and S. Grimme, ACS Omega 2019, 4, 12, 15120-15133.
     DOI: 10.1021/acsomega.9b02011
   
   for metadynamics refer to:
   * S. Grimme, J. Chem. Theory Comput., 2019, 155, 2847-2862
     DOI: 10.1021/acs.jctc.9b00143
   
   for SPH calculations refer to:
   * S. Spicher and S. Grimme, J. Chem. Theory Comput., 2021, 17, 1701-1714
     DOI: 10.1021/acs.jctc.0c01306
   
   for ONIOM refer to:
   * C. Plett, A. Katbashev, S. Ehlert, S. Grimme, M. Bursch,
     Phys. Chem. Chem. Phys., 2023, 25, 17860-17868. DOI: 10.1039/D3CP02178E
   
   for DIPRO refer to:
   * J. Kohn, N. Gildemeister, S. Grimme, D. Fazzi, A. Hansen,
     J. Chem. Phys., 2023, just accepted.
   
   for PTB refer to:
   * S. Grimme, M. Mueller, A. Hansen, J. Chem. Phys., 2023, 158, 124111.
     DOI: 10.1063/5.0137838
   
   with help from (in alphabetical order)
   P. Atkinson, C. Bannwarth, F. Bohle, G. Brandenburg, E. Caldeweyher
   M. Checinski, S. Dohm, S. Ehlert, S. Ehrlich, I. Gerasimov, C. Hölzer
   A. Katbashev, J. Kohn, J. Koopman, C. Lavigne, S. Lehtola, F. März, M. Müller,
   F. Musil, H. Neugebauer, J. Pisarek, C. Plett, P. Pracht, F. Pultar,
   J. Seibert, P. Shushkov, S. Spicher, M. Stahn, M. Steiner, T. Strunk,
   J. Stückrath, T. Rose, and J. Unsleber
   
 * started run on 2025/02/24 at 15:42:46.420     
   ID    Z sym.   atoms
    1    6 C      1-11, 13, 14, 16-23, 32-49
    2    7 N      12, 15
    3    8 O      24, 25
    4    1 H      26-31, 50-96

           -------------------------------------------------
          |                Calculation Setup                |
           -------------------------------------------------

          program call               : xtb Base4tBu.mol --opt tight --cycles 500 --chrg 0 --uhf 1 --spinpol --tblite
          coordinate file            : Base4tBu.mol
          omp threads                :                     8


molecular fragmentation (1/2 indicates fragments):
111111111111111111111111111111111112211111111222222222222211111111111111
111111111112222221111111
# atoms in fragment 1/2:    75    21
 fragment masses (1/2) :      494.67       87.18
CMA distance (Bohr)    :   5.922
constraining FC (au)   :  0.0500
########################################################################
[WARNING] Please study the warnings concerning your input carefully
-1- prog_main: Charge in sdf/mol input was overwritten
########################################################################
repulsion energy          1.5803750297644E+00 Eh
dispersion energy         2.3783801762594E-03 Eh
interaction energy        0.0000000000000E+00 Eh
number of electrons       2.3100000000000E+02 e
integral cutoff           1.7347787504999E+01 bohr

------------------------------------------------------------
  cycle        total energy    energy error   density error
------------------------------------------------------------
      1     -122.2288306060  -1.2381158E+02   9.7873117E-02
      2     -120.8230159877   1.4058146E+00   8.1654347E-02
      3     -119.0278309964   1.7951850E+00   8.3942550E-02
      4     -122.1222894816  -3.0944585E+00   5.0853852E-02
      5     -122.8014306986  -6.7914122E-01   3.1754979E-02
      6     -122.6608681852   1.4056251E-01   3.0011352E-02
      7     -122.9029019524  -2.4203377E-01   2.0332436E-02
      8     -122.9153984339  -1.2496481E-02   1.6809383E-02
      9     -122.9185573630  -3.1589292E-03   1.2179183E-02
     10     -122.9428336312  -2.4276268E-02   6.4877622E-03
     11     -122.9465508508  -3.7172196E-03   5.1410786E-03
     12     -122.9488558161  -2.3049652E-03   3.4797722E-03
     13     -122.9503703119  -1.5144958E-03   1.8108834E-03
     14     -122.9507685919  -3.9828000E-04   1.1277841E-03
     15     -122.9509212910  -1.5269914E-04   6.0068038E-04
     16     -122.9509547793  -3.3488252E-05   4.0534431E-04
     17     -122.9509682903  -1.3511057E-05   1.9472168E-04
     18     -122.9509744971  -6.2067438E-06   1.1644367E-04
     19     -122.9509753716  -8.7452740E-07   7.4179531E-05
     20     -122.9509757222  -3.5059428E-07   5.6867850E-05
     21     -122.9509760401  -3.1787611E-07   3.1527024E-05
     22     -122.9509762023  -1.6221348E-07   1.3565518E-05
------------------------------------------------------------

electronic energy        -1.2453372961224E+02 Eh
total energy             -1.2295097620230E+02 Eh

 total:                                   1.177 sec
 - repulsion                              0.001 sec (  0%)
 - dispersion                             0.018 sec (  1%)
 - coulomb                                0.003 sec (  0%)
 - hamiltonian                            0.011 sec (  0%)
 - scc                                    1.144 sec ( 97%)

      ----------------------------------------------------------- 
     |                   =====================                   |
     |                        A N C O P T                        |
     |                   =====================                   |
     |               Approximate Normal Coordinate               |
     |                Rational Function Optimizer                |
      ----------------------------------------------------------- 
      ----------------------------------------------------------- 
     |                   =====================                   |
     |                        A N C O P T                        |
     |                   =====================                   |
     |               Approximate Normal Coordinate               |
     |                Rational Function Optimizer                |
      ----------------------------------------------------------- 

          ...................................................
          :                      SETUP                      :
          :.................................................:
          :   optimization level             tight          :
          :   max. optcycles                   500          :
          :   ANC micro-cycles                  20          :
          :   degrees of freedom               282          :
          :.................................................:
          :   RF solver                   davidson          :
          :   write xtbopt.log                true          :
          :   linear?                        false          :
          :   energy convergence         0.1000000E-05 Eh   :
          :   grad. convergence          0.8000000E-03 Eh/α :
          :   maxmium RF displ.          1.0000000          :
          :   Hlow (freq-cutoff)         0.1000000E-01      :
          :   Hmax (freq-cutoff)         5.0000000          :
          :   S6 in model hess.         20.0000000          :
          ...................................................

generating ANC from exact Hessian ...
Using Lindh-Hessian (1995)
 Shifting diagonal of input Hessian by    1.2897428276440345E-002
 Lowest  eigenvalues of input Hessian
    0.010000    0.012747    0.012834    0.012856    0.000000    0.012864
    0.000000    0.000000    0.000000    0.000000    0.000000    0.012954
    0.013012    0.013081    0.013117    0.013198    0.013219    0.013326
 Highest eigenvalues
    1.606667    1.615859    1.920411    1.990095    2.296821    2.627654


........................................................................
.............................. CYCLE    1 ..............................
........................................................................
------------------------------------------------------------
  cycle        total energy    energy error   density error
------------------------------------------------------------
      1     -122.9509759321  -1.2453373E+02   3.4982091E-05
      2     -122.9509756732   2.5893316E-07   4.7985247E-05
      3     -122.9509762139  -5.4077336E-07   4.6097429E-06
------------------------------------------------------------

 total:                                   0.178 sec
 * total energy  :  -122.9509762 Eh     change       -0.1163274E-07 Eh
   gradient norm :     0.8897036 Eh/α   predicted     0.0000000E+00 (-100.00%)
   displ. norm   :     0.7285158 α      lambda       -0.5392379E+00
   maximum displ.:     0.2948020 α      in ANC's #118, #194, #282, ...

........................................................................
.............................. CYCLE    2 ..............................
........................................................................
------------------------------------------------------------
  cycle        total energy    energy error   density error
------------------------------------------------------------
      1     -123.3800802510  -1.2484436E+02   9.6412976E-03
      2     -123.3812712925  -1.1910415E-03   6.1121170E-03
      3     -123.3753756942   5.8955982E-03   5.1702889E-03
      4     -123.3812877436  -5.9120494E-03   1.8333385E-03
      5     -123.3819427284  -6.5498479E-04   1.0515157E-03
      6     -123.3822259613  -2.8323294E-04   3.8621591E-04
      7     -123.3822457085  -1.9747161E-05   1.7626584E-04
      8     -123.3822496830  -3.9745014E-06   1.0239003E-04
      9     -123.3822514655  -1.7824540E-06   5.2353985E-05
     10     -123.3822517119  -2.4647198E-07   3.0263381E-05
     11     -123.3822518384  -1.2644827E-07   1.1466606E-05
------------------------------------------------------------

 total:                                   0.582 sec
 * total energy  :  -123.3822518 Eh     change       -0.4312756E+00 Eh
   gradient norm :     0.4868402 Eh/α   predicted    -0.4129034E+00 (  -4.26%)
   displ. norm   :     0.7860524 α      lambda       -0.3392459E+00
   maximum displ.:     0.3827844 α      in ANC's #118, #194, #119, ...

........................................................................
.............................. CYCLE    3 ..............................
........................................................................
------------------------------------------------------------
  cycle        total energy    energy error   density error
------------------------------------------------------------
      1     -123.6668149781  -1.2510769E+02   8.5886842E-03
      2     -123.6670137575  -1.9877941E-04   5.5075602E-03
      3     -123.6631292984   3.8844591E-03   4.8363927E-03
      4     -123.6678750903  -4.7457919E-03   1.1089642E-03
      5     -123.6680441196  -1.6902936E-04   7.3490970E-04
      6     -123.6681702559  -1.2613628E-04   2.6097053E-04
      7     -123.6681712216  -9.6563696E-07   1.8271992E-04
      8     -123.6681746584  -3.4368520E-06   1.2235962E-04
      9     -123.6681768486  -2.1901604E-06   6.9642604E-05
     10     -123.6681776118  -7.6327012E-07   3.8055787E-05
     11     -123.6681777171  -1.0530771E-07   1.9759682E-05
------------------------------------------------------------

 total:                                   0.531 sec
 * total energy  :  -123.6681777 Eh     change       -0.2859259E+00 Eh
   gradient norm :     0.3046081 Eh/α   predicted    -0.2744294E+00 (  -4.02%)
   displ. norm   :     0.8309513 α      lambda       -0.2385508E+00
   maximum displ.:     0.3980458 α      in ANC's #118, #119, #194, ...

........................................................................
.............................. CYCLE    4 ..............................
........................................................................
------------------------------------------------------------
  cycle        total energy    energy error   density error
------------------------------------------------------------
      1     -123.8701379650  -1.2533153E+02   8.5685016E-03
      2     -123.8686448928   1.4930722E-03   5.6414952E-03
      3     -123.8540859219   1.4558971E-02   9.8037255E-03
      4     -123.8683265941  -1.4240672E-02   3.5111683E-03
      5     -123.8715889861  -3.2623919E-03   1.1517231E-03
      6     -123.8719047248  -3.1573875E-04   6.3034799E-04
      7     -123.8719915101  -8.6785282E-05   2.8950208E-04
      8     -123.8719933915  -1.8813687E-06   1.5639259E-04
      9     -123.8719957801  -2.3885777E-06   1.0867505E-04
     10     -123.8719964961  -7.1602362E-07   8.4288101E-05
     11     -123.8719968275  -3.3141060E-07   5.9272944E-05
     12     -123.8719972428  -4.1532533E-07   3.0259605E-05
     13     -123.8719973369  -9.4092997E-08   1.2596935E-05
------------------------------------------------------------

 total:                                   0.703 sec
 * total energy  :  -123.8719973 Eh     change       -0.2038196E+00 Eh
   gradient norm :     0.2069931 Eh/α   predicted    -0.2016332E+00 (  -1.07%)
   displ. norm   :     0.8554087 α      lambda       -0.1711813E+00
   maximum displ.:     0.3787226 α      in ANC's #118, #119, #44, ...

........................................................................
.............................. CYCLE    5 ..............................
........................................................................
------------------------------------------------------------
  cycle        total energy    energy error   density error
------------------------------------------------------------
      1     -124.0157248025  -1.2552622E+02   1.1197310E-02
      2     -124.0011716263   1.4553176E-02   9.1771375E-03
      3     -123.9951730136   5.9986127E-03   1.2314740E-02
      4     -124.0136315124  -1.8458499E-02   4.8783206E-03
      5     -124.0210115703  -7.3800580E-03   1.4840551E-03
      6     -124.0214569577  -4.4538743E-04   7.4868932E-04
      7     -124.0214624850  -5.5272935E-06   6.4425460E-04
      8     -124.0214737975  -1.1312461E-05   4.3987386E-04
      9     -124.0214843048  -1.0507294E-05   3.1672210E-04
     10     -124.0214979942  -1.3689408E-05   1.5726158E-04
     11     -124.0215008176  -2.8234501E-06   5.3296973E-05
     12     -124.0215012626  -4.4498373E-07   2.1726078E-05
     13     -124.0215013175  -5.4894258E-08   9.9363217E-06
------------------------------------------------------------

 total:                                   0.603 sec
 * total energy  :  -124.0215013 Eh     change       -0.1495040E+00 Eh
   gradient norm :     0.1595732 Eh/α   predicted    -0.1482202E+00 (  -0.86%)
   displ. norm   :     0.8844869 α      lambda       -0.1352935E+00
   maximum displ.:     0.3440956 α      in ANC's #118, #44, #76, ...

........................................................................
.............................. CYCLE    6 ..............................
........................................................................
------------------------------------------------------------
  cycle        total energy    energy error   density error
------------------------------------------------------------
      1     -124.1360051797  -1.2570515E+02   1.1796529E-02
      2     -124.1263965754   9.6086043E-03   8.5960632E-03
      3     -124.1259781188   4.1845660E-04   9.5868586E-03
      4     -124.1346940210  -8.7159022E-03   5.0528847E-03
      5     -124.1424493604  -7.7553394E-03   1.2831868E-03
      6     -124.1426125612  -1.6320077E-04   9.4669571E-04
      7     -124.1426122753   2.8588038E-07   7.6482276E-04
      8     -124.1426367373  -2.4461982E-05   3.0270584E-04
      9     -124.1426521280  -1.5390727E-05   1.3154188E-04
     10     -124.1426532173  -1.0892849E-06   7.3075353E-05
     11     -124.1426535926  -3.7528844E-07   3.3629627E-05
     12     -124.1426536633  -7.0740128E-08   1.9224073E-05
------------------------------------------------------------

 total:                                   0.560 sec
 * total energy  :  -124.1426537 Eh     change       -0.1211523E+00 Eh
   gradient norm :     0.1305560 Eh/α   predicted    -0.1205680E+00 (  -0.48%)
   displ. norm   :     0.8938916 α      lambda       -0.1090182E+00
   maximum displ.:     0.2639325 α      in ANC's #118, #44, #76, ...

........................................................................
.............................. CYCLE    7 ..............................
........................................................................
------------------------------------------------------------
  cycle        total energy    energy error   density error
------------------------------------------------------------
      1     -124.2341538721  -1.2585416E+02   8.5726953E-03
      2     -124.2330229701   1.1309020E-03   5.7411629E-03
      3     -124.2322074788   8.1549131E-04   5.3387741E-03
      4     -124.2331215372  -9.1405843E-04   3.6129573E-03
      5     -124.2373088951  -4.1873578E-03   4.6958585E-04
      6     -124.2373290166  -2.0121546E-05   3.2451637E-04
      7     -124.2373332488  -4.2321752E-06   2.2444276E-04
      8     -124.2373344525  -1.2036944E-06   9.9425030E-05
      9     -124.2373353565  -9.0402105E-07   5.0467948E-05
     10     -124.2373355090  -1.5252822E-07   2.7667908E-05
     11     -124.2373355399  -3.0865124E-08   1.4077290E-05
------------------------------------------------------------

 total:                                   0.542 sec
 * total energy  :  -124.2373355 Eh     change       -0.9468188E-01 Eh
   gradient norm :     0.1071791 Eh/α   predicted    -0.9806421E-01 (   3.57%)
   displ. norm   :     0.8742556 α      lambda       -0.8103620E-01
   maximum displ.:     0.2608439 α      in ANC's #44, #56, #54, ...

........................................................................
.............................. CYCLE    8 ..............................
........................................................................
------------------------------------------------------------
  cycle        total energy    energy error   density error
------------------------------------------------------------
      1     -124.3056661568  -1.2596882E+02   6.0928204E-03
      2     -124.3043183873   1.3477695E-03   4.6335531E-03
      3     -124.3043182712   1.1609032E-07   4.1115994E-03
      4     -124.3065239080  -2.2056368E-03   1.8510580E-03
      5     -124.3074917431  -9.6783509E-04   4.8887789E-04
      6     -124.3075322850  -4.0541925E-05   2.0728117E-04
      7     -124.3075312485   1.0365673E-06   1.5579251E-04
      8     -124.3075341117  -2.8631943E-06   6.8674101E-05
      9     -124.3075344052  -2.9355263E-07   3.1065805E-05
     10     -124.3075344547  -4.9492655E-08   1.7723244E-05
------------------------------------------------------------

 total:                                   0.533 sec
 * total energy  :  -124.3075345 Eh     change       -0.7019891E-01 Eh
   gradient norm :     0.0808802 Eh/α   predicted    -0.7148703E-01 (   1.83%)
   displ. norm   :     0.8729657 α      lambda       -0.6092396E-01
   maximum displ.:     0.2920262 α      in ANC's #44, #28, #25, ...

........................................................................
.............................. CYCLE    9 ..............................
........................................................................
------------------------------------------------------------
  cycle        total energy    energy error   density error
------------------------------------------------------------
      1     -124.3598035991  -1.2606489E+02   5.5693315E-03
      2     -124.3583606755   1.4429237E-03   4.0239718E-03
      3     -124.3582843014   7.6374024E-05   4.0569581E-03
      4     -124.3608423214  -2.5580200E-03   1.2499826E-03
      5     -124.3611742735  -3.3195211E-04   5.4699779E-04
      6     -124.3612168232  -4.2549687E-05   2.9490997E-04
      7     -124.3612175746  -7.5142935E-07   1.7615425E-04
      8     -124.3612219338  -4.3591595E-06   6.7438446E-05
      9     -124.3612221449  -2.1111013E-07   3.3017110E-05
     10     -124.3612221902  -4.5273779E-08   1.9979002E-05
------------------------------------------------------------

 total:                                   0.479 sec
 * total energy  :  -124.3612222 Eh     change       -0.5368774E-01 Eh
   gradient norm :     0.0623385 Eh/α   predicted    -0.5367610E-01 (  -0.02%)
   displ. norm   :     0.8883623 α      lambda       -0.4944035E-01
   maximum displ.:     0.2788250 α      in ANC's #44, #28, #25, ...

........................................................................
.............................. CYCLE   10 ..............................
........................................................................
------------------------------------------------------------
  cycle        total energy    energy error   density error
------------------------------------------------------------
      1     -124.4036983869  -1.2614296E+02   4.9182016E-03
      2     -124.4035055190   1.9286791E-04   3.1044927E-03
      3     -124.4022932694   1.2122496E-03   3.3361445E-03
      4     -124.4040840191  -1.7907497E-03   8.9474302E-04
      5     -124.4042761111  -1.9209205E-04   4.7307848E-04
      6     -124.4043033177  -2.7206571E-05   2.7498715E-04
      7     -124.4043052233  -1.9055460E-06   1.2948473E-04
      8     -124.4043072318  -2.0085082E-06   5.4879159E-05
      9     -124.4043073835  -1.5170231E-07   3.0091677E-05
     10     -124.4043074074  -2.3954755E-08   1.8235267E-05
------------------------------------------------------------

 total:                                   0.508 sec
 * total energy  :  -124.4043074 Eh     change       -0.4308522E-01 Eh
   gradient norm :     0.0548455 Eh/α   predicted    -0.4422900E-01 (   2.65%)
   displ. norm   :     0.9105967 α      lambda       -0.4314728E-01
   maximum displ.:     0.2724704 α      in ANC's #28, #44, #43, ...

........................................................................
.............................. CYCLE   11 ..............................
........................................................................
------------------------------------------------------------
  cycle        total energy    energy error   density error
------------------------------------------------------------
      1     -124.4388671684  -1.2620732E+02   4.1440451E-03
      2     -124.4389682627  -1.0109432E-04   2.6659586E-03
      3     -124.4388106600   1.5760277E-04   2.0285582E-03
      4     -124.4390672125  -2.5655256E-04   8.0273989E-04
      5     -124.4392671771  -1.9996454E-04   2.5185371E-04
      6     -124.4392800709  -1.2893892E-05   1.0211433E-04
      7     -124.4392798309   2.4006947E-07   7.3380109E-05
      8     -124.4392804434  -6.1250107E-07   3.4537316E-05
      9     -124.4392805025  -5.9081785E-08   1.8790262E-05
------------------------------------------------------------

 total:                                   0.467 sec
 * total energy  :  -124.4392805 Eh     change       -0.3497310E-01 Eh
   gradient norm :     0.0601189 Eh/α   predicted    -0.3946220E-01 (  12.84%)
   displ. norm   :     0.8720432 α      lambda       -0.3744478E-01
   maximum displ.:     0.2749808 α      in ANC's #28, #44, #43, ...

........................................................................
.............................. CYCLE   12 ..............................
........................................................................
------------------------------------------------------------
  cycle        total energy    energy error   density error
------------------------------------------------------------
      1     -124.4672902522  -1.2626834E+02   4.4354897E-03
      2     -124.4674704722  -1.8022003E-04   2.7520608E-03
      3     -124.4670794101   3.9106218E-04   1.7226464E-03
      4     -124.4675212241  -4.4181400E-04   5.8112399E-04
      5     -124.4676216781  -1.0045406E-04   2.6700558E-04
      6     -124.4676308271  -9.1490254E-06   1.4310123E-04
      7     -124.4676313245  -4.9739988E-07   7.7599526E-05
      8     -124.4676317515  -4.2700063E-07   3.5868085E-05
      9     -124.4676318213  -6.9756680E-08   1.7856521E-05
------------------------------------------------------------

 total:                                   0.411 sec
 * total energy  :  -124.4676318 Eh     change       -0.2835132E-01 Eh
   gradient norm :     0.0624803 Eh/α   predicted    -0.3295999E-01 (  16.26%)
   displ. norm   :     0.8452311 α      lambda       -0.3195598E-01
   maximum displ.:     0.2618663 α      in ANC's #28, #43, #23, ...

........................................................................
.............................. CYCLE   13 ..............................
........................................................................
------------------------------------------------------------
  cycle        total energy    energy error   density error
------------------------------------------------------------
      1     -124.4915959808  -1.2630412E+02   3.5397724E-03
      2     -124.4917969631  -2.0098232E-04   2.3796813E-03
      3     -124.4918119891  -1.5025990E-05   1.5164613E-03
      4     -124.4919284987  -1.1650962E-04   7.2929805E-04
      5     -124.4920872441  -1.5874538E-04   1.7874820E-04
      6     -124.4920923488  -5.1046903E-06   8.4274767E-05
      7     -124.4920925008  -1.5203430E-07   4.2361357E-05
      8     -124.4920926438  -1.4293624E-07   1.7466537E-05
------------------------------------------------------------

 total:                                   0.368 sec
 * total energy  :  -124.4920926 Eh     change       -0.2446082E-01 Eh
   gradient norm :     0.0464401 Eh/α   predicted    -0.2739292E-01 (  11.99%)
   displ. norm   :     0.8480464 α      lambda       -0.2532629E-01
   maximum displ.:     0.2667430 α      in ANC's #28, #43, #23, ...

........................................................................
.............................. CYCLE   14 ..............................
........................................................................
------------------------------------------------------------
  cycle        total energy    energy error   density error
------------------------------------------------------------
      1     -124.5110060851  -1.2634829E+02   3.3321333E-03
      2     -124.5110871077  -8.1022670E-05   2.0885310E-03
      3     -124.5107644245   3.2268325E-04   1.3706214E-03
      4     -124.5111315406  -3.6711614E-04   4.7071190E-04
      5     -124.5111976728  -6.6132187E-05   1.1786028E-04
      6     -124.5111997064  -2.0335842E-06   5.2803758E-05
      7     -124.5111999341  -2.2768209E-07   2.6991164E-05
      8     -124.5111999890  -5.4859754E-08   1.2022364E-05
------------------------------------------------------------

 total:                                   0.388 sec
 * total energy  :  -124.5112000 Eh     change       -0.1910735E-01 Eh
   gradient norm :     0.0488181 Eh/α   predicted    -0.2177027E-01 (  13.94%)
   displ. norm   :     0.8277543 α      lambda       -0.2246998E-01
   maximum displ.:     0.2542408 α      in ANC's #28, #43, #7, ...

........................................................................
.............................. CYCLE   15 ..............................
........................................................................
------------------------------------------------------------
  cycle        total energy    energy error   density error
------------------------------------------------------------
      1     -124.5272544882  -1.2638065E+02   3.5553680E-03
      2     -124.5273785807  -1.2409252E-04   2.1511696E-03
      3     -124.5272753708   1.0320994E-04   1.0783888E-03
      4     -124.5274217676  -1.4639681E-04   2.3032298E-04
      5     -124.5274273277  -5.5600986E-06   1.2215068E-04
      6     -124.5274280897  -7.6196596E-07   7.8921462E-05
      7     -124.5274287394  -6.4973712E-07   4.5543905E-05
      8     -124.5274289535  -2.1408589E-07   2.0705667E-05
      9     -124.5274289875  -3.3986453E-08   1.0089283E-05
------------------------------------------------------------

 total:                                   0.460 sec
 * total energy  :  -124.5274290 Eh     change       -0.1622900E-01 Eh
   gradient norm :     0.0373997 Eh/α   predicted    -0.1893295E-01 (  16.66%)
   displ. norm   :     0.8077925 α      lambda       -0.1679088E-01
   maximum displ.:     0.2589321 α      in ANC's #7, #28, #27, ...

........................................................................
.............................. CYCLE   16 ..............................
........................................................................
------------------------------------------------------------
  cycle        total energy    energy error   density error
------------------------------------------------------------
      1     -124.5393016054  -1.2640639E+02   3.0250191E-03
      2     -124.5393699553  -6.8349882E-05   1.8333920E-03
      3     -124.5392395683   1.3038700E-04   9.3656246E-04
      4     -124.5394095245  -1.6995617E-04   1.6591375E-04
      5     -124.5394141627  -4.6382250E-06   8.2144687E-05
      6     -124.5394146234  -4.6065340E-07   4.5555484E-05
      7     -124.5394146918  -6.8413470E-08   2.8626200E-05
      8     -124.5394147979  -1.0614507E-07   1.3800250E-05
------------------------------------------------------------

 total:                                   0.362 sec
 * total energy  :  -124.5394148 Eh     change       -0.1198581E-01 Eh
   gradient norm :     0.0342659 Eh/α   predicted    -0.1387372E-01 (  15.75%)
   displ. norm   :     0.7929630 α      lambda       -0.1505316E-01
   maximum displ.:     0.2872483 α      in ANC's #7, #28, #27, ...

........................................................................
.............................. CYCLE   17 ..............................
........................................................................
------------------------------------------------------------
  cycle        total energy    energy error   density error
------------------------------------------------------------
      1     -124.5485713886  -1.2643292E+02   3.6643649E-03
      2     -124.5486768753  -1.0548674E-04   2.1942336E-03
      3     -124.5486233190   5.3556354E-05   7.2033356E-04
      4     -124.5486937744  -7.0455397E-05   2.1744667E-04
      5     -124.5486985451  -4.7707112E-06   8.8703149E-05
      6     -124.5486993999  -8.5484541E-07   4.9155344E-05
      7     -124.5486995279  -1.2798297E-07   2.9456247E-05
      8     -124.5486996194  -9.1449223E-08   1.5813359E-05
------------------------------------------------------------

 total:                                   0.421 sec
 * total energy  :  -124.5486996 Eh     change       -0.9284821E-02 Eh
   gradient norm :     0.0366509 Eh/α   predicted    -0.1225921E-01 (  32.03%)
   displ. norm   :     0.7222749 α      lambda       -0.1110389E-01
   maximum displ.:     0.2988345 α      in ANC's #7, #8, #23, ...

........................................................................
.............................. CYCLE   18 ..............................
........................................................................
------------------------------------------------------------
  cycle        total energy    energy error   density error
------------------------------------------------------------
      1     -124.5563558966  -1.2644690E+02   2.5105950E-03
      2     -124.5563927839  -3.6887388E-05   1.5271423E-03
      3     -124.5562697450   1.2303891E-04   8.4680813E-04
      4     -124.5564148939  -1.4514888E-04   1.8462719E-04
      5     -124.5564205746  -5.6806549E-06   1.0426703E-04
      6     -124.5564230085  -2.4338773E-06   3.9057926E-05
      7     -124.5564230748  -6.6299208E-08   2.2313879E-05
      8     -124.5564230946  -1.9833124E-08   1.1800010E-05
------------------------------------------------------------

 total:                                   0.395 sec
 * total energy  :  -124.5564231 Eh     change       -0.7723475E-02 Eh
   gradient norm :     0.0295705 Eh/α   predicted    -0.8448295E-02 (   9.38%)
   displ. norm   :     0.7376287 α      lambda       -0.9647909E-02
   maximum displ.:     0.3657044 α      in ANC's #7, #8, #15, ...

........................................................................
.............................. CYCLE   19 ..............................
........................................................................
------------------------------------------------------------
  cycle        total energy    energy error   density error
------------------------------------------------------------
      1     -124.5624875272  -1.2646452E+02   2.7200406E-03
      2     -124.5625234144  -3.5887188E-05   1.6503071E-03
      3     -124.5623688149   1.5459955E-04   8.9000410E-04
      4     -124.5625554479  -1.8663299E-04   1.3214915E-04
      5     -124.5625582768  -2.8289205E-06   7.9707380E-05
      6     -124.5625591641  -8.8735621E-07   4.4064282E-05
      7     -124.5625592532  -8.9037528E-08   2.0851774E-05
      8     -124.5625593031  -4.9969529E-08   8.9661253E-06
------------------------------------------------------------

 total:                                   0.425 sec
 * total energy  :  -124.5625593 Eh     change       -0.6136209E-02 Eh
   gradient norm :     0.0306367 Eh/α   predicted    -0.7448658E-02 (  21.39%)
   displ. norm   :     0.7181839 α      lambda       -0.7600435E-02
   maximum displ.:     0.3830548 α      in ANC's #7, #8, #9, ...

........................................................................
.............................. CYCLE   20 ..............................
........................................................................
------------------------------------------------------------
  cycle        total energy    energy error   density error
------------------------------------------------------------
      1     -124.5684264690  -1.2647169E+02   2.2288440E-03
      2     -124.5684536316  -2.7162625E-05   1.3307402E-03
      3     -124.5684065077   4.7123893E-05   5.4443307E-04
      4     -124.5684640207  -5.7513032E-05   1.1087800E-04
      5     -124.5684658275  -1.8067963E-06   5.9141723E-05
      6     -124.5684659797  -1.5214196E-07   3.8043337E-05
      7     -124.5684660787  -9.9022060E-08   1.7664291E-05
------------------------------------------------------------

 total:                                   0.366 sec
 * total energy  :  -124.5684661 Eh     change       -0.5906776E-02 Eh
   gradient norm :     0.0226526 Eh/α   predicted    -0.5760328E-02 (  -2.48%)
   displ. norm   :     0.7805695 α      lambda       -0.7390059E-02
   maximum displ.:     0.4396991 α      in ANC's #7, #8, #9, ...
 * RMSD in coord.:     1.3116235 α      energy gain  -0.1617490E+01 Eh

generating ANC from exact Hessian ...
Using Lindh-Hessian (1995)
 Shifting diagonal of input Hessian by    9.8747794647964220E-003
 Lowest  eigenvalues of input Hessian
    0.000000    0.000000    0.000000    0.000000    0.000000    0.000000
    0.010000    0.010020    0.010052    0.010271    0.010317    0.010398
    0.010431    0.010509    0.010711    0.010789    0.010837    0.011195
 Highest eigenvalues
    2.005830    2.020237    2.048435    2.078905    2.155491    2.175312


........................................................................
.............................. CYCLE   21 ..............................
........................................................................
------------------------------------------------------------
  cycle        total energy    energy error   density error
------------------------------------------------------------
      1     -124.5733015794  -1.2648621E+02   2.7809971E-03
      2     -124.5733601907  -5.8611323E-05   1.7183826E-03
      3     -124.5731904257   1.6976498E-04   9.5709582E-04
      4     -124.5734134479  -2.2302213E-04   1.6043388E-04
      5     -124.5734180274  -4.5795587E-06   6.7258720E-05
      6     -124.5734185274  -4.9994782E-07   4.2283022E-05
      7     -124.5734187435  -2.1613590E-07   1.5496569E-05
------------------------------------------------------------

 total:                                   0.316 sec
 * total energy  :  -124.5734187 Eh     change       -0.4952665E-02 Eh
   gradient norm :     0.0311725 Eh/α   predicted     0.0000000E+00 (-100.00%)
   displ. norm   :     0.4525043 α      lambda       -0.5091609E-02
   maximum displ.:     0.1698508 α      in ANC's #14, #20, #11, ...

........................................................................
.............................. CYCLE   22 ..............................
........................................................................
------------------------------------------------------------
  cycle        total energy    energy error   density error
------------------------------------------------------------
      1     -124.5777307065  -1.2648990E+02   1.4225637E-03
      2     -124.5777357283  -5.0218419E-06   8.6651857E-04
      3     -124.5776858817   4.9846614E-05   4.1589491E-04
      4     -124.5777418722  -5.5990504E-05   6.4155120E-05
      5     -124.5777426818  -8.0952360E-07   2.9792165E-05
      6     -124.5777427788  -9.7004431E-08   1.5388280E-05
------------------------------------------------------------

 total:                                   0.308 sec
 * total energy  :  -124.5777428 Eh     change       -0.4324035E-02 Eh
   gradient norm :     0.0132974 Eh/α   predicted    -0.3067137E-02 ( -29.07%)
   displ. norm   :     0.7713169 α      lambda       -0.5953962E-02
   maximum displ.:     0.2900849 α      in ANC's #14, #11, #20, ...

........................................................................
.............................. CYCLE   23 ..............................
........................................................................
------------------------------------------------------------
  cycle        total energy    energy error   density error
------------------------------------------------------------
      1     -124.5828235976  -1.2649111E+02   1.8938293E-03
      2     -124.5828317537  -8.1560939E-06   1.1391698E-03
      3     -124.5827726303   5.9123379E-05   4.5134089E-04
      4     -124.5828384885  -6.5858124E-05   7.9455341E-05
      5     -124.5828396713  -1.1828918E-06   3.7705211E-05
      6     -124.5828397841  -1.1272854E-07   2.1099600E-05
      7     -124.5828398227  -3.8623085E-08   1.0215149E-05
------------------------------------------------------------

 total:                                   0.351 sec
 * total energy  :  -124.5828398 Eh     change       -0.5097044E-02 Eh
   gradient norm :     0.0130121 Eh/α   predicted    -0.4748418E-02 (  -6.84%)
   displ. norm   :     0.8263816 α      lambda       -0.5056456E-02
   maximum displ.:     0.3067551 α      in ANC's #14, #11, #20, ...

........................................................................
.............................. CYCLE   24 ..............................
........................................................................
------------------------------------------------------------
  cycle        total energy    energy error   density error
------------------------------------------------------------
      1     -124.5874625819  -1.2649211E+02   1.7874810E-03
      2     -124.5874680122  -5.4303404E-06   1.0627106E-03
      3     -124.5874425500   2.5462168E-05   3.1033267E-04
      4     -124.5874713672  -2.8817181E-05   5.3958293E-05
      5     -124.5874717092  -3.4193889E-07   2.9993249E-05
      6     -124.5874717758  -6.6603661E-08   1.6304091E-05
------------------------------------------------------------

 total:                                   0.279 sec
 * total energy  :  -124.5874718 Eh     change       -0.4631953E-02 Eh
   gradient norm :     0.0202799 Eh/α   predicted    -0.4254773E-02 (  -8.14%)
   displ. norm   :     0.8607079 α      lambda       -0.5122047E-02
   maximum displ.:     0.3106848 α      in ANC's #14, #11, #8, ...

........................................................................
.............................. CYCLE   25 ..............................
........................................................................
------------------------------------------------------------
  cycle        total energy    energy error   density error
------------------------------------------------------------
      1     -124.5922264400  -1.2649628E+02   1.9100543E-03
      2     -124.5922316033  -5.1632962E-06   1.1334114E-03
      3     -124.5922068395   2.4763880E-05   3.0178178E-04
      4     -124.5922345662  -2.7726751E-05   5.2403112E-05
      5     -124.5922349740  -4.0775934E-07   2.7920384E-05
      6     -124.5922350264  -5.2432952E-08   1.6031188E-05
------------------------------------------------------------

 total:                                   0.370 sec
 * total energy  :  -124.5922350 Eh     change       -0.4763251E-02 Eh
   gradient norm :     0.0188748 Eh/α   predicted    -0.4458278E-02 (  -6.40%)
   displ. norm   :     0.8608314 α      lambda       -0.5059187E-02
   maximum displ.:     0.2959443 α      in ANC's #14, #8, #11, ...

........................................................................
.............................. CYCLE   26 ..............................
........................................................................
------------------------------------------------------------
  cycle        total energy    energy error   density error
------------------------------------------------------------
      1     -124.5967863081  -1.2650508E+02   2.1281760E-03
      2     -124.5967937551  -7.4469870E-06   1.2597826E-03
      3     -124.5967605253   3.3229717E-05   3.5511135E-04
      4     -124.5967978279  -3.7302522E-05   5.5459331E-05
      5     -124.5967983623  -5.3446669E-07   2.5459719E-05
      6     -124.5967983829  -2.0610699E-08   1.5138750E-05
------------------------------------------------------------

 total:                                   0.311 sec
 * total energy  :  -124.5967984 Eh     change       -0.4563357E-02 Eh
   gradient norm :     0.0107623 Eh/α   predicted    -0.4404103E-02 (  -3.49%)
   displ. norm   :     0.8805718 α      lambda       -0.4318434E-02
   maximum displ.:     0.2954556 α      in ANC's #14, #8, #4, ...

........................................................................
.............................. CYCLE   27 ..............................
........................................................................
------------------------------------------------------------
  cycle        total energy    energy error   density error
------------------------------------------------------------
      1     -124.6006810328  -1.2650831E+02   2.2347574E-03
      2     -124.6006859576  -4.9248350E-06   1.3189586E-03
      3     -124.6006567825   2.9175164E-05   3.1872679E-04
      4     -124.6006891327  -3.2350178E-05   5.1902796E-05
      5     -124.6006896116  -4.7894123E-07   2.4072296E-05
      6     -124.6006896303  -1.8705620E-08   1.3573368E-05
------------------------------------------------------------

 total:                                   0.299 sec
 * total energy  :  -124.6006896 Eh     change       -0.3891247E-02 Eh
   gradient norm :     0.0102142 Eh/α   predicted    -0.3833494E-02 (  -1.48%)
   displ. norm   :     0.8505301 α      lambda       -0.3707390E-02
   maximum displ.:     0.2939615 α      in ANC's #4, #8, #14, ...

........................................................................
.............................. CYCLE   28 ..............................
........................................................................
------------------------------------------------------------
  cycle        total energy    energy error   density error
------------------------------------------------------------
      1     -124.6039374657  -1.2651635E+02   2.2005904E-03
      2     -124.6039415646  -4.0989714E-06   1.2967235E-03
      3     -124.6039237107   1.7853896E-05   2.3934840E-04
      4     -124.6039433385  -1.9627703E-05   5.0413093E-05
      5     -124.6039438762  -5.3773630E-07   2.1782240E-05
      6     -124.6039438979  -2.1692003E-08   1.1299915E-05
------------------------------------------------------------

 total:                                   0.340 sec
 * total energy  :  -124.6039439 Eh     change       -0.3254268E-02 Eh
   gradient norm :     0.0111019 Eh/α   predicted    -0.3194674E-02 (  -1.83%)
   displ. norm   :     0.8471151 α      lambda       -0.3128426E-02
   maximum displ.:     0.3176486 α      in ANC's #4, #8, #14, ...

........................................................................
.............................. CYCLE   29 ..............................
........................................................................
------------------------------------------------------------
  cycle        total energy    energy error   density error
------------------------------------------------------------
      1     -124.6065820944  -1.2651403E+02   2.0964001E-03
      2     -124.6065862530  -4.1585410E-06   1.2387408E-03
      3     -124.6065754392   1.0813739E-05   1.9694985E-04
      4     -124.6065874705  -1.2031270E-05   5.3313362E-05
      5     -124.6065880409  -5.7039570E-07   2.3978769E-05
      6     -124.6065880674  -2.6487683E-08   1.2467047E-05
------------------------------------------------------------

 total:                                   0.274 sec
 * total energy  :  -124.6065881 Eh     change       -0.2644170E-02 Eh
   gradient norm :     0.0131611 Eh/α   predicted    -0.2686720E-02 (   1.61%)
   displ. norm   :     0.7843249 α      lambda       -0.2826659E-02
   maximum displ.:     0.3293970 α      in ANC's #4, #8, #9, ...

........................................................................
.............................. CYCLE   30 ..............................
........................................................................
------------------------------------------------------------
  cycle        total energy    energy error   density error
------------------------------------------------------------
      1     -124.6088892972  -1.2652600E+02   2.0268330E-03
      2     -124.6088967833  -7.4860648E-06   1.1937848E-03
      3     -124.6088827150   1.4068289E-05   2.6957301E-04
      4     -124.6088988792  -1.6164162E-05   5.4558199E-05
      5     -124.6088994069  -5.2773568E-07   2.6385880E-05
      6     -124.6088994689  -6.1972742E-08   1.4918566E-05
------------------------------------------------------------

 total:                                   0.317 sec
 * total energy  :  -124.6088995 Eh     change       -0.2311401E-02 Eh
   gradient norm :     0.0096143 Eh/α   predicted    -0.2282766E-02 (  -1.24%)
   displ. norm   :     0.7952728 α      lambda       -0.2285881E-02
   maximum displ.:     0.3554786 α      in ANC's #4, #8, #9, ...

........................................................................
.............................. CYCLE   31 ..............................
........................................................................
------------------------------------------------------------
  cycle        total energy    energy error   density error
------------------------------------------------------------
      1     -124.6108735919  -1.2652550E+02   1.8849038E-03
      2     -124.6108795459  -5.9540441E-06   1.1127561E-03
      3     -124.6108655085   1.4037358E-05   2.7480591E-04
      4     -124.6108816844  -1.6175838E-05   4.8968948E-05
      5     -124.6108820336  -3.4920829E-07   2.5139123E-05
      6     -124.6108820693  -3.5744335E-08   1.4916744E-05
------------------------------------------------------------

 total:                                   0.293 sec
 * total energy  :  -124.6108821 Eh     change       -0.1982600E-02 Eh
   gradient norm :     0.0116573 Eh/α   predicted    -0.1865806E-02 (  -5.89%)
   displ. norm   :     0.7888256 α      lambda       -0.2309159E-02
   maximum displ.:     0.3738290 α      in ANC's #4, #8, #9, ...

........................................................................
.............................. CYCLE   32 ..............................
........................................................................
------------------------------------------------------------
  cycle        total energy    energy error   density error
------------------------------------------------------------
      1     -124.6128445314  -1.2652975E+02   1.9587612E-03
      2     -124.6128513366  -6.8051862E-06   1.1507742E-03
      3     -124.6128349594   1.6377219E-05   3.1772509E-04
      4     -124.6128542490  -1.9289635E-05   5.0023855E-05
      5     -124.6128545142  -2.6513621E-07   2.7570382E-05
      6     -124.6128545409  -2.6735762E-08   1.4363284E-05
------------------------------------------------------------

 total:                                   0.289 sec
 * total energy  :  -124.6128545 Eh     change       -0.1972472E-02 Eh
   gradient norm :     0.0134420 Eh/α   predicted    -0.1873043E-02 (  -5.04%)
   displ. norm   :     0.8099218 α      lambda       -0.2373284E-02
   maximum displ.:     0.3859195 α      in ANC's #4, #8, #20, ...

........................................................................
.............................. CYCLE   33 ..............................
........................................................................
------------------------------------------------------------
  cycle        total energy    energy error   density error
------------------------------------------------------------
      1     -124.6147811051  -1.2653315E+02   2.0570374E-03
      2     -124.6147895724  -8.4673385E-06   1.2080867E-03
      3     -124.6147593764   3.0196017E-05   3.6756692E-04
      4     -124.6147939189  -3.4542555E-05   6.2294847E-05
      5     -124.6147944130  -4.9409049E-07   3.2886894E-05
      6     -124.6147944572  -4.4168956E-08   1.8548399E-05
------------------------------------------------------------

 total:                                   0.327 sec
 * total energy  :  -124.6147945 Eh     change       -0.1939916E-02 Eh
   gradient norm :     0.0149161 Eh/α   predicted    -0.1965050E-02 (   1.30%)
   displ. norm   :     0.7978244 α      lambda       -0.2148091E-02
   maximum displ.:     0.3853786 α      in ANC's #4, #8, #9, ...

........................................................................
.............................. CYCLE   34 ..............................
........................................................................
------------------------------------------------------------
  cycle        total energy    energy error   density error
------------------------------------------------------------
      1     -124.6166541630  -1.2653064E+02   1.9186011E-03
      2     -124.6166586379  -4.4749956E-06   1.1295301E-03
      3     -124.6166270053   3.1632644E-05   3.3421058E-04
      4     -124.6166621791  -3.5173842E-05   5.4581187E-05
      5     -124.6166626146  -4.3540814E-07   2.9886577E-05
      6     -124.6166626840  -6.9437476E-08   1.2775642E-05
------------------------------------------------------------

 total:                                   0.281 sec
 * total energy  :  -124.6166627 Eh     change       -0.1868227E-02 Eh
   gradient norm :     0.0122127 Eh/α   predicted    -0.1757710E-02 (  -5.92%)
   displ. norm   :     0.7876357 α      lambda       -0.2187924E-02
   maximum displ.:     0.3796854 α      in ANC's #4, #8, #20, ...

........................................................................
.............................. CYCLE   35 ..............................
........................................................................
------------------------------------------------------------
  cycle        total energy    energy error   density error
------------------------------------------------------------
      1     -124.6181416727  -1.2653628E+02   2.0212512E-03
      2     -124.6181558487  -1.4176060E-05   1.1881335E-03
      3     -124.6181317431   2.4105609E-05   3.5332285E-04
      4     -124.6181586298  -2.6886687E-05   8.8348078E-05
      5     -124.6181604734  -1.8436040E-06   3.7297059E-05
      6     -124.6181605895  -1.1605030E-07   2.0178611E-05
      7     -124.6181606264  -3.6932008E-08   5.4318583E-06
------------------------------------------------------------

 total:                                   0.330 sec
 * total energy  :  -124.6181606 Eh     change       -0.1497942E-02 Eh
   gradient norm :     0.0172109 Eh/α   predicted    -0.1772624E-02 (  18.34%)
   displ. norm   :     0.7486326 α      lambda       -0.2115987E-02
   maximum displ.:     0.3598637 α      in ANC's #4, #8, #3, ...

........................................................................
.............................. CYCLE   36 ..............................
........................................................................
------------------------------------------------------------
  cycle        total energy    energy error   density error
------------------------------------------------------------
      1     -124.6194529390  -1.2653239E+02   1.9380678E-03
      2     -124.6194709251  -1.7986149E-05   1.1264259E-03
      3     -124.6194617142   9.2108689E-06   2.7346382E-04
      4     -124.6194721790  -1.0464795E-05   9.2367184E-05
      5     -124.6194740269  -1.8478890E-06   3.7503421E-05
      6     -124.6194740604  -3.3457752E-08   2.1925473E-05
      7     -124.6194741389  -7.8530462E-08   4.4753394E-06
------------------------------------------------------------

 total:                                   0.377 sec
 * total energy  :  -124.6194741 Eh     change       -0.1313513E-02 Eh
   gradient norm :     0.0167848 Eh/α   predicted    -0.1650951E-02 (  25.69%)
   displ. norm   :     0.6807966 α      lambda       -0.1622554E-02
   maximum displ.:     0.3222300 α      in ANC's #4, #8, #3, ...

........................................................................
.............................. CYCLE   37 ..............................
........................................................................
------------------------------------------------------------
  cycle        total energy    energy error   density error
------------------------------------------------------------
      1     -124.6205475961  -1.2652738E+02   1.7830742E-03
      2     -124.6205551009  -7.5047857E-06   1.0450557E-03
      3     -124.6205453637   9.7371900E-06   2.5449537E-04
      4     -124.6205570263  -1.1662645E-05   5.5548769E-05
      5     -124.6205574056  -3.7926542E-07   2.8106141E-05
      6     -124.6205574320  -2.6431380E-08   1.6038558E-05
------------------------------------------------------------

 total:                                   0.299 sec
 * total energy  :  -124.6205574 Eh     change       -0.1083293E-02 Eh
   gradient norm :     0.0144777 Eh/α   predicted    -0.1187305E-02 (   9.60%)
   displ. norm   :     0.6033018 α      lambda       -0.1267706E-02
   maximum displ.:     0.2906663 α      in ANC's #4, #8, #3, ...

........................................................................
.............................. CYCLE   38 ..............................
........................................................................
------------------------------------------------------------
  cycle        total energy    energy error   density error
------------------------------------------------------------
      1     -124.6215522867  -1.2653447E+02   1.4420384E-03
      2     -124.6215580886  -5.8019052E-06   8.5298934E-04
      3     -124.6215346578   2.3430764E-05   2.9690422E-04
      4     -124.6215610933  -2.6435444E-05   5.1161456E-05
      5     -124.6215615976  -5.0433650E-07   2.4662519E-05
      6     -124.6215616378  -4.0199353E-08   1.3886257E-05
------------------------------------------------------------

 total:                                   0.276 sec
 * total energy  :  -124.6215616 Eh     change       -0.1004206E-02 Eh
   gradient norm :     0.0104229 Eh/α   predicted    -0.8645617E-03 ( -13.91%)
   displ. norm   :     0.7289928 α      lambda       -0.1248541E-02
   maximum displ.:     0.3488899 α      in ANC's #4, #8, #3, ...

........................................................................
.............................. CYCLE   39 ..............................
........................................................................
------------------------------------------------------------
  cycle        total energy    energy error   density error
------------------------------------------------------------
      1     -124.6224508775  -1.2653614E+02   1.7681759E-03
      2     -124.6224563675  -5.4899849E-06   1.0442102E-03
      3     -124.6224295982   2.6769272E-05   3.1166747E-04
      4     -124.6224592716  -2.9673348E-05   5.4797033E-05
      5     -124.6224598647  -5.9309389E-07   2.6078817E-05
      6     -124.6224599082  -4.3544901E-08   1.4306649E-05
------------------------------------------------------------

 total:                                   0.275 sec
 * total energy  :  -124.6224599 Eh     change       -0.8982704E-03 Eh
   gradient norm :     0.0106045 Eh/α   predicted    -0.9560327E-03 (   6.43%)
   displ. norm   :     0.6375573 α      lambda       -0.1110986E-02
   maximum displ.:     0.2774152 α      in ANC's #4, #8, #3, ...

........................................................................
.............................. CYCLE   40 ..............................
........................................................................
------------------------------------------------------------
  cycle        total energy    energy error   density error
------------------------------------------------------------
      1     -124.6231151048  -1.2654923E+02   1.6313054E-03
      2     -124.6231227758  -7.6709264E-06   9.6081200E-04
      3     -124.6231065900   1.6185744E-05   2.8871303E-04
      4     -124.6231248944  -1.8304431E-05   6.4669593E-05
      5     -124.6231257493  -8.5487579E-07   3.0835291E-05
      6     -124.6231258423  -9.2991286E-08   1.6371904E-05
------------------------------------------------------------

 total:                                   0.286 sec
 * total energy  :  -124.6231258 Eh     change       -0.6659341E-03 Eh
   gradient norm :     0.0115006 Eh/α   predicted    -0.7812986E-03 (  17.32%)
   displ. norm   :     0.7007165 α      lambda       -0.9677143E-03
   maximum displ.:     0.3465988 α      in ANC's #4, #8, #3, ...

........................................................................
.............................. CYCLE   41 ..............................
........................................................................
------------------------------------------------------------
  cycle        total energy    energy error   density error
------------------------------------------------------------
      1     -124.6237033967  -1.2653712E+02   1.7463503E-03
      2     -124.6237087095  -5.3127872E-06   1.0370520E-03
      3     -124.6236865751   2.2134398E-05   3.0867845E-04
      4     -124.6237118710  -2.5295918E-05   4.5323553E-05
      5     -124.6237121474  -2.7642085E-07   2.5558333E-05
      6     -124.6237121851  -3.7700715E-08   1.3355923E-05
------------------------------------------------------------

 total:                                   0.278 sec
 * total energy  :  -124.6237122 Eh     change       -0.5863428E-03 Eh
   gradient norm :     0.0106433 Eh/α   predicted    -0.7214371E-03 (  23.04%)
   displ. norm   :     0.4769076 α      lambda       -0.6795014E-03
   maximum displ.:     0.2101945 α      in ANC's #4, #8, #3, ...

........................................................................
.............................. CYCLE   42 ..............................
........................................................................
------------------------------------------------------------
  cycle        total energy    energy error   density error
------------------------------------------------------------
      1     -124.6241505245  -1.2654257E+02   1.1102731E-03
      2     -124.6241544216  -3.8971606E-06   6.5358550E-04
      3     -124.6241441051   1.0316491E-05   2.0836386E-04
      4     -124.6241557269  -1.1621803E-05   5.1008442E-05
      5     -124.6241562521  -5.2516381E-07   2.4016948E-05
      6     -124.6241562674  -1.5343772E-08   1.4118099E-05
------------------------------------------------------------

 total:                                   0.275 sec
 * total energy  :  -124.6241563 Eh     change       -0.4440823E-03 Eh
   gradient norm :     0.0094080 Eh/α   predicted    -0.4170279E-03 (  -6.09%)
   displ. norm   :     0.5628045 α      lambda       -0.6293338E-03
   maximum displ.:     0.2534626 α      in ANC's #4, #8, #3, ...
 * RMSD in coord.:     1.4280257 α      energy gain  -0.5569019E-01 Eh

generating ANC from exact Hessian ...
Using Lindh-Hessian (1995)
 Shifting diagonal of input Hessian by    9.8810264978096748E-003
 Lowest  eigenvalues of input Hessian
    0.000000    0.000000    0.000000    0.000000    0.000000    0.000000
    0.010000    0.010033    0.010040    0.010270    0.010340    0.010398
    0.010427    0.010553    0.010708    0.010799    0.011047    0.011193
 Highest eigenvalues
    2.015193    2.039325    2.069791    2.094346    2.183073    2.188533


........................................................................
.............................. CYCLE   43 ..............................
........................................................................
------------------------------------------------------------
  cycle        total energy    energy error   density error
------------------------------------------------------------
      1     -124.6245898046  -1.2654227E+02   1.3202199E-03
      2     -124.6245924290  -2.6243967E-06   7.8993462E-04
      3     -124.6245782285   1.4200422E-05   2.2037901E-04
      4     -124.6245941096  -1.5881018E-05   3.8007478E-05
      5     -124.6245943322  -2.2264557E-07   1.9829156E-05
------------------------------------------------------------

 total:                                   0.237 sec
 * total energy  :  -124.6245943 Eh     change       -0.4380648E-03 Eh
   gradient norm :     0.0087082 Eh/α   predicted     0.0000000E+00 (-100.00%)
   displ. norm   :     0.1085754 α      lambda       -0.2891684E-03
   maximum displ.:     0.0396234 α      in ANC's #2, #6, #11, ...

........................................................................
.............................. CYCLE   44 ..............................
........................................................................
------------------------------------------------------------
  cycle        total energy    energy error   density error
------------------------------------------------------------
      1     -124.6248199301  -1.2654404E+02   4.4186401E-04
      2     -124.6248211789  -1.2487916E-06   2.6579725E-04
      3     -124.6248168883   4.2905584E-06   1.4172681E-04
      4     -124.6248220461  -5.1578078E-06   2.4476770E-05
      5     -124.6248221732  -1.2704619E-07   1.1474901E-05
------------------------------------------------------------

 total:                                   0.246 sec
 * total energy  :  -124.6248222 Eh     change       -0.2278409E-03 Eh
   gradient norm :     0.0035657 Eh/α   predicted    -0.1466404E-03 ( -35.64%)
   displ. norm   :     0.2791615 α      lambda       -0.4006596E-03
   maximum displ.:     0.1044242 α      in ANC's #2, #6, #4, ...

........................................................................
.............................. CYCLE   45 ..............................
........................................................................
------------------------------------------------------------
  cycle        total energy    energy error   density error
------------------------------------------------------------
      1     -124.6251145636  -1.2654547E+02   8.6058435E-04
      2     -124.6251179527  -3.3890781E-06   5.1428812E-04
      3     -124.6251115039   6.4488035E-06   1.9691909E-04
      4     -124.6251192922  -7.7883156E-06   3.1198493E-05
      5     -124.6251194192  -1.2695487E-07   1.5944209E-05
------------------------------------------------------------

 total:                                   0.238 sec
 * total energy  :  -124.6251194 Eh     change       -0.2972460E-03 Eh
   gradient norm :     0.0047093 Eh/α   predicted    -0.2159463E-03 ( -27.35%)
   displ. norm   :     0.3794255 α      lambda       -0.3573838E-03
   maximum displ.:     0.1466735 α      in ANC's #2, #6, #4, ...

........................................................................
.............................. CYCLE   46 ..............................
........................................................................
------------------------------------------------------------
  cycle        total energy    energy error   density error
------------------------------------------------------------
      1     -124.6254097095  -1.2654471E+02   1.0509322E-03
      2     -124.6254126905  -2.9810725E-06   6.2360537E-04
      3     -124.6254076350   5.0555432E-06   1.7569445E-04
      4     -124.6254135553  -5.9203444E-06   3.3617434E-05
      5     -124.6254137109  -1.5557120E-07   1.9142142E-05
------------------------------------------------------------

 total:                                   0.235 sec
 * total energy  :  -124.6254137 Eh     change       -0.2942917E-03 Eh
   gradient norm :     0.0069044 Eh/α   predicted    -0.2044505E-03 ( -30.53%)
   displ. norm   :     0.5163069 α      lambda       -0.4228927E-03
   maximum displ.:     0.2072996 α      in ANC's #2, #6, #4, ...

........................................................................
.............................. CYCLE   47 ..............................
........................................................................
------------------------------------------------------------
  cycle        total energy    energy error   density error
------------------------------------------------------------
      1     -124.6257397511  -1.2654233E+02   1.3277261E-03
      2     -124.6257433954  -3.6443378E-06   7.8994485E-04
      3     -124.6257324876   1.0907796E-05   2.3633581E-04
      4     -124.6257448535  -1.2365896E-05   4.3952238E-05
      5     -124.6257451827  -3.2918983E-07   2.2873310E-05
      6     -124.6257452496  -6.6875984E-08   1.0661622E-05
------------------------------------------------------------

 total:                                   0.315 sec
 * total energy  :  -124.6257452 Eh     change       -0.3315386E-03 Eh
   gradient norm :     0.0057922 Eh/α   predicted    -0.2678129E-03 ( -19.22%)
   displ. norm   :     0.4638727 α      lambda       -0.3040842E-03
   maximum displ.:     0.1991431 α      in ANC's #2, #4, #6, ...

........................................................................
.............................. CYCLE   48 ..............................
........................................................................
------------------------------------------------------------
  cycle        total energy    energy error   density error
------------------------------------------------------------
      1     -124.6259689501  -1.2654144E+02   1.0733605E-03
      2     -124.6259710007  -2.0505638E-06   6.3826677E-04
      3     -124.6259656524   5.3483138E-06   1.7282542E-04
      4     -124.6259718046  -6.1522396E-06   3.1600171E-05
      5     -124.6259719425  -1.3790070E-07   1.6742261E-05
------------------------------------------------------------

 total:                                   0.245 sec
 * total energy  :  -124.6259719 Eh     change       -0.2266930E-03 Eh
   gradient norm :     0.0046551 Eh/α   predicted    -0.1847587E-03 ( -18.50%)
   displ. norm   :     0.3471898 α      lambda       -0.2134016E-03
   maximum displ.:     0.1622920 α      in ANC's #2, #6, #4, ...

........................................................................
.............................. CYCLE   49 ..............................
........................................................................
------------------------------------------------------------
  cycle        total energy    energy error   density error
------------------------------------------------------------
      1     -124.6261369041  -1.2654332E+02   7.3349823E-04
      2     -124.6261382415  -1.3374009E-06   4.3356691E-04
      3     -124.6261339764   4.2651132E-06   1.6160770E-04
      4     -124.6261389637  -4.9872813E-06   2.3019566E-05
      5     -124.6261390615  -9.7792267E-08   1.2211286E-05
------------------------------------------------------------

 total:                                   0.257 sec
 * total energy  :  -124.6261391 Eh     change       -0.1671190E-03 Eh
   gradient norm :     0.0037100 Eh/α   predicted    -0.1195701E-03 ( -28.45%)
   displ. norm   :     0.3601760 α      lambda       -0.2043031E-03
   maximum displ.:     0.1783588 α      in ANC's #2, #6, #4, ...

........................................................................
.............................. CYCLE   50 ..............................
........................................................................
------------------------------------------------------------
  cycle        total energy    energy error   density error
------------------------------------------------------------
      1     -124.6262986104  -1.2654558E+02   7.6050969E-04
      2     -124.6262997670  -1.1565738E-06   4.4881486E-04
      3     -124.6262934829   6.2840994E-06   1.7207539E-04
      4     -124.6263006235  -7.1406276E-06   2.4868460E-05
      5     -124.6263007633  -1.3981020E-07   1.1676418E-05
------------------------------------------------------------

 total:                                   0.248 sec
 * total energy  :  -124.6263008 Eh     change       -0.1617018E-03 Eh
   gradient norm :     0.0035760 Eh/α   predicted    -0.1154043E-03 ( -28.63%)
   displ. norm   :     0.4021671 α      lambda       -0.1939393E-03
   maximum displ.:     0.2058741 α      in ANC's #2, #6, #4, ...

........................................................................
.............................. CYCLE   51 ..............................
........................................................................
------------------------------------------------------------
  cycle        total energy    energy error   density error
------------------------------------------------------------
      1     -124.6264570643  -1.2654647E+02   8.6466689E-04
      2     -124.6264577923  -7.2803044E-07   5.0940516E-04
      3     -124.6264549074   2.8849468E-06   1.1971101E-04
      4     -124.6264582373  -3.3299751E-06   1.8336915E-05
      5     -124.6264582718  -3.4435189E-08   1.1101864E-05
------------------------------------------------------------

 total:                                   0.237 sec
 * total energy  :  -124.6264583 Eh     change       -0.1575084E-03 Eh
   gradient norm :     0.0039350 Eh/α   predicted    -0.1126557E-03 ( -28.48%)
   displ. norm   :     0.4272280 α      lambda       -0.1936227E-03
   maximum displ.:     0.2240558 α      in ANC's #2, #6, #4, ...

........................................................................
.............................. CYCLE   52 ..............................
........................................................................
------------------------------------------------------------
  cycle        total energy    energy error   density error
------------------------------------------------------------
      1     -124.6266157244  -1.2654675E+02   9.3884441E-04
      2     -124.6266162069  -4.8248901E-07   5.5184872E-04
      3     -124.6266115183   4.6885659E-06   1.2235952E-04
      4     -124.6266167301  -5.2118061E-06   1.8761689E-05
      5     -124.6266167660  -3.5893635E-08   1.0678421E-05
------------------------------------------------------------

 total:                                   0.266 sec
 * total energy  :  -124.6266168 Eh     change       -0.1584943E-03 Eh
   gradient norm :     0.0037741 Eh/α   predicted    -0.1144818E-03 ( -27.77%)
   displ. norm   :     0.4540798 α      lambda       -0.1903150E-03
   maximum displ.:     0.2412737 α      in ANC's #2, #6, #4, ...

........................................................................
.............................. CYCLE   53 ..............................
........................................................................
------------------------------------------------------------
  cycle        total energy    energy error   density error
------------------------------------------------------------
      1     -124.6267692424  -1.2654606E+02   9.8678067E-04
      2     -124.6267699877  -7.4531631E-07   5.8257630E-04
      3     -124.6267682546   1.7331061E-06   9.1896980E-05
      4     -124.6267703254  -2.0707779E-06   1.8035109E-05
      5     -124.6267703524  -2.7034730E-08   9.7932312E-06
------------------------------------------------------------

 total:                                   0.236 sec
 * total energy  :  -124.6267704 Eh     change       -0.1535864E-03 Eh
   gradient norm :     0.0031219 Eh/α   predicted    -0.1147796E-03 ( -25.27%)
   displ. norm   :     0.4377890 α      lambda       -0.1653793E-03
   maximum displ.:     0.2351146 α      in ANC's #2, #6, #4, ...

........................................................................
.............................. CYCLE   54 ..............................
........................................................................
------------------------------------------------------------
  cycle        total energy    energy error   density error
------------------------------------------------------------
      1     -124.6268973568  -1.2654569E+02   9.1439782E-04
      2     -124.6268983631  -1.0062800E-06   5.4107212E-04
      3     -124.6268957798   2.5832751E-06   1.1028349E-04
      4     -124.6268987473  -2.9674999E-06   2.0603028E-05
      5     -124.6268988133  -6.6026374E-08   1.0279968E-05
------------------------------------------------------------

 total:                                   0.250 sec
 * total energy  :  -124.6268988 Eh     change       -0.1284609E-03 Eh
   gradient norm :     0.0027743 Eh/α   predicted    -0.9853902E-04 ( -23.29%)
   displ. norm   :     0.3873445 α      lambda       -0.1211803E-03
   maximum displ.:     0.2113561 α      in ANC's #2, #6, #4, ...

........................................................................
.............................. CYCLE   55 ..............................
........................................................................
------------------------------------------------------------
  cycle        total energy    energy error   density error
------------------------------------------------------------
      1     -124.6269900269  -1.2654492E+02   7.4356789E-04
      2     -124.6269908173  -7.9042938E-07   4.4276335E-04
      3     -124.6269885439   2.2734047E-06   1.0354647E-04
      4     -124.6269911660  -2.6220676E-06   1.7016898E-05
      5     -124.6269912024  -3.6449705E-08   8.5063958E-06
------------------------------------------------------------

 total:                                   0.264 sec
 * total energy  :  -124.6269912 Eh     change       -0.9238911E-04 Eh
   gradient norm :     0.0027059 Eh/α   predicted    -0.6968191E-04 ( -24.58%)
   displ. norm   :     0.3165115 α      lambda       -0.9382425E-04
   maximum displ.:     0.1738351 α      in ANC's #2, #6, #3, ...

........................................................................
.............................. CYCLE   56 ..............................
........................................................................
------------------------------------------------------------
  cycle        total energy    energy error   density error
------------------------------------------------------------
      1     -124.6270582208  -1.2654626E+02   5.6171131E-04
      2     -124.6270587483  -5.2757420E-07   3.3493329E-04
      3     -124.6270569854   1.7629232E-06   8.6109715E-05
      4     -124.6270589810  -1.9955838E-06   1.5861211E-05
      5     -124.6270590242  -4.3202036E-08   8.0471029E-06
------------------------------------------------------------

 total:                                   0.244 sec
 * total energy  :  -124.6270590 Eh     change       -0.6782176E-04 Eh
   gradient norm :     0.0026428 Eh/α   predicted    -0.5161218E-04 ( -23.90%)
   displ. norm   :     0.3236014 α      lambda       -0.7707311E-04
   maximum displ.:     0.1814725 α      in ANC's #2, #6, #3, ...

........................................................................
.............................. CYCLE   57 ..............................
........................................................................
[...]
   105   6 C      106   6 C                                       1.4190748
   106   6 C      107   6 C                                       1.4084310
    97   6 C      108   7 N                                       1.4468720
   102   6 C      108   7 N                                       1.3926287
   107   6 C      108   7 N                                       1.3880150
   105   6 C      109   6 C                                       1.4323141
   109   6 C      110   6 C                                       1.4155923
    98   6 C      111   7 N                                       1.4456503
   110   6 C      111   7 N                                       1.3895910
   106   6 C      112   6 C                                       1.4074817
   111   7 N      112   6 C                                       1.3922589
   112   6 C      113   6 C                                       1.3865487
   113   6 C      114   6 C                                       1.3915114
   107   6 C      115   6 C                                       1.3928684
   114   6 C      115   6 C                                       1.3907368
   109   6 C      116   6 C                                       1.4081738
   116   6 C      117   6 C                                       1.3846087
   117   6 C      118   6 C                                       1.3871318
   110   6 C      119   6 C                                       1.3880775
   118   6 C      119   6 C                                       1.3930900
   116   6 C      120   8 O                                       1.3899250
   100   6 C      121   8 O                                       1.3644865
    99   6 C      122   1 H                                       1.0765620
   103   6 C      123   1 H                                       1.0738945
   117   6 C      124   1 H                                       1.0770661
   119   6 C      125   1 H                                       1.0778811
   113   6 C      126   1 H                                       1.0771928
   115   6 C      127   1 H                                       1.0731794 (min)
    98   6 C      128   6 C                                       1.5331710
   128   6 C      129   6 C                                       1.5229283
    97   6 C      130   6 C                                       1.5315638
   130   6 C      131   6 C                                       1.5233672
   120   8 O      132   6 C                                       1.4073044
   121   8 O      133   6 C                                       1.4020200
   134   6 C      135   6 C                                       1.5354663
   134   6 C      136   6 C                                       1.5362750
   134   6 C      137   6 C                                       1.5328600
   138   6 C      139   6 C                                       1.5357151
   138   6 C      140   6 C                                       1.5309172
   138   6 C      141   6 C                                       1.5352235
   142   6 C      143   6 C                                       1.5310659
   142   6 C      144   6 C                                       1.5347443
   142   6 C      145   6 C                                       1.5364400
   144   6 C      146   1 H                                       1.0884132
   144   6 C      147   1 H                                       1.0874423
   144   6 C      148   1 H                                       1.0863088
   143   6 C      149   1 H                                       1.0884435
   143   6 C      150   1 H                                       1.0874535
   143   6 C      151   1 H                                       1.0872505
   145   6 C      152   1 H                                       1.0882821
   145   6 C      153   1 H                                       1.0862811
   145   6 C      154   1 H                                       1.0878763
   141   6 C      155   1 H                                       1.0882928
   141   6 C      156   1 H                                       1.0878800
   141   6 C      157   1 H                                       1.0865602
   140   6 C      158   1 H                                       1.0884339
   140   6 C      159   1 H                                       1.0872846
   140   6 C      160   1 H                                       1.0871715
   137   6 C      161   1 H                                       1.0883609
   137   6 C      162   1 H                                       1.0863992
   137   6 C      163   1 H                                       1.0880886
   136   6 C      164   1 H                                       1.0883336
   136   6 C      165   1 H                                       1.0880108
   136   6 C      166   1 H                                       1.0857121
   135   6 C      167   1 H                                       1.0884248
   135   6 C      168   1 H                                       1.0874991
   135   6 C      169   1 H                                       1.0873793
   139   6 C      170   1 H                                       1.0881487
   139   6 C      171   1 H                                       1.0864245
   139   6 C      172   1 H                                       1.0877387
    98   6 C      173   1 H                                       1.0891210
    98   6 C      174   1 H                                       1.0977380
   128   6 C      175   1 H                                       1.0909037
   128   6 C      176   1 H                                       1.0923278
   129   6 C      177   1 H                                       1.0880997
   129   6 C      178   1 H                                       1.0874606
   129   6 C      179   1 H                                       1.0878408
   132   6 C      180   1 H                                       1.0892133
   132   6 C      181   1 H                                       1.0943567
   132   6 C      182   1 H                                       1.0974851
   133   6 C      183   1 H                                       1.0893567
   133   6 C      184   1 H                                       1.0965193
   133   6 C      185   1 H                                       1.0937810
    97   6 C      186   1 H                                       1.0916995
    97   6 C      187   1 H                                       1.0924608
   130   6 C      188   1 H                                       1.0916216
   130   6 C      189   1 H                                       1.0916086
   131   6 C      190   1 H                                       1.0884527
   131   6 C      191   1 H                                       1.0872698
   131   6 C      192   1 H                                       1.0880491

 * 4 distinct bonds (by element types)

   Z      Z             #   av. dist./Å        max./Å        min./Å
   1 H    6 C         106     1.0875565     1.0977380     1.0731794
   6 C    6 C          68     1.4510350     1.5382409     1.3810113
   6 C    7 N          12     1.4097905     1.4468720     1.3880150
   6 C    8 O           8     1.3901433     1.4073044     1.3635027


optimized geometry written to: xtbopt.mol


           -------------------------------------------------
          | TOTAL ENERGY             -249.275964662304 Eh   |
          | GRADIENT NORM               0.000535576832 Eh/α |
           -------------------------------------------------

------------------------------------------------------------------------
 * finished run on 2025/02/24 at 15:49:02.848     
------------------------------------------------------------------------
 total:
 * wall-time:     0 d,  0 h,  4 min, 32.202 sec
 *  cpu-time:     0 d,  0 h, 13 min,  2.683 sec
 * ratio c/w:     2.875 speedup
 SCF:
 * wall-time:     0 d,  0 h,  0 min,  2.170 sec
Note: The following floating-point exceptions are signalling: IEEE_UNDERFLOW_FLAG
normal termination of xtb
 *  cpu-time:     0 d,  0 h,  0 min,  7.044 sec
 * ratio c/w:     3.246 speedup
 ANC optimizer:
 * wall-time:     0 d,  0 h,  4 min, 30.010 sec
 *  cpu-time:     0 d,  0 h, 12 min, 55.631 sec
 * ratio c/w:     2.873 speedup

      -----------------------------------------------------------      
     |                   =====================                   |     
     |                           x T B                           |     
     |                   =====================                   |     
     |                         S. Grimme                         |     
     |          Mulliken Center for Theoretical Chemistry        |     
     |                    University of Bonn                     |     
      -----------------------------------------------------------      

   * xtb version 6.7.1 (edcfbbe) compiled by 'runner@Mac-1732539442253.local' on 2024-11-25

   xtb is free software: you can redistribute it and/or modify it under
   the terms of the GNU Lesser General Public License as published by
   the Free Software Foundation, either version 3 of the License, or
   (at your option) any later version.
   
   xtb is distributed in the hope that it will be useful,
   but WITHOUT ANY WARRANTY; without even the implied warranty of
   MERCHANTABILITY or FITNESS FOR A PARTICULAR PURPOSE.  See the
   GNU Lesser General Public License for more details.
   
   Cite this work as:
   * C. Bannwarth, E. Caldeweyher, S. Ehlert, A. Hansen, P. Pracht,
     J. Seibert, S. Spicher, S. Grimme, WIREs Comput. Mol. Sci., 2020, 11,
     e01493. DOI: 10.1002/wcms.1493
   
   for GFN2-xTB:
   * C. Bannwarth, S. Ehlert and S. Grimme., J. Chem. Theory Comput., 2019,
     15, 1652-1671. DOI: 10.1021/acs.jctc.8b01176
   for GFN1-xTB:
   * S. Grimme, C. Bannwarth, P. Shushkov, J. Chem. Theory Comput., 2017,
     13, 1989-2009. DOI: 10.1021/acs.jctc.7b00118
   for GFN0-xTB:
   * P. Pracht, E. Caldeweyher, S. Ehlert, S. Grimme, ChemRxiv, 2019, preprint.
     DOI: 10.26434/chemrxiv.8326202.v1
   for GFN-FF:
   * S. Spicher and S. Grimme, Angew. Chem. Int. Ed., 2020, 59, 15665-15673.
     DOI: 10.1002/anie.202004239
   
   for ALPB and GBSA implicit solvation:
   * S. Ehlert, M. Stahn, S. Spicher, S. Grimme, J. Chem. Theory Comput.,
     2021, 17, 4250-4261. DOI: 10.1021/acs.jctc.1c00471
   
   for ddCOSMO and CPCM-X implicit solvation:
   * M. Stahn, S. Ehlert, S. Grimme, J. Phys. Chem. A,
     2023, XX, XXXX-XXXX. DOI: 10.1021/acs.jpca.3c04382
   
   for DFT-D4:
   * E. Caldeweyher, C. Bannwarth and S. Grimme, J. Chem. Phys., 2017,
     147, 034112. DOI: 10.1063/1.4993215
   * E. Caldeweyher, S. Ehlert, A. Hansen, H. Neugebauer, S. Spicher,
     C. Bannwarth and S. Grimme, J. Chem. Phys., 2019, 150, 154122.
     DOI: 10.1063/1.5090222
   * E. Caldeweyher, J.-M. Mewes, S. Ehlert and S. Grimme, Phys. Chem. Chem. Phys.
     2020, 22, 8499-8512. DOI: 10.1039/D0CP00502A
   
   for sTDA-xTB:
   * S. Grimme and C. Bannwarth, J. Chem. Phys., 2016, 145, 054103.
     DOI: 10.1063/1.4959605
   
   in the mass-spec context:
   * V. Asgeirsson, C. Bauer and S. Grimme, Chem. Sci., 2017, 8, 4879.
     DOI: 10.1039/c7sc00601b
   * J. Koopman and S. Grimme, ACS Omega 2019, 4, 12, 15120-15133.
     DOI: 10.1021/acsomega.9b02011
   
   for metadynamics refer to:
   * S. Grimme, J. Chem. Theory Comput., 2019, 155, 2847-2862
     DOI: 10.1021/acs.jctc.9b00143
   
   for SPH calculations refer to:
   * S. Spicher and S. Grimme, J. Chem. Theory Comput., 2021, 17, 1701-1714
     DOI: 10.1021/acs.jctc.0c01306
   
   for ONIOM refer to:
   * C. Plett, A. Katbashev, S. Ehlert, S. Grimme, M. Bursch,
     Phys. Chem. Chem. Phys., 2023, 25, 17860-17868. DOI: 10.1039/D3CP02178E
   
   for DIPRO refer to:
   * J. Kohn, N. Gildemeister, S. Grimme, D. Fazzi, A. Hansen,
     J. Chem. Phys., 2023, just accepted.
   
   for PTB refer to:
   * S. Grimme, M. Mueller, A. Hansen, J. Chem. Phys., 2023, 158, 124111.
     DOI: 10.1063/5.0137838
   
   with help from (in alphabetical order)
   P. Atkinson, C. Bannwarth, F. Bohle, G. Brandenburg, E. Caldeweyher
   M. Checinski, S. Dohm, S. Ehlert, S. Ehrlich, I. Gerasimov, C. Hölzer
   A. Katbashev, J. Kohn, J. Koopman, C. Lavigne, S. Lehtola, F. März, M. Müller,
   F. Musil, H. Neugebauer, J. Pisarek, C. Plett, P. Pracht, F. Pultar,
   J. Seibert, P. Shushkov, S. Spicher, M. Stahn, M. Steiner, T. Strunk,
   J. Stückrath, T. Rose, and J. Unsleber
   
 * started run on 2025/02/24 at 15:49:02.895     
   ID    Z sym.   atoms
    1    6 C      1-11, 13, 14, 16-23, 32-49, 97-107, 109, 110, 112-119,
                  128-145
    2    7 N      12, 15, 108, 111
    3    8 O      24, 25, 120, 121
    4    1 H      26-31, 50-96, 122-127, 146-192

           -------------------------------------------------
          |                Calculation Setup                |
           -------------------------------------------------

          program call               : xtb opt_dimer.mol --dipro 0.3 --chrg 0 --uhf 2 --spinpol --tblite
          coordinate file            : opt_dimer.mol
          omp threads                :                     8


molecular fragmentation (1/2 indicates fragments):
111111111111111111111111111111111111111111111111111111111111111111111111
111111111111111111111111222222222222222222222222222222222222222222222222
222222222222222222222222222222222222222222222222
# atoms in fragment 1/2:    96    96
 fragment masses (1/2) :      581.85      581.85
CMA distance (Bohr)    :  14.033
constraining FC (au)   :  0.0500
Wavefunction read from restart file
           -------------------------------------------------
          |                    D I P R O                    |
           -------------------------------------------------
Calculation for dimer 
--------------------- 
  
charge of dimer :   0.
unpaired e- of dimer :  2
repulsion energy          3.8353663699775E+00 Eh
dispersion energy         1.9394941440932E-02 Eh
number of electrons       4.6200000000000E+02 e
integral cutoff           1.7347787504999E+01 bohr

------------------------------------------------------------
  cycle        total energy    energy error   density error
------------------------------------------------------------
      1     -248.9407926818  -2.5279555E+02   1.0727372E-01
      2     -249.2174112120  -2.7661853E-01   5.4374678E-02
      3     -249.2034576984   1.3953514E-02   2.5729268E-02
      4     -249.2649124544  -6.1454756E-02   9.7029751E-03
      5     -249.2701857625  -5.2733081E-03   3.6359190E-03
      6     -249.2721226952  -1.9369326E-03   1.8507609E-03
      7     -249.2728240295  -7.0133429E-04   6.5360109E-04
      8     -249.2728346915  -1.0662045E-05   2.0898535E-04
      9     -249.2728380294  -3.3379261E-06   7.3937203E-05
     10     -249.2728384764  -4.4693945E-07   3.5213209E-05
     11     -249.2728386161  -1.3971163E-07   1.8315614E-05
------------------------------------------------------------

electronic energy        -2.5312759992751E+02 Eh
total energy             -2.4927283861609E+02 Eh

 total:                                   1.094 sec
 - repulsion                              0.000 sec (  0%)
 - dispersion                             0.012 sec (  1%)
 - coulomb                                0.003 sec (  0%)
 - hamiltonian                            0.009 sec (  0%)
 - scc                                    1.069 sec ( 97%)

Found 2 fragments!
Fragment 1:  1-96
Fragment 2:  97-192

[Info] Fragment spin read from .UHFfrag
Calculation for fragment 1
 ------------------------------
   
charge of fragment :   0.
unpaired e- of fragment :  1
------------------------------------------------------------
  cycle        total energy    energy error   density error
------------------------------------------------------------
      1     -124.4565094287  -1.2637689E+02   1.0705040E-01
      2     -124.5949868397  -1.3847741E-01   5.4196459E-02
      3     -124.5881775216   6.8093181E-03   2.5681816E-02
      4     -124.6189058452  -3.0728324E-02   9.7566976E-03
      5     -124.6214798981  -2.5740529E-03   3.7048009E-03
      6     -124.6225349685  -1.0550704E-03   1.8574444E-03
      7     -124.6228830927  -3.4812428E-04   6.5743216E-04
      8     -124.6228882566  -5.1639024E-06   1.9780173E-04
      9     -124.6228896535  -1.3969144E-06   6.7382408E-05
     10     -124.6228898224  -1.6890124E-07   2.9868253E-05
     11     -124.6228898577  -3.5214370E-08   1.5837914E-05
------------------------------------------------------------

 total:                                   0.308 sec
Calculation for fragment 2
 ------------------------------
   
charge of fragment :   0.
unpaired e- of fragment :  1
------------------------------------------------------------
  cycle        total energy    energy error   density error
------------------------------------------------------------
      1     -124.4572014791  -1.2637697E+02   1.0776451E-01
      2     -124.5960678053  -1.3886633E-01   5.4549230E-02
      3     -124.5888664702   7.2013351E-03   2.5891369E-02
      4     -124.6198704560  -3.1003986E-02   9.7376555E-03
      5     -124.6225325130  -2.6620570E-03   3.6382391E-03
      6     -124.6234823782  -9.4986520E-04   1.8602083E-03
      7     -124.6238434818  -3.6110360E-04   6.5961523E-04
      8     -124.6238493364  -5.8546154E-06   2.1220751E-04
      9     -124.6238511042  -1.7677427E-06   7.3494142E-05
     10     -124.6238513545  -2.5037848E-07   3.3793883E-05
     11     -124.6238514163  -6.1766485E-08   1.7078013E-05
------------------------------------------------------------

 total:                                   0.274 sec
   
   ::::::::::::::::::::::::::::::::::::::::::::::
   ::     D I P R O      C O U P L I N G S     ::
   ::::::::::::::::::::::::::::::::::::::::::::::
   
energy threshhold for near-degenerate orbitals near HOMO and LUMO considered for DIPRO:  0.300 eV
no. of orbitals within energy window of frag 1         2
no. of orbitals within energy window of frag 2         2
   
  Fragment 1 SOMO   Fragment 2 SOMO 
--------------------------------------
E_mon(orb) frag1 frag2              -9.104    -9.063 eV
J(AB):                0.007 eV
S(AB):            -0.00048908 Eh
|J(AB,eff)|:            0.003 eV
   
  Fragment 1 SOMO   Fragment 2 LUMO 
--------------------------------------
E_mon(orb) frag1 frag2              -9.104    -7.374 eV
J(AB):                0.001 eV
S(AB):             0.00003008 Eh
|J(AB,eff)|:            0.001 eV
   
  Fragment 1 LUMO   Fragment 2 SOMO 
--------------------------------------
E_mon(orb) frag1 frag2              -7.368    -9.063 eV
J(AB):                0.016 eV
S(AB):            -0.00089829 Eh
|J(AB,eff)|:            0.009 eV
   
  Fragment 1 LUMO   Fragment 2 LUMO 
--------------------------------------
E_mon(orb) frag1 frag2              -7.368    -7.374 eV
J(AB):               -0.006 eV
S(AB):             0.00035955 Eh
|J(AB,eff)|:            0.003 eV
   
..............................................................................
:  total |J(AB,eff)| for hole transport (occ. MOs) :               0.003 eV  :
:  total |J(AB,eff)| for charge transport (unocc. MOs) :           0.003 eV  :
:  total |J(AB,eff)| for charge transfer (CT) :                    0.009 eV  :
..............................................................................
  
 Please remember, DIPRO is not available for restart!
   
normal termination of dipro
----------------------------------------------------------
 * finished run on 2025/02/24 at 15:49:04.595     
----------------------------------------------------------
 dipro:
 * wall-time:     0 d,  0 h,  0 min,  1.692 sec
 *  cpu-time:     0 d,  0 h,  0 min,  5.299 sec
 * ratio c/w:     3.131 speedup
Reorganization energy (electron): 0.3124528135219894 eV
Reorganization energy (hole): 0.3197502193964873 eV
Electron Transfer integral J: 0.003 eV
Hole Transfer integral J: 0.003 eV
