      -----------------------------------------------------------      
     |                   =====================                   |     
     |                           x T B                           |     
     |                   =====================                   |     
     |                         S. Grimme                         |     
     |          Mulliken Center for Theoretical Chemistry        |     
     |                    University of Bonn                     |     
      -----------------------------------------------------------      

   * xtb version 6.6.1 (8d0f1dd) compiled by 'runner@Mac-1690902418499.local' on 2023-08-01

   xtb is free software: you can redistribute it and/or modify it under
   the terms of the GNU Lesser General Public License as published by
   the Free Software Foundation, either version 3 of the License, or
   (at your option) any later version.
   
   xtb is distributed in the hope that it will be useful,
   but WITHOUT ANY WARRANTY; without even the implied warranty of
   MERCHANTABILITY or FITNESS FOR A PARTICULAR PURPOSE.  See the
   GNU Lesser General Public License for more details.
   
   Cite this work as:
   * C. Bannwarth, E. Caldeweyher, S. Ehlert, A. Hansen, P. Pracht,
     J. Seibert, S. Spicher, S. Grimme, WIREs Comput. Mol. Sci., 2020, 11,
     e01493. DOI: 10.1002/wcms.1493
   
   for GFN2-xTB:
   * C. Bannwarth, S. Ehlert and S. Grimme., J. Chem. Theory Comput., 2019,
     15, 1652-1671. DOI: 10.1021/acs.jctc.8b01176
   for GFN1-xTB:
   * S. Grimme, C. Bannwarth, P. Shushkov, J. Chem. Theory Comput., 2017,
     13, 1989-2009. DOI: 10.1021/acs.jctc.7b00118
   for GFN0-xTB:
   * P. Pracht, E. Caldeweyher, S. Ehlert, S. Grimme, ChemRxiv, 2019, preprint.
     DOI: 10.26434/chemrxiv.8326202.v1
   for GFN-FF:
   * S. Spicher and S. Grimme, Angew. Chem. Int. Ed., 2020, 59, 15665-15673.
     DOI: 10.1002/anie.202004239
   
   for ALPB and GBSA implicit solvation:
   * S. Ehlert, M. Stahn, S. Spicher, S. Grimme, J. Chem. Theory Comput.,
     2021, 17, 4250-4261. DOI: 10.1021/acs.jctc.1c00471
   
   for DFT-D4:
   * E. Caldeweyher, C. Bannwarth and S. Grimme, J. Chem. Phys., 2017,
     147, 034112. DOI: 10.1063/1.4993215
   * E. Caldeweyher, S. Ehlert, A. Hansen, H. Neugebauer, S. Spicher,
     C. Bannwarth and S. Grimme, J. Chem. Phys., 2019, 150, 154122.
     DOI: 10.1063/1.5090222
   * E. Caldeweyher, J.-M. Mewes, S. Ehlert and S. Grimme, Phys. Chem. Chem. Phys.
     2020, 22, 8499-8512. DOI: 10.1039/D0CP00502A
   
   for sTDA-xTB:
   * S. Grimme and C. Bannwarth, J. Chem. Phys., 2016, 145, 054103.
     DOI: 10.1063/1.4959605
   
   in the mass-spec context:
   * V. Asgeirsson, C. Bauer and S. Grimme, Chem. Sci., 2017, 8, 4879.
     DOI: 10.1039/c7sc00601b
   * J. Koopman and S. Grimme, ACS Omega 2019, 4, 12, 15120-15133.
     DOI: 10.1021/acsomega.9b02011
   
   for metadynamics refer to:
   * S. Grimme, J. Chem. Theory Comput., 2019, 155, 2847-2862
     DOI: 10.1021/acs.jctc.9b00143
   
   for SPH calculations refer to:
   * S. Spicher and S. Grimme, J. Chem. Theory Comput., 2021, 17, 1701-1714
     DOI: 10.1021/acs.jctc.0c01306
   
   with help from (in alphabetical order)
   P. Atkinson, C. Bannwarth, F. Bohle, G. Brandenburg, E. Caldeweyher
   M. Checinski, S. Dohm, S. Ehlert, S. Ehrlich, I. Gerasimov, C. Hölzer
   A. Katbashev, J. Koopman, C. Lavigne, S. Lehtola, F. März, M. Müller,
   F. Musil, H. Neugebauer, J. Pisarek, C. Plett, P. Pracht, F. Pultar,
   J. Seibert, P. Shushkov, S. Spicher, M. Stahn, M. Steiner, T. Strunk,
   J. Stückrath, T. Rose, and J. Unsleber
   
 * started run on 2025/03/14 at 12:43:36.452     

           -------------------------------------------------
          |                Calculation Setup                |
           -------------------------------------------------

          program call               : xtb scoord.19 --md --gfnff --input md_settings.inp
          coordinate file            : scoord.19
          omp threads                :                     8

   ID    Z sym.   atoms
    1    6 C      1-9, 11, 12, 14-21, 24, 25, 34, 35, 38, 41-43, 59-67, 69,
                  70, 72-79, 82, 83, 92, 93, 96, 99-101
    2    7 N      10, 13, 68, 71
    3    8 O      22, 23, 32, 33, 36, 37, 39, 40, 80, 81, 90, 91, 94, 95, 97,
                  98
    4    1 H      26-31, 44-58, 84-89, 102-116

molecular fragmentation (1/2 indicates fragments):
111111111111111111111111111111111111111111111111111111111122222222222222
22222222222222222222222222222222222222222222
# atoms in fragment 1/2:    58    58
 fragment masses (1/2) :      501.47      501.47
CMA distance (Bohr)    :   9.398
constraining FC (au)   :  0.0500
          GFN-FF topology read from file successfully!
           ------------------------------------------------- 
          |                   G F N - F F                   |
          |          A general generic force-field          |
          |                  Version 1.0.3                  | 
           ------------------------------------------------- 
          Number of HB bonds (bound hydrogen)     17414
          Number of HB bonds (unbound hydrogen)   509
          Number of XB bonds                      0

 E+G (total)                   0 d,  0 h,  0 min,  0.002 sec
 distance/D3 list               ...        0 min,  0.000 sec (  1.096%)
 non bonded repulsion           ...        0 min,  0.000 sec (  4.148%)
 dCN                            ...        0 min,  0.000 sec (  6.422%)
 EEQ energy and q               ...        0 min,  0.000 sec ( 11.466%)
 D3                             ...        0 min,  0.000 sec ( 16.415%)
 EEQ gradient                   ...        0 min,  0.000 sec (  2.828%)
 bonds                          ...        0 min,  0.000 sec (  4.784%)
 bend and torsion               ...        0 min,  0.000 sec (  3.618%)
 bonded ATM                     ...        0 min,  0.000 sec (  1.827%)
 HB/XB (incl list setup)        ...        0 min,  0.001 sec ( 47.007%)

         :::::::::::::::::::::::::::::::::::::::::::::::::::::
         ::                     SUMMARY                     ::
         :::::::::::::::::::::::::::::::::::::::::::::::::::::
         :: total energy             -22.720186731391 Eh    ::
         :: gradient norm              0.469326206287 Eh/a0 ::
         ::.................................................::
         :: bond energy              -23.428804854514 Eh    ::
         :: angle energy               0.143709565220 Eh    ::
         :: torsion energy             0.106401699408 Eh    ::
         :: repulsion energy           1.580179699257 Eh    ::
         :: electrostat energy        -0.939888354480 Eh    ::
         :: dispersion energy         -0.145353940719 Eh    ::
         :: HB energy                 -0.006573129550 Eh    ::
         :: XB energy                  0.000000000000 Eh    ::
         :: bonded atm energy         -0.029857416013 Eh    ::
         :: external energy            0.000000000000 Eh    ::
         :: add. restraining           0.000000000000 Eh    ::
         :: total charge               0.000000000000 e     ::
         :::::::::::::::::::::::::::::::::::::::::::::::::::::

           -------------------------------------------------
          |                Property Printout                |
           -------------------------------------------------

           -------------------------------------------------
          | TOTAL ENERGY              -22.720186731391 Eh   |
          | GRADIENT NORM               0.469326206287 Eh/α |
           -------------------------------------------------
           ------------------------------------------------- 
          |               Molecular Dynamics                |
           ------------------------------------------------- 
 trajectories on xtb.trj or xtb.trj.<n>

 MD time /ps        :   20.00
 dt /fs             :    2.00
 SCC accuracy       :    2.00
 temperature /K     :  670.00
 max steps          : 10000
 block length (av.) :  2500
 dumpstep(trj) /fs  :  500.00   250
 dumpstep(coords)/fs: 1000.00   500
 H atoms mass (amu) :     4
 # deg. of freedom  :   348
 SHAKE off
 Berendsen THERMOSTAT on
         time (ps)    <Epot>      Ekin   <T>   T     Etot
      0    0.00      0.00000   0.7702    0.    0.   -21.94999
est. speed in wall clock h for 100 ps :  0.02
    200    0.40    -22.45286   0.5207  994.  945.   -22.06913
    400    0.80    -22.53381   0.4442  935.  806.   -22.18157
    600    1.20    -22.56983   0.4297  888.  780.   -22.24586
    800    1.60    -22.59339   0.4394  854.  797.   -22.25877
   1000    2.00    -22.61124   0.4121  829.  748.   -22.29492
   1200    2.40    -22.62350   0.3656  807.  664.   -22.29766
   1400    2.80    -22.63329   0.3622  791.  657.   -22.31799
   1600    3.20    -22.64098   0.3990  777.  724.   -22.31902
   1800    3.60    -22.64793   0.3793  767.  688.   -22.33823
   2000    4.00    -22.65284   0.3990  757.  724.   -22.33629
   2200    4.40    -22.65695   0.3316  749.  602.   -22.34382
   2400    4.80    -22.66123   0.3574  744.  649.   -22.33199
block <Epot> / <T> :     -22.67184  741.     drift:  0.99D+02   Tbath : 670.
   2600    5.20    -22.66419   0.3809  738.  691.   -22.33759
   2800    5.60    -22.66658   0.3628  733.  658.   -22.30907
   3000    6.00    -22.66887   0.3777  729.  686.   -22.31942
   3200    6.40    -22.67111   0.3804  725.  690.   -22.34104
   3400    6.80    -22.67324   0.3903  722.  708.   -22.31005
   3600    7.20    -22.67511   0.3821  720.  693.   -22.32055
   3800    7.60    -22.67632   0.3466  716.  629.   -22.36070
   4000    8.00    -22.67747   0.3660  714.  664.   -22.32652
   4200    8.40    -22.67871   0.3855  712.  700.   -22.29769
   4400    8.80    -22.67960   0.3560  710.  646.   -22.36620
   4600    9.20    -22.68056   0.3938  708.  715.   -22.30503
   4800    9.60    -22.68150   0.3839  707.  697.   -22.34124
   5000   10.00    -22.68228   0.3618  705.  657.   -22.31681
block <Epot> / <T> :     -22.70177  670.     drift:  0.99D+02   Tbath : 670.
   5200   10.40    -22.68325   0.3829  704.  695.   -22.32624
   5400   10.80    -22.68404   0.4041  703.  733.   -22.30878
   5600   11.20    -22.68470   0.3829  702.  695.   -22.31587
   5800   11.60    -22.68550   0.3692  701.  670.   -22.32637
   6000   12.00    -22.68620   0.3529  700.  641.   -22.33842
   6200   12.40    -22.68718   0.3618  699.  657.   -22.34170
   6400   12.80    -22.68790   0.3765  698.  683.   -22.31236
   6600   13.20    -22.68850   0.3541  697.  643.   -22.32588
   6800   13.60    -22.68907   0.3613  696.  656.   -22.33661
   7000   14.00    -22.68979   0.3953  696.  717.   -22.35384
   7200   14.40    -22.69051   0.3853  695.  699.   -22.33636
   7400   14.80    -22.69133   0.3552  695.  645.   -22.32360
block <Epot> / <T> :     -22.71055  673.     drift:  0.99D+02   Tbath : 670.
   7600   15.20    -22.69198   0.3533  694.  641.   -22.36047
   7800   15.60    -22.69261   0.3663  693.  665.   -22.33198
   8000   16.00    -22.69323   0.3856  693.  700.   -22.36217
   8200   16.40    -22.69395   0.4196  693.  762.   -22.35588
   8400   16.80    -22.69437   0.3861  692.  701.   -22.35741
   8600   17.20    -22.69488   0.3698  691.  671.   -22.32660
   8800   17.60    -22.69529   0.3986  691.  723.   -22.35009
   9000   18.00    -22.69562   0.3771  690.  684.   -22.34741
   9200   18.40    -22.69610   0.3567  690.  647.   -22.34412
   9400   18.80    -22.69629   0.3588  689.  651.   -22.34941
   9600   19.20    -22.69631   0.3590  688.  652.   -22.31545
   9800   19.60    -22.69646   0.3435  688.  623.   -22.30965
 average properties 
 Epot               :  -22.696712209071446     
 Epot (accurate SCC):  -22.699389241019492     
 Ekin               :  0.37901827820308243     
 Etot               :  -22.317693930868366     
 T                  :   687.84263799270252     
 thermostating problem
 normal exit of md()

------------------------------------------------------------------------
 * finished run on 2025/03/14 at 12:43:52.355     
------------------------------------------------------------------------
 total:
 * wall-time:     0 d,  0 h,  0 min, 15.902 sec
 *  cpu-time:     0 d,  0 h,  0 min, 31.417 sec
 * ratio c/w:     1.976 speedup
 SCF:
 * wall-time:     0 d,  0 h,  0 min,  0.003 sec
 *  cpu-time:     0 d,  0 h,  0 min,  0.005 sec
Note: The following floating-point exceptions are signalling: IEEE_UNDERFLOW_FLAG
normal termination of xtb
 * ratio c/w:     1.792 speedup
 MD:
 * wall-time:     0 d,  0 h,  0 min, 15.894 sec
 *  cpu-time:     0 d,  0 h,  0 min, 31.408 sec
 * ratio c/w:     1.976 speedup

