116
 energy: -22.720186731391 gnorm: 0.469326206287 xtb: 6.6.1 (8d0f1dd)
C           -5.03370472701994        3.19835707698818        4.49590258519976
C           -3.68460087800093        3.39183652710813        3.88998729247636
C           -2.98490845949365        2.17937005867924        4.17067924346950
C           -3.13557761345852        1.26157360600840        5.26601089948848
C           -4.41528421722489        1.31005810572876        5.87362939234104
C           -5.33227103521999        2.15906344893340        5.39391381154656
C           -1.71631334301434        1.97638924802601        3.48847641358818
C           -0.63524279453341        1.45321439702571        4.25044333416788
C           -0.98112803990143        0.79855015685461        5.43862916092449
N           -2.19969223239453        0.48680200264546        5.86843891246480
C           -1.46710159449925        2.48823848130161        2.14429816712815
C           -0.18793203439841        2.88457707600084        2.00520817505035
N            0.93126255219983        2.50920467966101        2.67565025576961
C            0.69341631305149        1.76720196583061        3.81680867742532
C            1.72303133188283        1.44878303551839        4.67495643098522
C            1.46108710199549        0.92698613511220        5.92694542039752
C            0.10867204976218        0.60831260713438        6.28940774138707
C           -2.42217631376325        2.84042184568246        1.10719287421497
C           -2.07484300400343        3.66466909285921        0.06269187612468
C           -0.89524417387504        4.19154132700781        0.09324066325099
C            0.11845031994170        3.79933911681018        1.01914134711822
O           -3.86586551678550        2.50447955339383        1.11679931288212
O           -2.91605387366886        4.59084399868107        3.55788783863950
C           -6.79258197243451        2.02221027723460        5.89893589677314
C           -0.52926572816620        5.23885832402085       -0.91957963428222
H           -4.52389189712758        0.79286660748483        6.79180789987082
H           -5.82072496638653        3.58745765530148        3.90864152496382
H            0.08295551171299        0.06961250332808        7.14934102685086
H            2.75822281180250        1.29762751592627        4.31594493561956
H            1.04668840666461        4.40753553279089        1.04744675917808
H           -2.84280321218605        4.07634571396216       -0.52188168056628
O           -6.98753468700067        1.09714513521242        6.67152947362563
O           -7.76849605266523        2.80454783595024        5.45166711378707
C           -8.87875353006545        2.68184192408534        6.27541035256490
C            2.72140652713038        0.57434421470284        6.70626802251275
O            2.49528461781717       -0.26172870413613        7.58668737866114
O            3.86376882665613        1.21523004828928        6.36502301211271
C            5.02019837665406        0.71000650748622        7.02806463093778
O            0.63910247362642        5.44260284578378       -0.90154781657015
O           -1.23066220779040        5.87889297948566       -1.87823668446826
C           -0.50379027589642        6.87945021441640       -2.49682672531084
C           -4.35222802464359        1.96480169680430       -0.21882408009805
C           -3.83119781732465        5.59541677938214        3.06638881009749
H            0.36673262514874        7.11022057627611       -1.70079962148704
H           -1.26256701356730        7.65706956634721       -2.67628520735424
H           -0.04408229721734        6.40962636904203       -3.50012513169295
H            5.57591307680479        1.47313203574412        7.52921252802558
H            5.63813649885424        0.36083134167515        6.27527636655289
H            4.55600048762214       -0.17721497490245        7.46793552963174
H           -3.25264363468085        6.41562242065446        2.74580557633123
H           -4.34670815288834        5.94194529814710        4.04929947247258
H           -4.67569741882318        5.34265130340190        2.48119082797464
H           -3.81926028427188        1.01536181648121       -0.31284965132751
H           -4.34887092097395        2.67837453954054       -1.12989726853368
H           -5.34160976282012        1.36611907392119       -0.15065101817784
H           -8.62166211145578        2.95764333200032        7.37369582795677
H           -9.30631730085620        1.64142938434713        6.40657708599753
H           -9.71882693994705        3.30906754751996        5.80302726702998
C            2.91476758007399       -3.79821794371715        3.60641385048525
C            1.74120889337568       -3.38320307783749        2.93838663449083
C            0.60542897048688       -3.03954651978073        3.76506585211316
C            0.84351916474760       -3.04522132316111        5.18660646287160
C            2.11128985830780       -3.38012111012295        5.78639553552987
C            3.18248560999732       -3.69257595108340        4.94796419460790
C           -0.66697728225044       -2.33760198165117        3.41250562708048
C           -1.70395953738648       -2.42087466696927        4.33191611355932
C           -1.37909214422523       -2.65686242568689        5.67091307868362
N           -0.17567985804901       -3.10551722060644        6.06921780236487
C           -0.96914841184063       -1.83635381723210        2.06210555088917
C           -2.35762436659978       -1.87167741988405        1.83840717623720
N           -3.47055427327275       -1.84378430789659        2.66967786103058
C           -3.07371488966035       -2.01014411021602        3.96353285484796
C           -4.00301526034513       -1.82794018947862        4.96508163939846
C           -3.54670670869198       -1.77915851334101        6.29398686112635
C           -2.35221263649283       -2.43142281676069        6.65066270726157
C           -0.05360112644570       -1.10663354569814        1.22698556619700
C           -0.50966080275904       -0.85472311035122       -0.11406554346566
C           -1.88275241348318       -1.02258007952996       -0.38438204247871
C           -2.79963599475261       -1.50612468005483        0.53536967579911
O            1.18196008331098       -0.79493342944465        1.72268661350554
O            1.54135156522837       -3.26900497434801        1.51628697842486
C            4.50116723499349       -4.22552576012922        5.50079336114304
C           -2.29668735484487       -0.58139809963665       -1.73849425973716
H            2.10891487374226       -3.22351489238727        6.87244555128425
H            3.82287827694396       -3.94375428217923        3.07226808918757
H           -2.16937902825010       -2.66219701350573        7.65138801102273
H           -5.06034073011921       -1.49722389187072        4.69385416930133
H           -3.75981039739712       -1.76368206710285        0.32929169090641
H            0.12687895344939       -0.34362505576763       -0.83095762692732
O            5.33629839575163       -3.44875599567368        6.04460383955375
O            4.65837018956423       -5.54724131647626        5.34447646451574
C            5.75552180438711       -5.87796659134386        5.99834525033147
C           -4.59416470876604       -1.46314110121195        7.32712830988098
O           -4.70070494574012       -0.67943630316235        8.32546071076700
O           -5.86223175694439       -2.17487292715046        6.91864683992265
C           -6.71814578245720       -1.97202836202144        7.93828909033059
O           -3.45575070804662       -0.68142457806612       -2.18014284135163
O           -1.39094114423921        0.07764245414884       -2.45649733159971
C           -1.85002509446031        0.90466204526608       -3.62608449837293
C            1.79031151098054        0.04338622910734        0.77036489458192
C            2.55173806813297       -3.88809753000960        0.74748550907676
H           -2.24449910986810        1.84750393929087       -3.26417375863106
H           -2.66808106257714        0.13650243330218       -3.96940778877883
H           -0.94091787499255        1.18813567541033       -4.25001762307313
H           -6.12668961873993       -1.86696971722601        8.86568302303909
H           -7.23384460040434       -2.97348373443677        8.07851496220263
H           -7.45391498718222       -1.08500035870348        7.73712687605707
H            2.95001591025508       -2.96237140886459        0.30240001437411
H            2.21003245272904       -4.56270822778419       -0.05436640114968
H            3.48503997742293       -4.42081576863161        1.24378408531854
H            2.25263474920877       -0.37075335298010       -0.16152921410930
H            2.62339383661939        0.46381126375098        1.32634794979070
H            1.09569091384837        0.90517166212999        0.62484152012285
H            5.88865170983548       -5.38062972428410        6.92051076332511
H            6.53440623900173       -5.64489231821803        5.16619491125969
H            5.85081975437501       -6.91234905342733        6.09398518573327
116
 energy: -22.561542225700 gnorm: 0.543440340809 xtb: 6.6.1 (8d0f1dd)
C           -5.42390496443599        2.97183663181336        4.59782170014280
C           -4.06102716997995        3.16570202239266        4.02949447697286
C           -2.96342977762386        2.38083314372267        4.58328572247483
C           -3.12289116305781        1.77489642206557        5.83586955946119
C           -4.48731762221684        1.71460089990246        6.20567393835283
C           -5.62547165448144        2.19320690935366        5.65768256689342
C           -1.65612686574936        2.44788235355673        4.03514654761935
C           -0.70612673745928        2.15268021224188        5.02662472877711
C           -1.00951425640477        1.41083708455022        6.20211965437739
N           -2.23964646338230        1.17809720709081        6.67511357850038
C           -1.37682305114449        2.90158586975066        2.64989949341212
C           -0.07236320021070        3.28898539778670        2.61330672742709
N            0.79083374268584        2.95853804145539        3.59089861856320
C            0.67043030297334        2.34359549212049        4.72583224665616
C            1.70037830842921        1.64806451548899        5.27987754430531
C            1.40061944522519        0.91052378570884        6.34252946939574
C            0.08587960164244        0.89169225269536        6.93086672291992
C           -2.17397376401584        2.77170971255201        1.51188580962052
C           -1.62263932407938        3.09997797594944        0.26151665490794
C           -0.27608732477341        3.58428694607863        0.17211979742436
C            0.43929391311484        3.68059126625126        1.35762502997232
O           -3.25307904713333        1.86835040435439        1.64564186301692
O           -3.83152951739277        4.26797795465649        3.22872721491823
C           -6.91944036162059        2.17211839701361        6.40344027861259
C            0.21026705752033        4.44214136402148       -1.01553867175880
H           -4.70823390875336        1.30086871402542        7.25638993600537
H           -6.33213691258130        3.20180752768670        4.06175267853290
H           -0.03849394923728        0.58155681301455        7.91578066012989
H            2.74720979169285        1.66807120946492        4.92701114106013
H            1.51003998765399        3.90573828097949        1.25157852481576
H           -2.40519335199858        3.17650320275345       -0.48688933753149
O           -7.27053982763943        1.45472228250549        7.34774443938098
O           -7.64498143476889        3.12285997653886        5.77612996096935
C           -8.98529702118572        3.11288961048094        6.33498667495283
C            2.39077515208521        0.21916514315511        7.14985952218424
O            2.29313741747098       -0.32521370275974        8.22454387766495
O            3.83039824803263        0.33838634524179        6.77136927656562
C            4.38417385447616       -0.90156087998174        6.93772627438155
O            1.27725117611378        4.61962485439458       -1.64248321085208
O           -0.75947296369064        5.46914400947570       -1.50072628507958
C           -0.49474813198779        5.83080350044925       -2.85393967144254
C           -4.24633470049038        2.41226489338082        0.65531254766634
C           -5.07260495318869        5.04993532131725        3.14652862282375
H           -0.14056527753260        6.85211179636194       -2.69494638627652
H           -1.31419132497958        5.82384743072079       -3.71029128736700
H            0.52885407254732        5.79073321148830       -3.17490379306980
H            3.68565583794649       -1.65957432262444        6.99029183958260
H            4.74606934492419       -0.85158724151138        7.86427055055894
H            5.13520984922091       -0.99087191425823        6.19549159030040
H           -5.65420811257285        4.98537387731727        4.14746672945458
H           -5.66717807454917        4.82336410054714        2.22423546785559
H           -4.79297396185535        6.10573858976127        3.10544014967542
H           -3.98972789029198        1.88404252526555       -0.27339489158910
H           -3.99329720425981        3.57083764240418        0.54964617436484
H           -5.33744809247377        2.28969288439348        0.91938250685731
H           -9.72499259897542        3.19562763203755        5.55559116698416
H           -9.43760601371518        4.01758717525810        6.88041445102719
H           -9.04603108640396        2.11039772394499        6.71290033279034
C            3.06261740227232       -3.27147135963903        3.31380619459828
C            1.80424821133690       -2.99064779261575        2.65682813423328
C            0.76351667935352       -2.44695169401881        3.43436933138541
C            1.01469241178471       -2.64503967215599        4.84976361174468
C            2.11400522669292       -3.35686020688653        5.51100391360797
C            3.19765391197205       -3.48651296860742        4.71903322461617
C           -0.55172615090807       -1.95440634092770        3.03809227099349
C           -1.58431367058827       -2.04076632562715        4.00917338008367
C           -1.38039630118328       -2.34002666643837        5.39054469927858
N           -0.05336620754412       -2.58795311479499        5.77394524930098
C           -0.86455667669359       -1.12968928900379        1.86518508712524
C           -2.21893412734762       -1.08398599669586        1.50138313573957
N           -3.18091898560663       -1.69565507786495        2.30232633687187
C           -2.99514265725130       -2.12327845130665        3.60072178069968
C           -4.06101709864860       -2.27156038045474        4.44424957866301
C           -3.65646172273908       -2.65656390436253        5.73309883798948
C           -2.40426221717509       -2.65428239182229        6.22598066513559
C            0.17902126826597       -0.78441830989045        0.90990259825848
C           -0.25226532139877       -0.72403720598494       -0.45080320339843
C           -1.68377167868739       -0.88518931965420       -0.85101720184794
C           -2.60199567238186       -1.03910462515158        0.19840107947833
O            1.62311794499138       -0.42883489109160        1.12845663517549
O            1.67802093977310       -3.19432472972419        1.26928809648581
C            4.38111725581338       -4.06265036845862        5.17922702539441
C           -2.35190793456715       -0.71216915297483       -2.22835038929244
H            2.13915372329902       -3.34926501295442        6.55855621982563
H            3.88645170199579       -3.46909507632890        2.71345430339204
H           -2.10694631816715       -2.72735922014078        7.30081444270096
H           -4.92343137925863       -1.82162819021541        4.31060939287424
H           -3.61113448631709       -0.86550284674056       -0.01563523964531
H            0.61446030305187       -0.92183806245525       -1.07124033518366
O            4.94048712795545       -5.07517167027039        4.70252321832247
O            5.21470974791197       -3.37858297548086        6.05360532932205
C            6.54599708578046       -4.00193495923397        6.21463891716699
C           -4.76492083994992       -2.55022926369982        6.72228880358709
O           -4.46069843158865       -2.80628890961284        7.82894412899440
O           -5.96008250481626       -2.01701377015546        6.50049543865611
C           -6.71879828695361       -2.02903950876982        7.66251283856931
O           -3.52232337055356       -0.82682201539941       -2.29951566347100
O           -1.72452701386091       -0.15341533654542       -3.27707232758675
C           -2.51935676326790        0.01344297921837       -4.53974214114170
C            2.06537075698560        0.93078337209281        0.75199373474609
C            2.12727362764739       -4.41339213418878        0.78602805082635
H           -2.05687540156007        1.00288489427581       -4.73065107844932
H           -3.56642060919409        0.21781560016491       -4.60379068532941
H           -2.24632682663535       -0.66710631073434       -5.31102403965131
H           -7.26510071629312       -0.92928896142731        7.75267236627931
H           -6.05785716177213       -2.02881754883023        8.66447112496513
H           -7.32073195848954       -2.92150872896902        7.70607251981850
H            2.29090233950787       -4.53840220593958       -0.30519644655496
H            1.40830104292478       -5.11398128248092        1.18880718918586
H            2.95721890469361       -5.17478755926150        1.26666739839941
H            3.16421857290400        0.71181013662515        0.55373721590947
H            2.06272879416089        1.71689170135144        1.49587098325802
H            1.97334265188598        1.04639665858032       -0.26767924118184
H            6.92440783168541       -4.06203762979295        5.20940574392939
H            6.46993027607407       -4.91272053245869        6.69595980712183
H            7.20026512019339       -3.25250626013335        6.79765403285178
116
 energy: -22.584051459626 gnorm: 0.522725526765 xtb: 6.6.1 (8d0f1dd)
C           -5.40845806291150        3.84485523424911        4.49261272404292
C           -4.14444132073195        3.78563347298483        4.00949123052465
C           -3.19703502014765        2.65670951800523        4.47929780564083
C           -3.49741031765063        2.12824032499856        5.80139742140986
C           -4.87517567059239        2.06825092736863        6.06336490303704
C           -5.77074760546884        2.90091454591290        5.52816888526481
C           -1.83264083642460        2.51987618057584        4.03914022368856
C           -0.84460922115611        1.99299337884213        4.83264798381162
C           -1.27550841945529        1.57627241396661        6.26992645767633
N           -2.56154871192340        1.65734794504579        6.65018489124990
C           -1.43510475716032        2.66467199951085        2.73705329015022
C           -0.04386518836094        2.83046437252713        2.40227380526021
N            0.97704200692247        2.22361527401398        3.24208439286235
C            0.58583072431767        2.07173423511568        4.54763274763327
C            1.44451042468534        1.73209973847661        5.57705900143528
C            1.02128727098506        1.21039354584101        6.77599344008640
C           -0.33799677093827        1.10052420850686        7.09032106414026
C           -2.38212127527744        2.42365300196899        1.66730254803134
C           -2.04072459683412        2.93925082049627        0.45137030526088
C           -0.74026256523677        3.58436076919088        0.21037177884670
C            0.22989776212563        3.40318557837419        1.16669869571131
O           -3.69859947099671        2.06430468155782        1.75141086411661
O           -3.38950753620447        4.77130897252793        3.31232815941419
C           -7.13135602702746        2.89672275325856        6.21201263793067
C           -0.29271435963516        3.90615361349166       -1.21338891776330
H           -5.33345337184525        1.71195181767840        7.02262890614335
H           -6.32327913926621        4.43237242583543        4.20002426729126
H           -0.64943530975676        0.53886075808037        7.98042868499555
H            2.51634217818437        1.75408411232318        5.30570917255843
H            1.38033771174824        3.26194226327898        0.88099671475423
H           -2.89801218774584        2.77606966668004       -0.29722261806704
O           -7.23867615337234        2.91351664120959        7.40038814688093
O           -8.19178777128954        2.86488672550455        5.41785142107555
C           -9.29256488961146        2.56020596884661        6.18592344162471
C            2.15513533685832        0.58247318199642        7.54753953461266
O            2.12128727380690       -0.56605633515616        7.84483224134077
O            3.29843572766057        1.31198545843994        8.08803986859356
C            3.99772519797072        0.79214450788256        9.18939750504255
O            0.64284516625402        4.65748864585594       -1.34265107286866
O           -0.93361413458943        3.30825852131656       -2.24109584303869
C           -0.44939146812298        3.75138780789656       -3.43322204840822
C           -4.68000916024143        3.02343129491731        1.15423748275952
C           -3.90072986768365        6.15992001300570        3.41974609320159
H           -0.39171372244767        4.73391578162097       -3.22848057878532
H           -1.11400785954405        3.39121281623144       -4.24547328637368
H            0.64273084065377        3.60441909502133       -3.43276213894966
H            3.21549173616510        0.79418392734220        9.89111677493168
H            4.90688131030257        1.32611680387153        9.27055729102105
H            3.94567951298354       -0.27951459157355        8.92395350127804
H           -3.99696288581129        6.80157893375806        4.32175962268751
H           -5.05903560472804        5.92772716322546        3.15259246547704
H           -3.58216855240185        6.71299628706216        2.53408342690415
H           -5.22082308794722        2.50665261075246        0.43106155469500
H           -3.95551289527299        3.72957547371471        0.78115555924358
H           -5.33969622891564        3.49574561724019        2.00843245927687
H          -10.15848361973341        2.84054333324459        5.62154712934115
H           -9.32835419283108        3.08749958116100        7.15559900062581
H           -9.32993822942613        1.50252314325214        6.48971436645675
C            2.94846148551983       -4.35243984830261        2.56680541176024
C            1.71871165910719       -3.74848339975460        2.13430001189238
C            0.67542953393719       -3.45703445535269        3.14689944892666
C            0.85822073745276       -3.67937115484012        4.59101997980182
C            2.16338695345759       -4.14086855663678        4.94408276101720
C            3.18570290032880       -4.42600946409034        3.98885335256772
C           -0.51750290275373       -2.63662906565337        2.97109976981737
C           -1.46566321690308       -2.56149588591529        3.87518075099513
C           -1.27209058772017       -3.15580205653802        5.22223544466667
N           -0.05682291624510       -3.66648475189777        5.58798380944968
C           -0.65086388505358       -1.71705573232736        1.87485413069577
C           -1.89584016524953       -1.09872962265953        1.77978078497818
N           -2.98003984637672       -1.24717174669162        2.53921207103055
C           -2.67946492888101       -1.87577660997042        3.64437592243363
C           -3.63958932621186       -1.86168734205999        4.69350355222320
C           -3.49822179037137       -2.39257601708368        5.98075498884552
C           -2.26192431692593       -2.99661420804103        6.19578352804182
C            0.34703417894752       -1.28027094723158        0.91080803741691
C           -0.04366521189522       -0.72791570902806       -0.32769338174478
C           -1.39622707372270       -0.48240351679858       -0.69226851083777
C           -2.17445748511938       -0.35273846811466        0.52394368733587
O            1.68688941742734       -1.31652995141407        1.38796850932071
O            1.34696171543161       -3.69517525137249        0.79567425671274
C            4.69377307841095       -4.11397802041412        4.40396074171632
C           -1.75484622514546        0.28084596435043       -1.93765382746610
H            2.50460350306660       -3.84708094444391        5.96551957060581
H            3.74995636833752       -4.81805180612673        1.96811678086304
H           -2.20507152959469       -3.70918889562231        6.96405157243333
H           -4.12244666390793       -0.98705635082360        4.36449214628918
H           -3.31689508144174       -0.27079997166668        0.36618329952766
H            0.79640031060047       -0.53925273858992       -0.93621811752214
O            5.40315526779610       -4.92378950961316        4.92011307761817
O            5.15981773913428       -2.80592985360770        4.37340937338656
C            6.57218378265487       -2.75643600257642        3.98844036884392
C           -4.56511468609244       -2.15430662436534        6.95090405560991
O           -4.86861471546602       -1.32007037774518        7.77395051127913
O           -5.60940555285963       -3.12730202916685        6.60016757366230
C           -6.47064150109481       -3.30528625403683        7.68598905212300
O           -2.98049593343753        0.46407341074625       -1.95258853270863
O           -0.88537044293492        0.33655378933416       -2.90744573291138
C           -1.53456934749690        0.84587819485945       -4.02522602584168
C            1.86409584622791       -0.64843471653963        2.59155637318516
C            2.31831162016702       -3.68864982979718       -0.14654238657116
H           -2.37840240210269        0.18539786793815       -4.20241847161080
H           -0.56394446372596        0.92564547470330       -4.79179095290924
H           -2.18305600468579        1.77053403137208       -3.80979792063798
H           -7.60320928159899       -3.05817724744971        7.50367744720459
H           -5.93847466829286       -2.80497280455850        8.47025114670915
H           -6.66624054041166       -4.42479769950666        7.81046799124347
H            3.24988376521063       -4.29496599410695        0.17059016406791
H            2.80598049523454       -2.78558736603500       -0.46697595360155
H            2.05672982582487       -4.32581588357179       -0.99127226770601
H            2.88775811480456       -0.15933814357823        2.95733385938513
H            1.57870801999721       -1.59914941664797        3.19041895961447
H            1.19421126331776        0.17081108003608        2.33857749563942
H            6.89528840813384       -3.70247513320273        3.48869421844539
H            7.20541585122948       -2.72048357190817        5.00631073539780
H            6.61992992373594       -1.81722202461502        3.32381321479378
116
 energy: -22.683555083513 gnorm: 0.523289639518 xtb: 6.6.1 (8d0f1dd)
C           -5.47705574152273        4.04242334218267        4.11358492472470
C           -4.16487639733217        3.97146227305166        3.68798762616963
C           -3.27741098648042        2.97417902429948        4.18044238101451
C           -3.78601139116893        2.15830247457373        5.31455372591802
C           -5.06094013788865        2.28768687844575        5.75262175801136
C           -5.91255275392005        3.27196148165306        5.18439248019514
C           -1.85713178113432        2.88307216933652        3.77551243205668
C           -1.12414783598352        2.18613944396632        4.70019342537715
C           -1.58354515533066        1.55773807360323        5.99897402401135
N           -2.81069784282197        1.44673130330861        6.10553336972843
C           -1.31082686600769        2.97932583552499        2.46776343744661
C            0.13025680070443        3.10984856051643        2.39648657873548
N            1.03284086527630        2.66512512966231        3.36067122339821
C            0.36714914178413        2.23558898829976        4.48030298127589
C            1.08943255919479        1.67231529416860        5.47103956225267
C            0.60586500445696        0.95318891360120        6.59070517276036
C           -0.71775252260265        0.92576335256135        6.85596487057904
C           -2.19372537668138        2.96481539041643        1.37281026289975
C           -1.64929452673402        3.20467148311250        0.18328363487583
C           -0.31487353489816        3.62075139011368        0.04025525240919
C            0.53125896064597        3.50867612669283        1.15676513134074
O           -3.57227380751520        2.54523004718624        1.57373305551526
O           -3.62206692381370        5.01831543588925        2.87021685179494
C           -7.42542562497873        3.20521104947482        5.74814131962348
C            0.17048633717712        4.28567596640454       -1.17742410989748
H           -5.62033555944116        1.66634257570980        6.44527516598893
H           -5.87586051379634        4.99076410544569        3.99888692660395
H           -1.31684680895539        0.23078255703083        7.48603845404605
H            2.09610133372027        1.49294159925598        5.23782001159884
H            1.62749751442182        3.69365694832677        0.85097065222167
H           -2.28117781444956        3.48742109247589       -0.70332885600191
O           -7.22823979125586        3.14099454315239        6.96135454811759