136
 energy: -187.550385987388 gnorm: 0.082353024209 xtb: 6.7.1 (edcfbbe)
C           -1.31760000000000       -0.35430000000000        0.36630000000000
C           -1.27170000000000       -1.71240000000000        0.63200000000000
C            0.00230000000000       -2.31690000000000        0.76750000000000
C            1.19960000000000       -1.57950000000000        0.59560000000000
C            1.06980000000000       -0.20310000000000        0.32660000000000
C           -0.15820000000000        0.41690000000000        0.22340000000000
C            0.08290000000000       -3.67420000000000        1.05840000000000
C            1.34400000000000       -4.26810000000000        1.13460000000000
C            2.49370000000000       -3.48130000000000        0.87750000000000
N            2.42490000000000       -2.15230000000000        0.63790000000000
C           -1.09790000000000       -4.43620000000000        1.21460000000000
C           -0.99990000000000       -5.80700000000000        1.51200000000000
N            0.27170000000000       -6.37290000000000        1.62750000000000
C            1.44600000000000       -5.65470000000000        1.39990000000000
C            2.69780000000000       -6.24690000000000        1.36540000000000
C            3.85070000000000       -5.51070000000000        1.06320000000000
C            3.73200000000000       -4.15360000000000        0.83420000000000
C           -2.34810000000000       -3.81720000000000        1.02840000000000
C           -3.48670000000000       -4.61240000000000        1.12510000000000
C           -3.41920000000000       -5.97030000000000        1.41810000000000
C           -2.17290000000000       -6.54670000000000        1.62700000000000
C           -0.24660000000000        1.90360000000000       -0.15290000000000
C           -4.67970000000000       -6.84310000000000        1.52110000000000
C            5.21540000000000       -6.19550000000000        0.87940000000000
C           -5.94550000000000       -6.07980000000000        1.08260000000000
C           -4.53030000000000       -8.07420000000000        0.60670000000000
C           -4.85630000000000       -7.29950000000000        2.97960000000000
C            5.58220000000000       -6.16950000000000       -0.61490000000000
C            6.29970000000000       -5.45740000000000        1.68520000000000
C            5.18580000000000       -7.66120000000000        1.35510000000000
C           -1.59160000000000        2.51010000000000        0.29680000000000
C           -0.12050000000000        2.03460000000000       -1.67920000000000
C            0.88630000000000        2.70190000000000        0.51990000000000
H            1.97430000000000        0.35630000000000        0.18240000000000
H           -2.28680000000000        0.09460000000000        0.26620000000000
H            4.59820000000000       -3.57730000000000        0.56840000000000
H            2.75980000000000       -7.30320000000000        1.54440000000000
H           -2.09720000000000       -7.59090000000000        1.86620000000000
H           -4.43340000000000       -4.14100000000000        0.94840000000000
H            0.88780000000000        2.53060000000000        1.59360000000000
H            1.86410000000000        2.42150000000000        0.13180000000000
H            0.76450000000000        3.77090000000000        0.34920000000000
H           -0.91560000000000        1.48400000000000       -2.18110000000000
H           -0.18210000000000        3.07760000000000       -1.98870000000000
H            0.83210000000000        1.63440000000000       -2.02510000000000
H           -2.42320000000000        2.10620000000000       -0.27880000000000
H           -1.59680000000000        3.59100000000000        0.15870000000000
H           -1.77700000000000        2.30610000000000        1.34980000000000
H            4.82650000000000       -6.68640000000000       -1.20590000000000
H            6.54100000000000       -6.65640000000000       -0.79120000000000
H            5.65190000000000       -5.14670000000000       -0.98340000000000
H            4.49690000000000       -8.25690000000000        0.75720000000000
H            6.17190000000000       -8.11650000000000        1.26530000000000
H            4.88430000000000       -7.72620000000000        2.40040000000000
H            7.26730000000000       -5.94540000000000        1.57040000000000
H            6.41270000000000       -4.42590000000000        1.35570000000000
H            6.05400000000000       -5.45250000000000        2.74560000000000
H           -4.95330000000000       -6.44170000000000        3.64420000000000
H           -4.00040000000000       -7.88460000000000        3.31390000000000
H           -5.74820000000000       -7.91550000000000        3.09090000000000
H           -4.36150000000000       -7.76790000000000       -0.42530000000000
H           -3.69350000000000       -8.70060000000000        0.91170000000000
H           -5.42920000000000       -8.68960000000000        0.63290000000000
H           -5.84610000000000       -5.71270000000000        0.06150000000000
H           -6.14680000000000       -5.23250000000000        1.73570000000000
H           -6.81910000000000       -6.73030000000000        1.11620000000000
O           -2.44610000000000       -2.45520000000000        0.74550000000000
H            0.34060000000000       -7.37380000000000        1.79240000000000
C           -0.99080000000000        3.90170000000000        3.67060000000000
C           -1.21460000000000        2.53620000000000        3.72110000000000
C           -0.09420000000000        1.68800000000000        3.89450000000000
C            1.21810000000000        2.20620000000000        4.02320000000000
C            1.36560000000000        3.60640000000000        3.96280000000000
C            0.29050000000000        4.45160000000000        3.78090000000000
C           -0.28310000000000        0.31060000000000        3.92740000000000
C            0.83080000000000       -0.51400000000000        4.08440000000000
C            2.11110000000000        0.07740000000000        4.21110000000000
N            2.30390000000000        1.41500000000000        4.17750000000000
C           -1.58430000000000       -0.22990000000000        3.82300000000000
C           -1.76060000000000       -1.62370000000000        3.88680000000000
N           -0.63140000000000       -2.43300000000000        4.02000000000000
C            0.65940000000000       -1.91850000000000        4.12810000000000
C            1.77550000000000       -2.71860000000000        4.30120000000000
C            3.05300000000000       -2.16680000000000        4.45350000000000
C            3.19960000000000       -0.79470000000000        4.40400000000000
C           -2.67900000000000        0.63910000000000        3.66160000000000
C           -3.94760000000000        0.07280000000000        3.58460000000000
C           -4.15400000000000       -1.29890000000000        3.68080000000000
C           -3.05210000000000       -2.13420000000000        3.81620000000000
C            0.45430000000000        5.97580000000000        3.68770000000000
C           -5.58330000000000       -1.85310000000000        3.59740000000000
C            4.27900000000000       -3.04170000000000        4.75060000000000
C           -6.10590000000000       -1.65940000000000        2.16390000000000
C           -5.62970000000000       -3.35090000000000        3.95400000000000
C           -6.49480000000000       -1.10370000000000        4.58850000000000
C            3.95750000000000       -4.54020000000000        4.59340000000000
C            5.41950000000000       -2.67940000000000        3.78180000000000
C            4.73390000000000       -2.78780000000000        6.19860000000000
C           -0.32590000000000        6.64020000000000        4.83610000000000
C           -0.09550000000000        6.46530000000000        2.33510000000000
C            1.93150000000000        6.40010000000000        3.79140000000000
H            2.36050000000000        3.99790000000000        4.05430000000000
H           -1.84130000000000        4.54280000000000        3.53610000000000
H            4.16910000000000       -0.35250000000000        4.53610000000000
H            1.63370000000000       -3.78210000000000        4.32490000000000
H           -3.17360000000000       -3.19950000000000        3.85980000000000
H           -4.78100000000000        0.73520000000000        3.44670000000000
H            2.36070000000000        6.09840000000000        4.74640000000000
H            2.52320000000000        5.95860000000000        2.98980000000000
H            2.02870000000000        7.48290000000000        3.71460000000000
H           -1.15310000000000        6.22900000000000        2.22650000000000
H            0.01560000000000        7.54490000000000        2.23700000000000
H            0.43870000000000        5.99590000000000        1.50970000000000
H           -1.38890000000000        6.41000000000000        4.77760000000000
H           -0.21730000000000        7.72410000000000        4.80580000000000
H            0.03910000000000        6.29080000000000        5.80140000000000
H            3.19910000000000       -4.85780000000000        5.30810000000000
H            4.84410000000000       -5.14810000000000        4.77090000000000
H            3.59650000000000       -4.75790000000000        3.58960000000000
H            3.93530000000000       -3.02750000000000        6.90020000000000
H            5.59980000000000       -3.39990000000000        6.44910000000000
H            5.00610000000000       -1.74350000000000        6.34700000000000
H            6.28070000000000       -3.32960000000000        3.93190000000000
H            5.08960000000000       -2.77910000000000        2.74930000000000
H            5.75570000000000       -1.65380000000000        3.92530000000000
H           -6.57010000000000       -0.04560000000000        4.34350000000000
H           -6.10840000000000       -1.18670000000000        5.60400000000000
H           -7.50320000000000       -1.51650000000000        4.57710000000000
H           -5.03460000000000       -3.93870000000000        3.25870000000000
H           -5.24920000000000       -3.52370000000000        4.96040000000000
H           -6.65140000000000       -3.72820000000000        3.91530000000000
H           -5.44440000000000       -2.14060000000000        1.44500000000000
H           -6.15780000000000       -0.60210000000000        1.90690000000000
H           -7.10290000000000       -2.08380000000000        2.04880000000000
O           -2.50300000000000        2.02050000000000        3.58660000000000
H           -0.74640000000000       -3.44060000000000        3.95160000000000
136
 energy: -187.558766907445 gnorm: 0.038507100674 xtb: 6.7.1 (edcfbbe)
C           -1.33011397408755       -0.36609064597323        0.36861379117006
C           -1.26701376767462       -1.71487162741800        0.64108898096325
C            0.00340853507927       -2.31585078870016        0.77391082823781
C            1.20412749632636       -1.57776239701971        0.59770102032411
C            1.07297189494173       -0.20141709834615        0.32329821774517
C           -0.16036981444705        0.40682516422292        0.21406472506046
C            0.09241298031624       -3.67335398235265        1.06303084294342
C            1.34610516367168       -4.27188916290019        1.13622635243635
C            2.49613157426316       -3.47884689085039        0.87634000269851
N            2.41631005518504       -2.15803129254726        0.63984141040571
C           -1.09220200011259       -4.43652501534131        1.21942657716513
C           -0.99533212347986       -5.80756413185466        1.50513999293659
N            0.26719180618079       -6.36253930341964        1.62637398161459
C            1.44439104934968       -5.65818529139924        1.39298547388417
C            2.68837531964708       -6.25402732608165        1.35901273677068
C            3.84397361040068       -5.51081429715484        1.04823967943038
C            3.73489426003783       -4.15235575480429        0.82321736225742
C           -2.33505335003292       -3.81672089021846        1.03625411409129
C           -3.48229947028123       -4.59806497870441        1.12186933605064
C           -3.41423118785793       -5.96013020356606        1.41728124263552
C           -2.16792609482490       -6.54706940104264        1.62664229605050
C           -0.25110386858239        1.89158073904199       -0.14997064821315
C           -4.67121157901935       -6.82990633308682        1.51649611542607
C            5.20426973387106       -6.19610215688196        0.88312961962964
C           -5.93852586879034       -6.08060933572384        1.08252124925165
C           -4.52303867865261       -8.06183642109583        0.60847713520631
C           -4.84647495824559       -7.29001489384954        2.97214129504077
C            5.57059424371492       -6.16747827978508       -0.60844607049290
C            6.29102872614402       -5.46250522231079        1.68145832356954
C            5.18401848709787       -7.65711673318372        1.35375867324334
C           -1.58974702780650        2.50625263093659        0.28327437082565
C           -0.12240066274293        2.01968164957518       -1.67462209114132
C            0.87967938875517        2.69237862062619        0.51286956644779
H            1.98196561967168        0.35693179820151        0.18680873630675
H           -2.30456644423779        0.07970214407182        0.26906733270632
H            4.60098171472407       -3.56836495971705        0.56313548029152
H            2.74987390799951       -7.31214996404249        1.54924330787801
H           -2.09323288910730       -7.59612043403845        1.86509823999303
H           -4.42810122785246       -4.12097083783482        0.93803744604050
H            0.88755173858913        2.52646395517312        1.58539627114525
H            1.85502208153707        2.41973957653653        0.11850019431964
H            0.74147960673351        3.75746619707045        0.33585086606672
H           -0.91876511357406        1.47294277701610       -2.17677425179717
H           -0.18413076105440        3.06577271712424       -1.97116584730871
H            0.83179791731289        1.62247398747842       -2.01555900247774
H           -2.41997430632568        2.11261823315650       -0.29901478910606
H           -1.57224909248580        3.58560602951581        0.14445310660553
H           -1.77735676112749        2.30790089996165        1.33253621795758
H            4.81712812077780       -6.68627604183603       -1.19888222137078
H            6.53019800576074       -6.65546079981273       -0.77245989845660
H            5.64179214476806       -5.14500967944575       -0.97279370824755
H            4.50514623236263       -8.25704920271763        0.75065002994617
H            6.17739346183895       -8.09252944896889        1.25985036548571
H            4.88603670587664       -7.72213313916279        2.39893609053816
H            7.25181853610912       -5.96029623066928        1.55704591527203
H            6.40565165085463       -4.43396770148600        1.35136239473281
H            6.04428664609502       -5.45845545191597        2.73967312963515
H           -4.94986645966547       -6.43398454230849        3.63626299209105
H           -3.99374674382836       -7.87779984327259        3.30571491332976
H           -5.73916498479639       -7.90521198241813        3.07025626446860
H           -4.35751586076862       -7.75595598459563       -0.42272514348928
H           -3.69225651388068       -8.69273873939152        0.91461035494597
H           -5.42763239244483       -8.66651667880873        0.64385270549041
H           -5.84248600153021       -5.71880707212330        0.06071239590239
H           -6.14767713241201       -5.23959318342698        1.73855923111072
H           -6.79671593435281       -6.74927136132491        1.12217020072535
O           -2.42581324601442       -2.46958972560940        0.75576018532758
H            0.33422320683056       -7.35818294224118        1.78946199502043
C           -1.00587731683953        3.89347117549680        3.67662725542110
C           -1.21377941347425        2.53222479985699        3.73456576731359
C           -0.09524382066374        1.68717963717021        3.89732397235042
C            1.22109613596333        2.20502938989911        4.02562993094102
C            1.36859712604900        3.60753468394822        3.96767033648635
C            0.28853595696498        4.44345217555293        3.78444569194809
C           -0.27523406591811        0.30789931938366        3.92511730981724
C            0.83208505652940       -0.51844452656494        4.07985678964812
C            2.11409219980798        0.07819119810810        4.21256240753165
N            2.29326358466642        1.41091793182013        4.18208756332100
C           -1.57981502396245       -0.23169300819119        3.81906785131992
C           -1.75489471081644       -1.62193479376606        3.87514345878172
N           -0.63336222790072       -2.42011713408121        4.01153703689139
C            0.65900032177251       -1.91996096584072        4.12014659419741
C            1.76661577175761       -2.72175774711461        4.29928779201543
C            3.04768958709779       -2.16290518677819        4.46056794175959
C            3.20348076934323       -0.79242151117510        4.41052078243299
C           -2.67021859132981        0.63473929802306        3.67014137569174
C           -3.94255157569568        0.08484894513947        3.58413695398906
C           -4.14547097955505       -1.29375839815179        3.67435205010341
C           -3.04594661513945       -2.13541196913247        3.81167393177290
C            0.45256286424820        5.96210971373748        3.68936422308309
C           -5.57012041018919       -1.84725037960071        3.60083207683515
C            4.26818662778294       -3.03849451093054        4.74803922278727
C           -6.09432802513114       -1.65443170957928        2.17034230700735
C           -5.62615300951469       -3.33994960014100        3.95433356436702
C           -6.48331226647133       -1.10197014410278        4.58698901644916
C            3.95812412194759       -4.53360891670508        4.59652249876485
C            5.40801992939430       -2.67601740193289        3.78604032320792
C            4.72329879705939       -2.78313853584552        6.19307598444099
C           -0.32614305858489        6.62876878800194        4.83314354254121
C           -0.09596776189790        6.45331913540203        2.34082644480597
C            1.92140871618324        6.39530447912295        3.79110533102313
H            2.36795338537897        3.99317971354817        4.05582143653801
H           -1.86131647775646        4.53409946423155        3.53757852803121
H            4.17367710368520       -0.34416111092391        4.53698755906794
H            1.62284334102127       -3.78900484982593        4.32176165796055
H           -3.16768983462289       -3.20398143092496        3.86579023996697
H           -4.77656385230270        0.75348993131426        3.45075392088091
H            2.35012268371698        6.10033960913068        4.74658513220158
H            2.51236330914882        5.95854453081537        2.98855754912677
H            1.99793842580243        7.47885401401010        3.71165009515370
H           -1.15246134187085        6.22034582386786        2.23142138868659
H            0.02155941115800        7.53263553169586        2.25423160543975
H            0.44361624513376        5.98523376359371        1.51966258357618
H           -1.38810918426762        6.40183625218296        4.77450427858576
H           -0.20928970498828        7.71080014591495        4.79239992918884
H            0.04359056230074        6.28101355729655        5.79597973191466
H            3.20820123559583       -4.85400656311595        5.31789321116087
H            4.85582919141192       -5.12287350498291        4.77768935394315
H            3.60338920550783       -4.75275601135916        3.59176953151601
H            3.92666267877501       -3.02634696366833        6.89433717055044
H            5.58979888956503       -3.39836586513180        6.43187344484377
H            4.99559846654305       -1.74021823044066        6.33807231135148
H            6.26299632130042       -3.33155746955283        3.94440267510058
H            5.07254390955603       -2.77771588560999        2.75739004883240
H            5.74345096138548       -1.65296290171724        3.93388975447154
H           -6.56450006890262       -0.04668718870960        4.34105827781640
H           -6.09760393090437       -1.18792259692059        5.60109040238420
H           -7.48611295679622       -1.52595288007041        4.56558018611460
H           -5.03838968740747       -3.93045355913287        3.25600308132884
H           -5.25087583063242       -3.51201350443488        4.96179465888826
H           -6.65460215711788       -3.69678781137442        3.91376716763794
H           -5.43212761679020       -2.13536963980684        1.45346035396767
H           -6.15009062794899       -0.59850308213381        1.91614285225447
H           -7.09041467478063       -2.08273331004705        2.06618147889846
O           -2.49085596285625        2.00239387615410        3.61129931278435
H           -0.75300544125222       -3.42353740182879        3.96576375604361
136
 energy: -187.561324527578 gnorm: 0.007366808031 xtb: 6.7.1 (edcfbbe)
C           -1.34049474773139       -0.37359837418722        0.37557105684099
C           -1.26396823287234       -1.71597359690706        0.64975965212720
C            0.00461645569083       -2.31452349825764        0.78254179886318
C            1.20866484495850       -1.57718969797605        0.60089259926776
C            1.07279557305315       -0.19995418075225        0.32731653528039
C           -0.16290729469702        0.39903628665315        0.21901267355277
C            0.10171518539294       -3.67151623996298        1.06946847165289
C            1.34901954491450       -4.27575321821568        1.13750338273985
C            2.49894137550476       -3.47771679539079        0.87268441664426
N            2.41004654236204       -2.16408914911839        0.63985657412580
C           -1.08673134616640       -4.43470790478836        1.22618874320544
C           -0.98993906717122       -5.80650088009007        1.50321005133772
N            0.26460863392516       -6.35512462923819        1.62743473306795
C            1.44473155398725       -5.66260439222523        1.38805033365605
C            2.68281368326180       -6.26065468838734        1.35671068222868
C            3.83940207115145       -5.51002598640783        1.04626924005824
C            3.73772319453077       -4.15346142740777        0.81846231349377
C           -2.32377763834449       -3.81250389080859        1.04208392184417
C           -3.47758071344412       -4.58470106387951        1.11861965229500
C           -3.40721162280980       -5.94839067461039        1.41315943689739
C           -2.16330980957488       -6.54345147787905        1.62504931844466
C           -0.25612046190609        1.87656684477514       -0.15285880474079
C           -4.65896405212908       -6.81649699667278        1.51219361725756
C            5.19248925206510       -6.19678350408138        0.88200670178124
C           -5.92917362796729       -6.07861402864668        1.08121339844389
C           -4.51288453148542       -8.04807326009134        0.60616196862687
C           -4.83391334673375       -7.27752622405278        2.96699231642194
C            5.55838309594957       -6.16731057413450       -0.60897674588689
C            6.28033483258372       -5.46694864518974        1.67793157302659
C            5.18002464711613       -7.65472449683182        1.35080555396791
C           -1.59047885484789        2.49834215284204        0.26950740383961
C           -0.12285376281677        1.99804121293884       -1.67818637287436
C            0.87109905589335        2.68333383173692        0.50245855518823
H            1.98423908800880        0.35596038864824        0.19188284165295
H           -2.31627611316293        0.07107171160226        0.27374288166170
H            4.60174511613402       -3.56483711941625        0.55737988047708
H            2.74631894623547       -7.31971791849529        1.54887800601612
H           -2.09138599201012       -7.59495490167247        1.86080662309498
H           -4.42139046989240       -4.10436016458439        0.92871557723225
H            0.88870013426229        2.52178135344693        1.57491608918154
H            1.84425998624191        2.41986077461315        0.09984504641342
H            0.71708645340124        3.74514039033388        0.32060279951759
H           -0.91929575533992        1.45191036238781       -2.17874690793119
H           -0.18457031439499        3.04488588294857       -1.97036813518183
H            0.83182570107143        1.60047210746870       -2.01352200826599
H           -2.41767916632586        2.11414753588163       -0.32169958119706
H           -1.55385822632204        3.57622117964933        0.12484110472300
H           -1.78899179244192        2.30875686206847        1.31722850424552
H            4.80502882845349       -6.68619421481102       -1.19798447754105
H            6.51816461279768       -6.65552868075734       -0.76777255918135
H            5.62854640840313       -5.14465754640822       -0.96898793845340
H            4.51090740894975       -8.26166527112140        0.74541427279122
H            6.18001437764851       -8.07334779450252        1.25544330319030
H            4.88445056328110       -7.72351883875655        2.39556309965992
H            7.23493119629461       -5.97297363519082        1.54505637127721
H            6.39839953295071       -4.43997462485888        1.34913781992096
H            6.03631421632038       -5.46523196421485        2.73578284602412
H           -4.94196977833691       -6.42273176095882        3.63070895030235
H           -3.98213700332032       -7.86496308806781        3.29970474786386
H           -5.72646817011871       -7.89347083330364        3.05572967907549
H           -4.34797934754426       -7.74324038665075       -0.42453716013889
H           -3.68717434313087       -8.68282020809748        0.91332889839616
H           -5.42233359582406       -8.64411913445845        0.64725167370072
H           -5.84004652518187       -5.71915878201033        0.05904654048515
H           -6.14777792730303       -5.24185420360707        1.73778226268828
H           -6.77503877896694       -6.76209935034675        1.12529142714946
O           -2.41125865217791       -2.47881190505787        0.76693184690465
H            0.33032524848313       -7.34928678527473        1.78652196226311
C           -1.01809594772816        3.88613256921643        3.68458746671247
C           -1.21351991180231        2.52873657713864        3.74534949341109
C           -0.09567376018634        1.68564176720752        3.90154677110878
C            1.22418472567836        2.20200022020663        4.03056088810791
C            1.36881443751833        3.60691991231094        3.97245842523751
C            0.28592538033393        4.43376470108398        3.78986993333550
C           -0.26687362948609        0.30547898791444        3.92223435033781
C            0.83449936001125       -0.52362148343280        4.07412857533658
C            2.11715903401740        0.07790946603138        4.21489009934203
N            2.28510779077237        1.40603964169644        4.18770290682451
C           -1.57453230538205       -0.23279757232899        3.81438109511685
C           -1.74827145023503       -1.62119603260120        3.86562756458797
N           -0.63358512745301       -2.41214958307912        3.99997083071443
C            0.66021780525282       -1.92399950403991        4.11149373867301
C            1.76143969626150       -2.72685376464471        4.29421085684470
C            3.04326209780690       -2.16099046119020        4.46009911233971
C            3.20585554260951       -0.79308813677148        4.41439856335975
C           -2.66145932123386        0.63406800607863        3.67629572160251
C           -3.93668710283682        0.09607987657518        3.58831869277947
C           -4.13578223668571       -1.28645822792306        3.67590956020558
C           -3.04050642942185       -2.13392071895774        3.80968775219957
C            0.44622896411116        5.94728619365601        3.69221050547787
C           -5.55585417008895       -1.83720514454221        3.60364869998919
C            4.25775654416819       -3.03399888728667        4.74986522830262
C           -6.07983192268935       -1.64386400100053        2.17391367974567
C           -5.62094156107670       -3.32672545358409        3.95556258233853
C           -6.46939509759771       -1.09487048771727        4.58804598901689
C            3.95857324438718       -4.52790065114841        4.60196181934854
C            5.39515552775512       -2.67157607713356        3.78868737367709
C            4.71174989868794       -2.77565805084546        6.19402287069711
C           -0.33096052734445        6.61490803219220        4.83446062821951
C           -0.10017570789635        6.43633949154606        2.34387146690858
C            1.90913935475487        6.38978327784450        3.79169590656117
H            2.37093884418740        3.98723192167015        4.05938464692589
H           -1.87486580094749        4.52708899895769        3.54690007620239
H            4.17415828764467       -0.33918675095951        4.54306197561566
H            1.61950345049744       -3.79596885745154        4.31780462897890
H           -3.16384160473961       -3.20339848441615        3.86935242567699
H           -4.76963399571325        0.76852396327470        3.46061339610353
H            2.34086165547670        6.10336475948679        4.74722330319326
H            2.50238684957036        5.95880297202899        2.98917780096263