116
 energy: -22.622794283342 gnorm: 0.500817351453 xtb: 6.6.1 (8d0f1dd)
C           -5.77775860242585        5.79271667577126       -0.59151648444885
C           -4.62055617232183        5.79928472693029       -1.49760811611714
C           -3.38216211439144        5.45559940081559       -0.91581303361439
C           -3.23256262533915        5.40451816262823        0.46639029239458
C           -4.40709537223027        5.45147757872596        1.31677876596387
C           -5.65050672846139        5.56152333213344        0.81179385747551
C           -2.22906145074282        5.33090249123474       -1.80167628685307
C           -1.06163522725989        5.55894628277793       -1.09113739861907
C           -0.96334311609813        5.76389945996261        0.27993496952906
N           -2.06355272172930        5.59532755185745        1.10954797878096
C           -2.02205972783192        4.81340333934250       -3.16068735238649
C           -0.87403216761073        5.29714259868378       -3.77796289532848
N            0.26731223305083        5.60373161312992       -3.07251549647325
C            0.21395977854198        5.54096579571311       -1.72370879773293
C            1.48909535455909        5.69972560554385       -1.00846558189479
C            1.39401327186182        5.74908959944026        0.34963791994538
C            0.22598788601234        5.91304527287585        0.99746185046822
C           -2.98852982053960        4.11600019520418       -4.04059914393332
C           -2.71722863268145        3.99433792218529       -5.38525293033909
C           -1.56610572546192        4.60791109864974       -6.01864163882697
C           -0.65807677470658        5.14575749370645       -5.16437362241457
O           -4.17291493680051        3.61612213980682       -3.63308175927111
O           -4.47026829477951        6.30304146151702       -2.75662911701269
C           -6.77570679353864        6.12739847637755        1.64461935603107
C           -1.42723438053344        5.00870671750644       -7.40761744325085
H           -4.24136333766524        5.63597466951302        2.38960554746054
H           -6.67202276024881        6.19985448826814       -1.01575977392661
H            0.32085959861122        6.07830599005780        2.00714793022900
H            2.37118439293641        5.77089979461751       -1.67776611057097
H           -0.00864381845864        5.82191524478837       -5.68575275791640
H           -3.12727951074237        3.05966935516934       -5.91195668162304
O           -7.35676912719250        7.16317772682787        1.25220431022676
O           -6.65013128562622        5.83165054383460        2.97108060935747
C           -6.65452261512970        7.04267334717987        3.75699916349333
C            2.64954920913115        6.00354888253066        1.08020260987098
O            2.93438993169548        6.96298598712412        1.69645761583451
O            3.58533478806263        5.06710981241041        0.72169785823321
C            4.96491769151814        5.16070426612074        1.02188670040882
O           -0.30214318055609        5.33117825625573       -7.90638568712864
O           -2.49858862680323        5.11019965379924       -8.28502753919329
C           -2.48327969136757        6.00851538230498       -9.47489517590472
C           -5.04745476965455        4.09512767198576       -4.57035010600214
C           -5.52462381047699        7.20306761797625       -3.08241303949473
H           -2.50841077028197        5.26543975928205      -10.22379227141355
H           -1.52119035146032        6.40398883934292       -9.43621315235250
H           -3.31501163133629        6.77053625384690       -9.42839452739203
H            5.34509748127011        6.09295773728162        1.48629569214729
H            5.45303045022982        5.05206635870936        0.06446541628046
H            5.26058787901079        4.46214734518706        1.76067632922807
H           -6.53267292835323        6.95157865529290       -2.69091369619271
H           -5.66935752039020        7.21900980484065       -4.26151766822309
H           -5.22247325381313        8.21226029347877       -2.79658125809586
H           -4.84636123435934        5.13891817923728       -4.70113926153387
H           -6.02714720787634        3.67690423476098       -4.30905947996583
H           -4.72975466753115        3.60662518419084       -5.57747536562222
H           -6.17310282151095        7.81966109267653        3.14064460132752
H           -6.03079007132016        6.64760018670346        4.65958489805339
H           -7.60061959007107        7.41379516143721        4.18773111358536
C            0.83490816757287       -2.90279932307726        6.10887698100152
C            0.93702746939212       -3.69427729333743        7.23647313540794
C           -0.28657875774870       -4.26045582002338        7.90493784547353
C           -1.49661058420883       -3.51877623608862        7.70483483686920
C           -1.52593830422420       -2.64874159663162        6.60831199458042
C           -0.37853908438642       -2.37926290580671        5.75408052467424
C           -0.29401213373183       -5.46325747017801        8.64988521821220
C           -1.41510965764628       -5.39497290667065        9.53699076981652
C           -2.57531063527567       -4.53560334470067        9.35402633560232
N           -2.56456664184044       -3.45977979594988        8.53564782405539
C            0.67131621715363       -6.58233903683705        8.79073042008999
C            0.67857222055652       -7.27455278257518       10.05210987734124
N           -0.39660048669134       -7.26743840355558       10.78476668182258
C           -1.51442828126166       -6.60666263548994       10.38184218076446
C           -2.81611265887287       -6.58253609741642       11.03861919687599
C           -3.84070273931723       -5.65863920192217       10.92044136061267
C           -3.75487267672076       -4.63904363562944       10.07343850493512
C            1.63524776435501       -6.76141175872116        7.82949040859336
C            2.75610674227207       -7.55163573137856        8.18620493255568
C            2.83554605000432       -8.07197898191082        9.48389797080502
C            1.85882544172169       -8.13052586203423       10.41748509765355
O            1.34153226308376       -6.19306038554850        6.60706192948867
O            2.19265532281639       -3.91644974799500        7.85501825935374
C           -0.13198139663658       -1.13680472126365        5.17299216876267
C            4.15872525292083       -8.57271472444044        9.98388208041540
H           -2.44279407699109       -2.14020569336582        6.32128811168429
H            1.86215288845295       -2.71426442051577        5.69073859915739
H           -4.58315927777690       -4.07845866560127        9.75892597842081
H           -3.04399825953532       -7.47226616414872       11.61541456460769
H            1.93476168555903       -8.10163527241375       11.51542434445106
H            3.65129586800170       -7.64332685742810        7.53955352877636
O            0.85962880151068       -0.49085056072002        5.35529625937622
O           -1.22498034217135       -0.56991188369682        4.42756047678342
C           -0.68553182771179        0.39052422513082        3.39719224576896
C           -4.90592965972283       -5.61863840991109       11.88933334473382
O           -4.65777748090015       -5.70954480553943       13.08095882799620
O           -6.10892053636926       -5.18756728940415       11.48259651834834
C           -7.13221024339203       -5.29785013073411       12.54184090052040
O            4.25551104218812       -8.71100956138281       11.22120518665370
O            5.14126312916262       -8.92336952059026        9.10148388122550
C            6.45810219740040       -9.45873093521532        9.39263098986617
C            2.21721819761711       -6.52620386846417        5.48217933660689
C            2.39721220447434       -2.60142580810125        8.65747408144457
H            6.57109844169512       -9.00984740947523       10.37249236503714
H            7.21798303883669       -9.23471540985028        8.60283402109490
H            6.11605499431948      -10.44825095474478        9.66013008811235
H           -6.88049858417099       -5.18373335262019       13.48030941029749
H           -7.37035362910636       -6.32383004597081       12.57072187657999
H           -8.08583591533464       -4.82786089551349       12.25130529193832
H            3.50059053965841       -2.67612133533837        8.68894806912813
H            2.21931457711305       -2.51660874528350        9.75837514269778
H            2.11646220129528       -1.71067408273562        8.15699427270925
H            1.71175492458916       -5.91096587891355        4.67501941426769
H            1.91397749404031       -7.60337314113510        5.15290157069270
H            3.21554783682432       -6.14848212072253        5.62530320640409
H           -1.21441072300566        0.23166444117906        2.44947799842993
H            0.26627996992892        0.07292323513106        3.01111512266574
H           -0.99933744226400        1.40354459257152        3.78113943229176
116
 energy: -22.451505328474 gnorm: 0.584936650112 xtb: 6.6.1 (8d0f1dd)
C           -5.33557143270978        7.60495989070343       -1.05122548232528
C           -4.12576557714617        7.54005166092948       -1.76520187970892
C           -3.05089094452731        6.77869768667552       -1.16983415367349
C           -3.09747023910014        6.67361743158536        0.37401779094541
C           -4.47300647945648        6.65250841512379        0.94563037880586
C           -5.51285688356954        7.08897214353119        0.22940990646145
C           -2.06164990573525        6.06220520478207       -1.89099913014935
C           -0.94643796365074        5.57759872079142       -1.06562130539183
C           -0.86854371837247        5.77967650066910        0.29449499958843
N           -1.85476917873713        6.36092557990886        1.03276354828918
C           -2.10750345778613        5.59295132584300       -3.22406424896134
C           -0.92062364478972        4.92147000797045       -3.69306205678991
N            0.39228249064024        4.93856852961146       -3.06093262780277
C            0.34871487312294        5.11519412786850       -1.67626508647328
C            1.45029559064931        5.06684102916148       -0.79179914535602
C            1.40370784612282        4.95711450575667        0.52923061926206
C            0.22037569462454        5.34281411842450        1.02988333801072
C           -3.41017586802922        5.27552449305088       -3.74925675773498
C           -3.52900888566159        4.41275921291647       -4.93191623133818
C           -2.38198214159836        3.78268524992863       -5.44451958976939
C           -1.11205862668792        4.02825280312794       -4.79560684793296
O           -4.68320106712087        5.51367288159350       -3.10226022205594
O           -4.06282940169703        8.17742513418924       -2.96504154530064
C           -6.92044449812401        6.59689739457654        0.50149764757745
C           -2.35337264972317        2.91005536802314       -6.68688296447685
H           -4.71056905174389        5.94985431606347        1.68462641839697
H           -6.16570030349064        8.07392614692491       -1.61910651747644
H            0.16417309971574        5.16095601944957        2.15606556221271
H            2.37680485191374        4.62116057162733       -1.29689782284546
H           -0.10600368267034        3.42999038654403       -5.24527594174126
H           -4.50697513602156        4.37047760092069       -5.33657143567120
O           -7.15100173445994        5.33361277994384        0.50903394595019
O           -7.97729533512601        7.47398509346200        0.67325276178997
C           -9.12544793323625        6.81991744402195        1.08784984439365
C            2.66396085386457        4.82835784711454        1.43416813834046
O            2.88865425055241        3.85904308425716        2.08501272400640
O            3.18055101942269        6.17002751304273        1.34510004652533
C            3.47743232121519        6.90345580219760        2.59274022773026
O           -1.22745495832743        2.73132221019674       -7.17018065722080
O           -3.67357645996967        2.50698393441724       -7.03381363624445
C           -4.06372639377988        2.65191370334025       -8.36166015965862
C           -4.97441168970391        4.83798853115485       -1.95040084975062
C           -2.91763436526506        9.03263259315200       -3.03642217859093
H           -4.86350694405454        3.47532390314203       -8.70661327772840
H           -4.60503227308297        1.62047576685050       -8.31349694237545
H           -3.17597495294993        2.43859154964840       -9.04524289076969
H            2.35158366125046        7.20743390152181        2.87485039791129
H            4.29083646231530        7.49068225710102        2.24359358930157
H            3.76966471943629        6.25278963704943        3.33031624137549
H           -2.61066622437104        8.90027931284474       -4.16344058167583
H           -2.02385336305582        8.40832080598398       -2.56079504004842
H           -3.38404803578362        9.93991200955258       -3.17164185834543
H           -6.06231599166536        4.95182381978423       -1.95016887819576
H           -4.41837179423326        5.25539254011293       -1.10483970079476
H           -4.32819630419325        3.88312734323706       -1.69589138785942
H          -10.02013629410006        7.30126836997154        1.54947159396753
H           -8.85490553029578        6.22074009143359        1.94582243549710
H           -9.56249455650316        6.31605056683302        0.18425834587879
C            1.52803179125133       -2.90792686875977        6.34479201870882
C            1.55770503865651       -3.91339258077467        7.36694395920537
C            0.20353525644866       -4.11299104907445        7.82959406237127
C           -0.73057194884263       -3.13195794929844        7.86006541684973
C           -0.65960450010964       -2.01129474153208        7.09381991649891
C            0.46850206684147       -1.87899916713387        6.28505678526258
C           -0.00315299844772       -5.26707459666546        8.51194637859615
C           -1.09640866054022       -5.38227929308247        9.34930363594470
C           -1.94610262378241       -4.26755911264216        9.43745440730960
N           -1.89805542897589       -3.23551160582492        8.56162535149756
C            0.89130162192675       -6.33775102733139        8.42790797866428
C            0.83651813426499       -7.19470011983891        9.56428584242298
N           -0.22187834856564       -7.41987679416400       10.51324857078453
C           -1.21655270324363       -6.46712229672731       10.33340675521544
C           -2.46879386808615       -6.44348179011245       11.00787384424759
C           -3.42663917813071       -5.53161960984189       10.74902773210530
C           -3.22539782135455       -4.30654591232004       10.15138449833994
C            1.69312708104001       -6.56392491252513        7.29288449012086
C            2.72272395286428       -7.43795180166610        7.57647421778801
C            2.88804063869155       -8.00105961164722        8.90564350099028
C            1.95620389927196       -8.09776671702143        9.83844379423167
O            1.53332230660238       -5.94431922660387        5.99691043577598
O            2.75446321902138       -4.21993528867983        8.07932688892699
C            1.09761487283933       -0.82141384577524        5.52451588319882
C            3.87312040688532       -9.07202917771703        9.18148052002393
H           -1.24576994722119       -1.12914656893952        7.24846975422801
H            2.36177227288155       -2.80565540919857        5.71088151419422
H           -3.96206588926437       -3.67894973397731        9.97445715872157
H           -2.52683396553010       -7.16156942242225       11.82908242416925
H            1.92818399798446       -8.88995122971296       10.55428409110786
H            3.36007237321075       -7.66774876275580        6.80864203018868
O            2.27449359651707       -0.60602844288158        5.54015668184844
O            0.16313549899095       -0.22160914090360        4.67961522133143
C            0.66458150146365        1.00420542542710        4.52227336598500
C           -4.70769213810562       -5.80044687344305       11.29460134388531
O           -4.89569308784595       -5.50575310043167       12.41850200830715
O           -5.78029169263690       -6.10751958231900       10.48284013216624
C           -7.03359058512817       -6.06589693287766       10.88722523686219
O            4.85621735168934       -9.24000611648070        8.49128433466287
O            3.72984805472912       -9.72282582078941       10.37861687302482
C            5.08902063991899      -10.04765546157707       10.89058118662996
C            0.42396389209061       -5.77783986027188        5.32135914075462
C            3.56822694125707       -3.10447470778534        8.37069168339912
H            5.21985255525288      -11.13055337739856       10.80009421191470
H            4.75568000448631      -10.05906193365300       11.98109417426632
H            5.83740040224505       -9.21809289179204       10.75887108822501
H           -7.03287215147264       -5.04109110934738       11.24773115336746
H           -7.02700440669187       -7.07372037833092       11.56498757730954
H           -7.55977497490268       -6.21130189269143        9.94462241428771
H            2.93948173947261       -2.34049439998117        8.09431605444744
H            4.49364137477099       -2.72874005671293        7.82129221616916
H            3.45617026648652       -3.32715064089933        9.56320315435685
H            0.44697677109570       -6.27687531765396        4.27808905111506
H            0.06211008711519       -4.68952792260831        5.12344088140824
H           -0.10456884179560       -6.40773934158456        6.03207107909102
H            1.02140842934083        1.54035992242795        5.43887920468714
H           -0.09776869178366        1.72675020940079        4.11153125745721
H            1.51306131091436        1.02349357580183        3.79116380115631
116
 energy: -22.536010593330 gnorm: 0.550788428558 xtb: 6.6.1 (8d0f1dd)
C           -5.80841560874634        7.89852390627504       -1.36216526228544
C           -5.02982795419031        6.87591805725609       -2.02004166313097
C           -3.96831461109110        6.29673041253440       -1.12094260530436
C           -3.96395796029780        6.68579106313881        0.36630042220959
C           -4.91227946950620        7.69741886017232        0.84605462390289
C           -5.92605126553878        8.20300127668039        0.06369958225365
C           -2.71270020466717        5.61395195491078       -1.67483706413526
C           -1.64761484070598        5.64660163871530       -0.77254619872823
C           -1.80053670296645        5.89957442643031        0.54575001650332
N           -2.86580774134181        6.39466236064222        1.10811662973083
C           -2.59815267421507        4.79825642507939       -2.87967460792668
C           -1.27820417733626        4.58321520705888       -3.38352166515587
N           -0.14795547434063        5.04517036718724       -2.61346455983952
C           -0.42744274130314        5.10350617178608       -1.32869200835955
C            0.59445042579514        4.86257303910794       -0.41929170226560
C            0.51565326307829        5.16977159089891        0.97313750953271
C           -0.68869661932210        5.62473257510377        1.44979600039479
C           -3.65193160886098        3.83028877125220       -3.25701839788513
C           -3.35766352044229        2.75457901724461       -4.08443119081431
C           -2.04839844137178        2.66103214138591       -4.66295629788075
C           -1.13142379380477        3.62615862514724       -4.39334740120897
O           -4.88459611709145        3.90650575463548       -2.46225502533058
O           -5.03566183696523        6.78326747005347       -3.48307969798899
C           -6.76327932264220        9.30913333673347        0.61823010711044
C           -1.69201145096451        1.86164812794135       -5.88316100847472
H           -4.76458583545585        8.25033912404622        1.75101243156159
H           -6.25645203025949        8.58195423045786       -2.07903595814808
H           -0.91826111689178        5.60514456053310        2.48063850761727
H            1.53921367582731        4.34209039265219       -0.67948553082475
H           -0.01929531738281        3.50261413087271       -4.63640150296384
H           -4.05996892902221        2.13461638447945       -4.50105329552010
O           -6.56384054590267       10.53876353840452        0.67169292398028
O           -7.96033610832704        8.67112909126264        0.92347189546662
C           -8.77502339064887        9.68383974401223        1.41367098289682
C            1.69779468203938        4.94154106720852        1.89287183687947
O            2.60810145983935        4.09846881701352        1.66420861349152
O            1.65412354975196        5.81314117800895        2.91549972645513
C            2.76157003751276        5.48959854600345        3.71177721798599
O           -0.54094521887768        1.81220939596779       -6.19533398852422
O           -2.77592303160406        1.32386574602075       -6.48659013052327
C           -2.56023044228504        1.24428828245088       -8.00076196496978
C           -5.99217693446743        4.41826377756857       -3.21368440356018
C           -4.00881931034972        7.33343995926067       -4.23883811753173
H           -2.09558386217524        2.12227528659829       -8.33244364298260
H           -3.45556451936431        1.03226282116500       -8.54134773123162
H           -1.71734250378366        0.57186055847288       -7.91131844214916
H            2.61973253139970        6.18109801559128        4.47233160466184
H            3.64623442083770        5.78489564792916        3.05647010456796
H            2.60291255436522        4.43195630863336        3.91232282411947
H           -4.40640663503104        7.16801381059950       -5.18841803424142
H           -3.05862239182653        6.60209982041761       -4.12106974399414
H           -3.83036331970798        8.36598144161065       -4.38172158359733
H           -5.82857870257573        4.63419753743587       -4.27685806030627
H           -6.79320187450072        5.03943549420376       -2.66198505862020
H           -6.73926334191062        3.51008444004774       -3.40533989480738
H           -9.50974907968324        9.40631947557380        2.08432830728003
H           -9.17490219899594        9.98561525810079        0.39053933173212
H           -8.12544971107392       10.46942777424456        1.85242794675813
C            1.97448163847715       -2.16611697869832        6.58129518284983
C            2.14357668784847       -3.34898960467209        7.31165887802847
C            0.81471049573482       -3.92767444061360        7.60553044094038
C           -0.42654881669113       -3.32871415076027        7.19138237961483
C           -0.27445873750481       -2.11191375687939        6.50261987755273
C            0.86921663587324       -1.58808714426464        5.91111333248280
C            0.49609902521553       -5.04504785140046        8.45284835860465
C           -0.79992193986122       -4.96941782957322        9.11196572490358
C           -1.95081353260367       -4.56252458988579        8.38095705893284
N           -1.69022950621571       -3.61615165251666        7.49201217785526
C            1.42683585930652       -6.12333557951009        8.77677042486649
C            1.22175490895425       -6.78512025378340        9.93398378388212
N            0.22774704649140       -6.45595401299093       10.87667243372012
C           -0.86608062756756       -5.76445018590002       10.33038875804278
C           -2.13727397422933       -5.61728831368760       10.77420813072906
C           -3.29074631754139       -5.27134596004239       10.10093523124138
C           -3.29894607305882       -4.84769981308435        8.73007072564080
C            2.39814727684299       -6.63551348886259        7.81667670049207
C            2.95856894056855       -7.84598608245734        8.11658543291349
C            3.00520014897002       -8.53647714425805        9.45864001090177
C            2.12356407839399       -7.83907109593668       10.27666346324118
O            2.28969353204652       -6.16165055666194        6.55381473410414
O            3.32395731321184       -3.81871309931193        7.88746481855980
C            1.03878255736512       -0.15860793018134        5.47271900643041
C            3.50687207981499       -9.84598677579944        9.55341221485757
H           -1.12600514438858       -1.44984538534130        6.43950619168058
H            2.87659083242955       -1.69551683200421        6.30888392651299
H           -4.22822169634841       -4.51524021436350        8.25690328937896
H           -2.46469795095790       -6.27957836372109       11.58283439538782
H            1.81990654576781       -8.28198305650259       11.21005917277992
H            3.38425537961154       -8.47258494432039        7.39382224449720
O            1.53834060251550       -0.18105734168620        4.37664237998370
O            0.75577466942483        0.95939511049450        6.25436707898875
C            1.74087835629080        1.79513930755299        6.43161952993208
C           -4.68610188466047       -5.74774066895855       10.23882492470812
O           -4.94842154342487       -6.65017029926923       10.95471408935955
O           -5.65039533093375       -4.91459495812761        9.29247868413299
C           -6.23744091350204       -3.78721320665353        9.84893840620084
O            3.94868438784884      -10.16590647647251       10.61804734694458
O            3.31552926327108      -10.73425816523167        8.41566436523967
C            3.59748063061377      -12.06817610050767        8.76312002971789
C            3.15266544503457       -6.59869270360416        5.60589780056916
C            4.47356101176753       -2.90042508611940        7.93832996858755
H            4.75098567293599      -12.27131940720473        8.63160578077660
H            3.04568734295178      -12.84861244224825        8.28237537842099
H            3.38441236485850      -12.07538959919255        9.87588671008480
H           -5.71520449834851       -3.30813440655651       10.76391125085469
H           -7.16512061226952       -4.31016328993145       10.25159422722366
H           -6.46236820331545       -3.21110561215551        9.02403723016955
H            4.40066368772570       -1.83635825155291        8.25205214565008
H            4.97144059090474       -2.78913522520732        7.03751954912830
H            4.91572662873611       -3.44272194197776        8.68042264008801
H            2.73598220281595       -7.69541307852814        5.38643940511086
H            4.13564768985665       -6.69807492882184        6.03954215210579
H            3.16372641735897       -5.75657810922694        4.80200552034360
H            1.42826939914582        2.62054424776309        7.12962515314409
H            1.94828031023170        2.30141214132511        5.44019541416293
H            2.76331997051780        1.37788608264398        6.78598142214038
116
 energy: -22.536688563413 gnorm: 0.561220380521 xtb: 6.6.1 (8d0f1dd)
C           -4.91013958868976        8.35900082575404       -1.96756313005265
C           -4.14808439320547        7.30184975737059       -2.09379563747571
C           -3.91593349515304        6.40941180430044       -0.92722115256351
C           -4.17414210026273        7.05987396992375        0.29254317802219
C           -5.18701726658777        8.00489926293225        0.32030978693959
C           -5.55770403612751        8.68920102226583       -0.84004072877338
C           -3.24456517405582        5.20323952336582       -0.96455198955519
C           -2.46511309937617        4.90781764197726        0.19529768760987
C           -2.69520433745210        5.56348841546433        1.49851863608726
N           -3.77719044917991        6.37427436479024        1.45443076654983
C           -2.82769365143679        4.43691600763631       -2.16517112893051
C           -1.54098675292073        3.71480327146291       -2.23623530043205
N           -0.89012745386278        3.54080973332954       -1.02009580151132
C           -1.36280494107569        4.00774763020501        0.07489023457112
C           -0.46673755211812        3.88443490920186        1.14077895621012
C           -0.57247019890624        4.78763459750241        2.18311651520092
C           -1.70171608473241        5.56643002701836        2.53099009166573
C           -3.93394481448390        4.18951547269540       -3.10275979946740
C           -3.50617985865652        3.41933170779827       -4.19752345615708
C           -2.25758838195381        2.75699837279952       -4.33801361583596
C           -1.23905902268111        2.63777343618814       -3.28860540920555
O           -5.13108679873218        4.87372423574425       -2.78385111920351
O           -3.60014988456399        6.68504649415404       -3.29804739332063
C           -6.79805363358620        9.43993137326167       -0.80441045168359
C           -2.09772063345322        1.77171954580956       -5.36219189464610
H           -5.48570096920289        8.40200331510673        1.29791242258790
H           -5.08391981655093        8.85049376799646       -2.82362366461338
H           -1.91226587691950        6.13277571713169        3.36341799723103
H            0.43726436852977        3.36922793681018        0.94356394498449
H           -0.67027368696040        1.82766211678005       -3.04854510422049
H           -3.95365392105734        3.14223633229279       -5.15216995877305
O           -7.84416841917613        8.82441677342146       -1.01411862603272