Optimization of monomers started
Stacking dimer
Calculating transfer integral
Reorganization energy (electron): 0.38201425984950055 eV
Reorganization energy (hole): 0.2096925832319118 eV
Electron Transfer integral J: 0.014 eV
Hole Transfer integral J: 0.006 eV
=                   |     
     |                         S. Grimme                         |     
     |          Mulliken Center for Theoretical Chemistry        |     
     |                    University of Bonn                     |     
      -----------------------------------------------------------      

   * xtb version 6.7.1 (edcfbbe) compiled by 'runner@Mac-1732539442253.local' on 2024-11-25

   xtb is free software: you can redistribute it and/or modify it under
   the terms of the GNU Lesser General Public License as published by
   the Free Software Foundation, either version 3 of the License, or
   (at your option) any later version.
   
   xtb is distributed in the hope that it will be useful,
   but WITHOUT ANY WARRANTY; without even the implied warranty of
   MERCHANTABILITY or FITNESS FOR A PARTICULAR PURPOSE.  See the
   GNU Lesser General Public License for more details.
   
   Cite this work as:
   * C. Bannwarth, E. Caldeweyher, S. Ehlert, A. Hansen, P. Pracht,
     J. Seibert, S. Spicher, S. Grimme, WIREs Comput. Mol. Sci., 2020, 11,
     e01493. DOI: 10.1002/wcms.1493
   
   for GFN2-xTB:
   * C. Bannwarth, S. Ehlert and S. Grimme., J. Chem. Theory Comput., 2019,
     15, 1652-1671. DOI: 10.1021/acs.jctc.8b01176
   for GFN1-xTB:
   * S. Grimme, C. Bannwarth, P. Shushkov, J. Chem. Theory Comput., 2017,
     13, 1989-2009. DOI: 10.1021/acs.jctc.7b00118
   for GFN0-xTB:
   * P. Pracht, E. Caldeweyher, S. Ehlert, S. Grimme, ChemRxiv, 2019, preprint.
     DOI: 10.26434/chemrxiv.8326202.v1
   for GFN-FF:
   * S. Spicher and S. Grimme, Angew. Chem. Int. Ed., 2020, 59, 15665-15673.
     DOI: 10.1002/anie.202004239
   
   for ALPB and GBSA implicit solvation:
   * S. Ehlert, M. Stahn, S. Spicher, S. Grimme, J. Chem. Theory Comput.,
     2021, 17, 4250-4261. DOI: 10.1021/acs.jctc.1c00471
   
   for ddCOSMO and CPCM-X implicit solvation:
   * M. Stahn, S. Ehlert, S. Grimme, J. Phys. Chem. A,
     2023, XX, XXXX-XXXX. DOI: 10.1021/acs.jpca.3c04382
   
   for DFT-D4:
   * E. Caldeweyher, C. Bannwarth and S. Grimme, J. Chem. Phys., 2017,
     147, 034112. DOI: 10.1063/1.4993215
   * E. Caldeweyher, S. Ehlert, A. Hansen, H. Neugebauer, S. Spicher,
     C. Bannwarth and S. Grimme, J. Chem. Phys., 2019, 150, 154122.
     DOI: 10.1063/1.5090222
   * E. Caldeweyher, J.-M. Mewes, S. Ehlert and S. Grimme, Phys. Chem. Chem. Phys.
     2020, 22, 8499-8512. DOI: 10.1039/D0CP00502A
   
   for sTDA-xTB:
   * S. Grimme and C. Bannwarth, J. Chem. Phys., 2016, 145, 054103.
     DOI: 10.1063/1.4959605
   
   in the mass-spec context:
   * V. Asgeirsson, C. Bauer and S. Grimme, Chem. Sci., 2017, 8, 4879.
     DOI: 10.1039/c7sc00601b
   * J. Koopman and S. Grimme, ACS Omega 2019, 4, 12, 15120-15133.
     DOI: 10.1021/acsomega.9b02011
   
   for metadynamics refer to:
   * S. Grimme, J. Chem. Theory Comput., 2019, 155, 2847-2862
     DOI: 10.1021/acs.jctc.9b00143
   
   for SPH calculations refer to:
   * S. Spicher and S. Grimme, J. Chem. Theory Comput., 2021, 17, 1701-1714
     DOI: 10.1021/acs.jctc.0c01306
   
   for ONIOM refer to:
   * C. Plett, A. Katbashev, S. Ehlert, S. Grimme, M. Bursch,
     Phys. Chem. Chem. Phys., 2023, 25, 17860-17868. DOI: 10.1039/D3CP02178E
   
   for DIPRO refer to:
   * J. Kohn, N. Gildemeister, S. Grimme, D. Fazzi, A. Hansen,
     J. Chem. Phys., 2023, just accepted.
   
   for PTB refer to:
   * S. Grimme, M. Mueller, A. Hansen, J. Chem. Phys., 2023, 158, 124111.
     DOI: 10.1063/5.0137838
   
   with help from (in alphabetical order)
   P. Atkinson, C. Bannwarth, F. Bohle, G. Brandenburg, E. Caldeweyher
   M. Checinski, S. Dohm, S. Ehlert, S. Ehrlich, I. Gerasimov, C. Hölzer
   A. Katbashev, J. Kohn, J. Koopman, C. Lavigne, S. Lehtola, F. März, M. Müller,
   F. Musil, H. Neugebauer, J. Pisarek, C. Plett, P. Pracht, F. Pultar,
   J. Seibert, P. Shushkov, S. Spicher, M. Stahn, M. Steiner, T. Strunk,
   J. Stückrath, T. Rose, and J. Unsleber
   
 * started run on 2024/12/02 at 12:40:42.363     
   ID    Z sym.   atoms
    1    6 C      1-11, 13, 14, 16-23, 26-28, 31, 34, 37, 44-49
    2    7 N      12, 15
    3    8 O      24, 25, 29, 30, 32, 33, 35, 36
    4    1 H      38-43, 50-78

           -------------------------------------------------
          |                Calculation Setup                |
           -------------------------------------------------

          program call               : xtb Base4CO2Me.mol --opt --gfn 2 --chrg 0 --uhf 1 --vtight
          coordinate file            : Base4CO2Me.mol
          omp threads                :                     8

########################################################################
[WARNING] Please study the warnings concerning your input carefully
-1- prog_main_parseArguments: Unknown option '--vtight' provided
########################################################################

           -------------------------------------------------
          |                 G F N 2 - x T B                 |
           -------------------------------------------------

        Reference                      10.1021/acs.jctc.8b01176
      * Hamiltonian:
        H0-scaling (s, p, d)           1.850000    2.230000    2.230000
        zeta-weighting                 0.500000
      * Dispersion:
        s8                             2.700000
        a1                             0.520000
        a2                             5.000000
        s9                             5.000000
      * Repulsion:
        kExp                           1.500000    1.000000
        rExp                           1.000000
      * Coulomb:
        alpha                          2.000000
        third order                    shell-resolved
        anisotropic                    true
        a3                             3.000000
        a5                             4.000000
        cn-shift                       1.200000
        cn-exp                         4.000000
        max-rad                        5.000000


          ...................................................
          :                      SETUP                      :
          :.................................................:
          :  # basis functions                 207          :
          :  # atomic orbitals                 207          :
          :  # shells                          121          :
          :  # electrons                       225          :
          :  max. iterations                   250          :
          :  Hamiltonian                  GFN2-xTB          :
          :  restarted?                      false          :
          :  GBSA solvation                  false          :
          :  PC potential                    false          :
          :  electronic temp.          300.0000000     K    :
          :  accuracy                    1.0000000          :
          :  -> integral cutoff          0.2500000E+02      :
          :  -> integral neglect         0.1000000E-07      :
          :  -> SCF convergence          0.1000000E-05 Eh   :
          :  -> wf. convergence          0.1000000E-03 e    :
          :  Broyden damping             0.4000000          :
          :  net charge                          0          :
          :  unpaired electrons                  1          :
          ...................................................

 iter      E             dE          RMSdq      gap      omega  full diag
   1   -126.4474520 -0.126447E+03  0.507E+00    0.50       0.0  T
   2   -126.6888264 -0.241374E+00  0.321E+00    0.59       1.0  T
   3   -126.6876074  0.121901E-02  0.217E+00    0.85       1.0  T
   4   -126.5780429  0.109565E+00  0.143E+00    0.56       1.0  T
   5   -126.8341514 -0.256108E+00  0.577E-01    1.04       1.0  T
   6   -126.8727123 -0.385609E-01  0.254E-01    0.74       1.0  T
   7   -126.8773216 -0.460931E-02  0.136E-01    0.69       1.0  T
   8   -126.8787983 -0.147676E-02  0.684E-02    0.62       1.0  T
   9   -126.8789895 -0.191186E-03  0.387E-02    0.60       1.0  T
  10   -126.8790385 -0.489480E-04  0.199E-02    0.60       1.0  T
  11   -126.8790705 -0.320011E-04  0.724E-03    0.60       1.6  T
  12   -126.8790727 -0.226422E-05  0.405E-03    0.60       2.8  T
  13   -126.8790735 -0.778455E-06  0.216E-03    0.60       5.2  T
  14   -126.8790736 -0.128429E-06  0.104E-03    0.60      10.9  T
  15   -126.8790737 -0.737344E-07  0.413E-04    0.60      27.4  T
  16   -126.8790737 -0.881666E-08  0.191E-04    0.60      59.4  T

   *** convergence criteria satisfied after 16 iterations ***

         #    Occupation            Energy/Eh            Energy/eV
      -------------------------------------------------------------
         1        2.0000           -0.8314406             -22.6246
       ...           ...                  ...                  ...
       107        2.0000           -0.3959548             -10.7745
       108        2.0000           -0.3930716             -10.6960
       109        2.0000           -0.3923829             -10.6773
       110        2.0000           -0.3922185             -10.6728
       111        2.0000           -0.3787957             -10.3076
       112        2.0000           -0.3755925             -10.2204
       113        1.0000           -0.3410201              -9.2796 (HOMO)
       114        0.0000           -0.3188349              -8.6759 (LUMO)
       115                         -0.3044028              -8.2832
       116                         -0.2904410              -7.9033
       117                         -0.2847198              -7.7476
       118                         -0.2774278              -7.5492
       ...                                ...                  ...
       207                          1.3483177              36.6896
      -------------------------------------------------------------
                  HL-Gap            0.0221853 Eh            0.6037 eV
             Fermi-level           -0.3441089 Eh           -9.3637 eV

 SCC (total)                   0 d,  0 h,  0 min,  0.415 sec
 SCC setup                      ...        0 min,  0.001 sec (  0.229%)
 Dispersion                     ...        0 min,  0.001 sec (  0.158%)
 classical contributions        ...        0 min,  0.000 sec (  0.062%)
 integral evaluation            ...        0 min,  0.004 sec (  0.855%)
 iterations                     ...        0 min,  0.389 sec ( 93.899%)
 molecular gradient             ...        0 min,  0.016 sec (  3.786%)
 printout                       ...        0 min,  0.004 sec (  1.008%)

         :::::::::::::::::::::::::::::::::::::::::::::::::::::
         ::                     SUMMARY                     ::
         :::::::::::::::::::::::::::::::::::::::::::::::::::::
         :: total energy            -125.569662612708 Eh    ::
         :: gradient norm              1.388778473013 Eh/a0 ::
         :: HOMO-LUMO gap              0.603691595129 eV    ::
         ::.................................................::
         :: SCC energy              -126.878206271407 Eh    ::
         :: -> isotropic ES            0.212238235594 Eh    ::
         :: -> anisotropic ES          0.010794989775 Eh    ::
         :: -> anisotropic XC          0.040943080981 Eh    ::
         :: -> dispersion             -0.087300676423 Eh    ::
         :: repulsion energy           1.308543658698 Eh    ::
         :: add. restraining           0.000000000000 Eh    ::
         :: total charge               0.000000000427 e     ::
         :::::::::::::::::::::::::::::::::::::::::::::::::::::

      ----------------------------------------------------------- 
     |                   =====================                   |
     |                        A N C O P T                        |
     |                   =====================                   |
     |               Approximate Normal Coordinate               |
     |                Rational Function Optimizer                |
      ----------------------------------------------------------- 
      ----------------------------------------------------------- 
     |                   =====================                   |
     |                        A N C O P T                        |
     |                   =====================                   |
     |               Approximate Normal Coordinate               |
     |                Rational Function Optimizer                |
      ----------------------------------------------------------- 

          ...................................................
          :                      SETUP                      :
          :.................................................:
          :   optimization level            normal          :
          :   max. optcycles                   234          :
          :   ANC micro-cycles                  20          :
          :   degrees of freedom               228          :
          :.................................................:
          :   RF solver                   davidson          :
          :   write xtbopt.log                true          :
          :   linear?                        false          :
          :   energy convergence         0.5000000E-05 Eh   :
          :   grad. convergence          0.1000000E-02 Eh/α :
          :   maxmium RF displ.          1.0000000          :
          :   Hlow (freq-cutoff)         0.1000000E-01      :
          :   Hmax (freq-cutoff)         5.0000000          :
          :   S6 in model hess.         20.0000000          :
          ...................................................

generating ANC from exact Hessian ...
Using Lindh-Hessian (1995)
 Shifting diagonal of input Hessian by    1.1005204621065722E-002
 Lowest  eigenvalues of input Hessian
    0.010000    0.010951    0.010959    0.010965    0.000000    0.000000
    0.000000    0.000000    0.000000    0.000000    0.011050    0.011127
    0.011211    0.011307    0.011372    0.011456    0.011636    0.011704
 Highest eigenvalues
    1.999819    2.118906    2.459547    2.500091    3.070725    3.074328


........................................................................
.............................. CYCLE    1 ..............................
........................................................................

 iter      E             dE          RMSdq      gap      omega  full diag
   1   -126.8790737 -0.126879E+03  0.102E-04    0.60       0.0  T
   2   -126.8790737  0.179426E-09  0.979E-05    0.60     115.6  T
   3   -126.8790737 -0.649834E-09  0.432E-05    0.60     262.1  T
     SCC iter.                  ...        0 min,  0.057 sec
     gradient                   ...        0 min,  0.016 sec
 * total energy  :  -125.5696626 Eh     change       -0.1880167E-08 Eh
   gradient norm :     1.3887779 Eh/α   predicted     0.0000000E+00 (-100.00%)
   displ. norm   :     0.6021857 α      lambda       -0.7097914E+00
   maximum displ.:     0.2152201 α      in ANC's #228, #227, #226, ...

........................................................................
.............................. CYCLE    2 ..............................
........................................................................

 iter      E             dE          RMSdq      gap      omega  full diag
   1   -127.1152147 -0.127115E+03  0.769E-01    0.82       0.0  T
   2   -127.1377084 -0.224937E-01  0.629E-01    0.60       1.0  T
   3   -127.1577260 -0.200176E-01  0.251E-01    0.76       1.0  T
   4   -127.1531870  0.453903E-02  0.247E-01    0.61       1.0  T
   5   -127.1577852 -0.459828E-02  0.119E-01    0.75       1.0  T
   6   -127.1583586 -0.573372E-03  0.711E-02    0.70       1.0  T
   7   -127.1589924 -0.633786E-03  0.132E-02    0.71       1.0  T
   8   -127.1590012 -0.879695E-05  0.745E-03    0.71       1.5  T
   9   -127.1590035 -0.229949E-05  0.495E-03    0.71       2.3  T
  10   -127.1590046 -0.106295E-05  0.210E-03    0.71       5.4  T
  11   -127.1590048 -0.209586E-06  0.109E-03    0.71      10.4  T
  12   -127.1590048 -0.726622E-07  0.468E-04    0.71      24.2  T
  13   -127.1590048 -0.628212E-08  0.255E-04    0.71      44.4  T
     SCC iter.                  ...        0 min,  0.304 sec
     gradient                   ...        0 min,  0.018 sec
 * total energy  :  -126.0700523 Eh     change       -0.5003897E+00 Eh
   gradient norm :     0.5922963 Eh/α   predicted    -0.4836458E+00 (  -3.35%)
   displ. norm   :     0.7248759 α      lambda       -0.3517547E+00
   maximum displ.:     0.2258424 α      in ANC's #98, #97, #101, ...

........................................................................
.............................. CYCLE    3 ..............................
........................................................................

 iter      E             dE          RMSdq      gap      omega  full diag
   1   -127.4590686 -0.127459E+03  0.466E-01    1.04       0.0  T
   2   -127.4697219 -0.106533E-01  0.309E-01    0.85       1.0  T
   3   -127.4711535 -0.143152E-02  0.195E-01    0.94       1.0  T
   4   -127.4703880  0.765483E-03  0.157E-01    0.86       1.0  T
   5   -127.4715992 -0.121127E-02  0.718E-02    0.92       1.0  T
   6   -127.4721743 -0.575019E-03  0.252E-02    0.90       1.0  T
   7   -127.4722319 -0.576759E-04  0.889E-03    0.90       1.3  T
   8   -127.4722351 -0.318057E-05  0.439E-03    0.90       2.6  T
   9   -127.4722351  0.392182E-07  0.284E-03    0.90       4.0  T
  10   -127.4722356 -0.488187E-06  0.103E-03    0.90      11.0  T
  11   -127.4722356 -0.499217E-07  0.559E-04    0.90      20.2  T
  12   -127.4722356 -0.228503E-07  0.254E-04    0.90      44.5  T
     SCC iter.                  ...        0 min,  0.236 sec
     gradient                   ...        0 min,  0.015 sec
 * total energy  :  -126.3487164 Eh     change       -0.2786641E+00 Eh
   gradient norm :     0.3002603 Eh/α   predicted    -0.2682914E+00 (  -3.72%)
   displ. norm   :     0.8031692 α      lambda       -0.2054193E+00
   maximum displ.:     0.2908348 α      in ANC's #98, #97, #101, ...

........................................................................
.............................. CYCLE    4 ..............................
........................................................................

 iter      E             dE          RMSdq      gap      omega  full diag
   1   -127.7185630 -0.127719E+03  0.348E-01    1.01       0.0  T
   2   -127.7203750 -0.181201E-02  0.224E-01    1.00       1.0  T
   3   -127.7207369 -0.361922E-03  0.150E-01    0.98       1.0  T
   4   -127.7212345 -0.497633E-03  0.598E-02    1.00       1.0  T
   5   -127.7213744 -0.139880E-03  0.251E-02    0.99       1.0  T
   6   -127.7214232 -0.488079E-04  0.123E-02    1.00       1.0  T
   7   -127.7214379 -0.146753E-04  0.552E-03    0.99       2.1  T
   8   -127.7214390 -0.114691E-05  0.288E-03    0.99       3.9  T
   9   -127.7214392 -0.171733E-06  0.152E-03    0.99       7.4  T
  10   -127.7214394 -0.162126E-06  0.519E-04    0.99      21.8  T
  11   -127.7214394 -0.109157E-07  0.307E-04    0.99      36.9  T
     SCC iter.                  ...        0 min,  0.242 sec
     gradient                   ...        0 min,  0.014 sec
 * total energy  :  -126.5188897 Eh     change       -0.1701733E+00 Eh
   gradient norm :     0.1924352 Eh/α   predicted    -0.1689662E+00 (  -0.71%)
   displ. norm   :     0.8424037 α      lambda       -0.1450375E+00
   maximum displ.:     0.2728744 α      in ANC's #98, #97, #101, ...

........................................................................
.............................. CYCLE    5 ..............................
........................................................................

 iter      E             dE          RMSdq      gap      omega  full diag
   1   -127.9011695 -0.127901E+03  0.299E-01    0.85       0.0  T
   2   -127.9020830 -0.913456E-03  0.213E-01    1.02       1.0  T
   3   -127.9025900 -0.506990E-03  0.145E-01    0.93       1.0  T
   4   -127.9032001 -0.610145E-03  0.672E-02    0.98       1.0  T
   5   -127.9036016 -0.401433E-03  0.252E-02    0.96       1.0  T
   6   -127.9036767 -0.751472E-04  0.735E-03    0.97       1.5  T
   7   -127.9036787 -0.198642E-05  0.387E-03    0.97       2.9  T
   8   -127.9036789 -0.229731E-06  0.179E-03    0.97       6.3  T
   9   -127.9036789 -0.119332E-07  0.949E-04    0.97      11.9  T
  10   -127.9036790 -0.571167E-07  0.398E-04    0.97      28.4  T
     SCC iter.                  ...        0 min,  0.186 sec
     gradient                   ...        0 min,  0.014 sec
 * total energy  :  -126.6408219 Eh     change       -0.1219323E+00 Eh
   gradient norm :     0.1271714 Eh/α   predicted    -0.1239813E+00 (   1.68%)
   displ. norm   :     0.8696711 α      lambda       -0.1035133E+00
   maximum displ.:     0.2958753 α      in ANC's #46, #48, #42, ...

........................................................................
.............................. CYCLE    6 ..............................
........................................................................

 iter      E             dE          RMSdq      gap      omega  full diag
   1   -128.0747844 -0.128075E+03  0.259E-01    0.91       0.0  T
   2   -128.0751939 -0.409586E-03  0.181E-01    1.01       1.0  T
   3   -128.0753620 -0.168064E-03  0.116E-01    0.94       1.0  T
   4   -128.0758140 -0.452029E-03  0.515E-02    0.99       1.0  T
   5   -128.0761015 -0.287465E-03  0.145E-02    0.97       1.0  T
   6   -128.0761251 -0.235886E-04  0.530E-03    0.97       2.1  T
   7   -128.0761265 -0.137572E-05  0.242E-03    0.97       4.7  T
   8   -128.0761265 -0.311557E-07  0.137E-03    0.97       8.3  T
   9   -128.0761266 -0.717216E-07  0.567E-04    0.97      20.0  T
  10   -128.0761266 -0.179407E-07  0.256E-04    0.97      44.2  T
     SCC iter.                  ...        0 min,  0.218 sec
     gradient                   ...        0 min,  0.016 sec
 * total energy  :  -126.7306732 Eh     change       -0.8985129E-01 Eh
   gradient norm :     0.1010717 Eh/α   predicted    -0.9090167E-01 (   1.17%)
   displ. norm   :     0.8652881 α      lambda       -0.7850118E-01
   maximum displ.:     0.3212345 α      in ANC's #46, #42, #48, ...

........................................................................
.............................. CYCLE    7 ..............................
........................................................................

 iter      E             dE          RMSdq      gap      omega  full diag
   1   -128.2075203 -0.128208E+03  0.229E-01    0.86       0.0  T
   2   -128.2082701 -0.749760E-03  0.177E-01    0.98       1.0  T
   3   -128.2089664 -0.696285E-03  0.104E-01    0.92       1.0  T
   4   -128.2091409 -0.174558E-03  0.535E-02    0.95       1.0  T
   5   -128.2093872 -0.246245E-03  0.160E-02    0.94       1.0  T
   6   -128.2094191 -0.319758E-04  0.345E-03    0.94       3.3  T
   7   -128.2094194 -0.242225E-06  0.195E-03    0.94       5.8  T
   8   -128.2094195 -0.961208E-07  0.912E-04    0.94      12.4  T
   9   -128.2094195 -0.242924E-07  0.383E-04    0.94      29.5  T
     SCC iter.                  ...        0 min,  0.194 sec
     gradient                   ...        0 min,  0.014 sec
 * total energy  :  -126.7989373 Eh     change       -0.6826407E-01 Eh
   gradient norm :     0.0798531 Eh/α   predicted    -0.6863850E-01 (   0.55%)
   displ. norm   :     0.8665111 α      lambda       -0.6024858E-01
   maximum displ.:     0.3030910 α      in ANC's #46, #48, #42, ...

........................................................................
.............................. CYCLE    8 ..............................
........................................................................

 iter      E             dE          RMSdq      gap      omega  full diag
   1   -128.3198460 -0.128320E+03  0.247E-01    0.86       0.0  T
   2   -128.3203359 -0.489910E-03  0.172E-01    0.95       1.0  T
   3   -128.3201816  0.154267E-03  0.108E-01    0.89       1.0  T
   4   -128.3208104 -0.628787E-03  0.400E-02    0.93       1.0  T
   5   -128.3209850 -0.174581E-03  0.125E-02    0.92       1.0  T
   6   -128.3210049 -0.199437E-04  0.305E-03    0.92       3.7  T
   7   -128.3210051 -0.135923E-06  0.160E-03    0.92       7.1  T
   8   -128.3210051 -0.630671E-07  0.762E-04    0.92      14.9  T
   9   -128.3210051 -0.213102E-07  0.261E-04    0.92      43.4  T
     SCC iter.                  ...        0 min,  0.172 sec
     gradient                   ...        0 min,  0.015 sec
 * total energy  :  -126.8498101 Eh     change       -0.5087276E-01 Eh
   gradient norm :     0.0654971 Eh/α   predicted    -0.5274293E-01 (   3.68%)
   displ. norm   :     0.8532014 α      lambda       -0.4533360E-01
   maximum displ.:     0.3111788 α      in ANC's #46, #42, #24, ...

........................................................................
.............................. CYCLE    9 ..............................
........................................................................

 iter      E             dE          RMSdq      gap      omega  full diag
   1   -128.4148743 -0.128415E+03  0.246E-01    0.88       0.0  T
   2   -128.4152422 -0.367964E-03  0.164E-01    0.93       1.0  T
   3   -128.4147386  0.503607E-03  0.102E-01    0.89       1.0  T
   4   -128.4154894 -0.750756E-03  0.325E-02    0.92       1.0  T
   5   -128.4156157 -0.126299E-03  0.103E-02    0.91       1.1  T
   6   -128.4156281 -0.123904E-04  0.301E-03    0.92       3.8  T
   7   -128.4156281 -0.609122E-07  0.147E-03    0.92       7.7  T
   8   -128.4156282 -0.819907E-07  0.634E-04    0.92      17.9  T
   9   -128.4156282 -0.182403E-07  0.231E-04    0.92      49.1  T
     SCC iter.                  ...        0 min,  0.251 sec
     gradient                   ...        0 min,  0.016 sec
 * total energy  :  -126.8848120 Eh     change       -0.3500194E-01 Eh
   gradient norm :     0.0538244 Eh/α   predicted    -0.3916717E-01 (  11.90%)
   displ. norm   :     0.8122134 α      lambda       -0.3285538E-01
   maximum displ.:     0.2709857 α      in ANC's #42, #24, #25, ...

........................................................................
.............................. CYCLE   10 ..............................
........................................................................

 iter      E             dE          RMSdq      gap      omega  full diag
   1   -128.4846111 -0.128485E+03  0.254E-01    0.90       0.0  T
   2   -128.4848650 -0.253917E-03  0.160E-01    0.94       1.0  T
   3   -128.4841707  0.694289E-03  0.951E-02    0.90       1.0  T
   4   -128.4849795 -0.808759E-03  0.250E-02    0.93       1.0  T
   5   -128.4850608 -0.813486E-04  0.776E-03    0.92       1.5  T
   6   -128.4850674 -0.662373E-05  0.264E-03    0.93       4.3  T
   7   -128.4850675 -0.256078E-07  0.113E-03    0.93      10.0  T
   8   -128.4850675 -0.593640E-07  0.446E-04    0.93      25.4  T
   9   -128.4850675 -0.142198E-07  0.180E-04    0.93      63.0  T
     SCC iter.                  ...        0 min,  0.175 sec
     gradient                   ...        0 min,  0.017 sec
 * total energy  :  -126.9090529 Eh     change       -0.2424091E-01 Eh
   gradient norm :     0.0496198 Eh/α   predicted    -0.2726489E-01 (  12.47%)
   displ. norm   :     0.7596440 α      lambda       -0.2085246E-01
   maximum displ.:     0.3397076 α      in ANC's #24, #25, #42, ...

........................................................................
.............................. CYCLE   11 ..............................
........................................................................

 iter      E             dE          RMSdq      gap      omega  full diag
   1   -128.5359190 -0.128536E+03  0.201E-01    0.91       0.0  T
   2   -128.5360888 -0.169779E-03  0.123E-01    0.95       1.0  T
   3   -128.5358454  0.243454E-03  0.609E-02    0.91       1.0  T
   4   -128.5361227 -0.277381E-03  0.173E-02    0.94       1.0  T
   5   -128.5361582 -0.354204E-04  0.584E-03    0.93       1.9  T
   6   -128.5361619 -0.373197E-05  0.250E-03    0.94       4.5  T
   7   -128.5361621 -0.182792E-06  0.128E-03    0.94       8.9  T
   8   -128.5361621 -0.682309E-07  0.458E-04    0.94      24.7  T
   9   -128.5361622 -0.868297E-08  0.205E-04    0.94      55.2  T
     SCC iter.                  ...        0 min,  0.191 sec
     gradient                   ...        0 min,  0.016 sec
 * total energy  :  -126.9248734 Eh     change       -0.1582051E-01 Eh
   gradient norm :     0.0397082 Eh/α   predicted    -0.1644279E-01 (   3.93%)
   displ. norm   :     0.7448299 α      lambda       -0.1471535E-01
   maximum displ.:     0.3714357 α      in ANC's #24, #25, #42, ...

........................................................................
.............................. CYCLE   12 ..............................
........................................................................

 iter      E             dE          RMSdq      gap      omega  full diag
   1   -128.5748567 -0.128575E+03  0.195E-01    0.93       0.0  T
   2   -128.5750069 -0.150176E-03  0.119E-01    0.95       1.0  T
   3   -128.5748745  0.132412E-03  0.501E-02    0.93       1.0  T
   4   -128.5750290 -0.154523E-03  0.138E-02    0.95       1.0  T
   5   -128.5750477 -0.186917E-04  0.507E-03    0.94       2.2  T
   6   -128.5750505 -0.279113E-05  0.228E-03    0.94       5.0  T
   7   -128.5750507 -0.258102E-06  0.978E-04    0.94      11.6  T
   8   -128.5750508 -0.290337E-07  0.373E-04    0.94      30.3  T
     SCC iter.                  ...        0 min,  0.174 sec
     gradient                   ...        0 min,  0.015 sec
 * total energy  :  -126.9352605 Eh     change       -0.1038707E-01 Eh
   gradient norm :     0.0310250 Eh/α   predicted    -0.1143951E-01 (  10.13%)
   displ. norm   :     0.6946022 α      lambda       -0.1027173E-01
   maximum displ.:     0.3450540 α      in ANC's #24, #25, #23, ...

........................................................................
.............................. CYCLE   13 ..............................
........................................................................

 iter      E             dE          RMSdq      gap      omega  full diag
   1   -128.5963554 -0.128596E+03  0.182E-01    0.94       0.0  T
   2   -128.5965059 -0.150504E-03  0.110E-01    0.96       1.0  T
   3   -128.5964007  0.105168E-03  0.445E-02    0.94       1.0  T
   4   -128.5965049 -0.104146E-03  0.157E-02    0.96       1.0  T
   5   -128.5965342 -0.293416E-04  0.476E-03    0.95       2.4  T
   6   -128.5965366 -0.242685E-05  0.199E-03    0.95       5.7  T
   7   -128.5965367 -0.111308E-06  0.876E-04    0.95      12.9  T
   8   -128.5965368 -0.230596E-07  0.403E-04    0.95      28.1  T
     SCC iter.                  ...        0 min,  0.207 sec
     gradient                   ...        0 min,  0.016 sec
 * total energy  :  -126.9415921 Eh     change       -0.6331636E-02 Eh
   gradient norm :     0.0300532 Eh/α   predicted    -0.7613781E-02 (  20.25%)
   displ. norm   :     0.6070345 α      lambda       -0.7024271E-02
   maximum displ.:     0.2885027 α      in ANC's #24, #25, #7, ...

........................................................................
.............................. CYCLE   14 ..............................
........................................................................

 iter      E             dE          RMSdq      gap      omega  full diag
   1   -128.6050755 -0.128605E+03  0.163E-01    0.93       0.0  T
   2   -128.6051680 -0.925235E-04  0.964E-02    0.95       1.0  T
   3   -128.6050980  0.700131E-04  0.344E-02    0.93       1.0  T
   4   -128.6051779 -0.799620E-04  0.996E-03    0.95       1.1  T
   5   -128.6051877 -0.977582E-05  0.323E-03    0.94       3.5  T
   6   -128.6051882 -0.494672E-06  0.185E-03    0.95       6.1  T
   7   -128.6051883 -0.948470E-07  0.947E-04    0.94      12.0  T
   8   -128.6051884 -0.580970E-07  0.385E-04    0.94      29.4  T
     SCC iter.                  ...        0 min,  0.189 sec
     gradient                   ...        0 min,  0.016 sec
 * total energy  :  -126.9458767 Eh     change       -0.4284569E-02 Eh
   gradient norm :     0.0258329 Eh/α   predicted    -0.4806332E-02 (  12.18%)
   displ. norm   :     0.5655877 α      lambda       -0.4667555E-02
   maximum displ.:     0.1949743 α      in ANC's #24, #7, #12, ...

........................................................................
.............................. CYCLE   15 ..............................
........................................................................

 iter      E             dE          RMSdq      gap      omega  full diag
   1   -128.6124517 -0.128612E+03  0.140E-01    0.95       0.0  T
   2   -128.6124804 -0.287804E-04  0.833E-02    0.94       1.0  T
   3   -128.6123835  0.969961E-04  0.311E-02    0.95       1.0  T
   4   -128.6124864 -0.102989E-03  0.791E-03    0.94       1.4  T
   5   -128.6124938 -0.731816E-05  0.308E-03    0.94       3.7  T
   6   -128.6124945 -0.743555E-06  0.136E-03    0.94       8.3  T
   7   -128.6124946 -0.592190E-07  0.646E-04    0.94      17.5  T
   8   -128.6124946 -0.179416E-07  0.218E-04    0.94      52.0  T
     SCC iter.                  ...        0 min,  0.191 sec
     gradient                   ...        0 min,  0.015 sec
 * total energy  :  -126.9488911 Eh     change       -0.3014401E-02 Eh
   gradient norm :     0.0276940 Eh/α   predicted    -0.3080331E-02 (   2.19%)
   displ. norm   :     0.6032407 α      lambda       -0.4667930E-02
   maximum displ.:     0.2192477 α      in ANC's #7, #28, #6, ...

........................................................................
.............................. CYCLE   16 ..............................
........................................................................

 iter      E             dE          RMSdq      gap      omega  full diag
   1   -128.6201714 -0.128620E+03  0.155E-01    0.94       0.0  T
   2   -128.6202525 -0.810756E-04  0.936E-02    0.94       1.0  T
   3   -128.6201513  0.101221E-03  0.347E-02    0.95       1.0  T
   4   -128.6202542 -0.102854E-03  0.114E-02    0.94       1.0  T
   5   -128.6202716 -0.174849E-04  0.319E-03    0.94       3.5  T
   6   -128.6202725 -0.813564E-06  0.156E-03    0.94       7.2  T
   7   -128.6202725 -0.408499E-07  0.756E-04    0.94      15.0  T
   8   -128.6202725 -0.252046E-07  0.345E-04    0.94      32.8  T
     SCC iter.                  ...        0 min,  0.170 sec
     gradient                   ...        0 min,  0.018 sec
 * total energy  :  -126.9520370 Eh     change       -0.3145923E-02 Eh
   gradient norm :     0.0279627 Eh/α   predicted    -0.3183299E-02 (   1.19%)
   displ. norm   :     0.6215998 α      lambda       -0.4030405E-02
   maximum displ.:     0.2257039 α      in ANC's #7, #12, #28, ...

........................................................................
.............................. CYCLE   17 ..............................
........................................................................

 iter      E             dE          RMSdq      gap      omega  full diag
   1   -128.6177114 -0.128618E+03  0.134E-01    0.93       0.0  T
   2   -128.6177574 -0.459989E-04  0.796E-02    0.93       1.0  T
   3   -128.6176927  0.647491E-04  0.292E-02    0.93       1.0  T
   4   -128.6177626 -0.698991E-04  0.839E-03    0.93       1.3  T
   5   -128.6177708 -0.826161E-05  0.264E-03    0.93       4.3  T
   6   -128.6177712 -0.409679E-06  0.150E-03    0.93       7.6  T
   7   -128.6177713 -0.643436E-07  0.661E-04    0.93      17.1  T
   8   -128.6177713 -0.221640E-07  0.278E-04    0.93      40.7  T
     SCC iter.                  ...        0 min,  0.166 sec
     gradient                   ...        0 min,  0.015 sec
 * total energy  :  -126.9549471 Eh     change       -0.2910090E-02 Eh
   gradient norm :     0.0315106 Eh/α   predicted    -0.2793854E-02 (  -3.99%)
   displ. norm   :     0.6608392 α      lambda       -0.4522085E-02
   maximum displ.:     0.2412821 α      in ANC's #7, #12, #11, ...

........................................................................
.............................. CYCLE   18 ..............................
........................................................................

 iter      E             dE          RMSdq      gap      omega  full diag
   1   -128.6191530 -0.128619E+03  0.149E-01    0.94       0.0  T
   2   -128.6191950 -0.420509E-04  0.882E-02    0.93       1.0  T
   3   -128.6190972  0.978727E-04  0.349E-02    0.94       1.0  T
   4   -128.6192056 -0.108471E-03  0.799E-03    0.93       1.4  T
   5   -128.6192123 -0.663064E-05  0.348E-03    0.94       3.3  T
   6   -128.6192134 -0.109109E-05  0.160E-03    0.94       7.1  T
   7   -128.6192134 -0.926629E-07  0.820E-04    0.94      13.8  T
   8   -128.6192135 -0.256376E-07  0.307E-04    0.94      36.9  T
     SCC iter.                  ...        0 min,  0.157 sec
     gradient                   ...        0 min,  0.014 sec
 * total energy  :  -126.9582161 Eh     change       -0.3269031E-02 Eh
   gradient norm :     0.0313391 Eh/α   predicted    -0.3248462E-02 (  -0.63%)
   displ. norm   :     0.6559807 α      lambda       -0.4239436E-02
   maximum displ.:     0.2462522 α      in ANC's #7, #12, #11, ...

........................................................................
.............................. CYCLE   19 ..............................
........................................................................

 iter      E             dE          RMSdq      gap      omega  full diag
   1   -128.6177798 -0.128618E+03  0.159E-01    0.94       0.0  T
   2   -128.6178587 -0.789110E-04  0.933E-02    0.94       1.0  T
   3   -128.6178145  0.441836E-04  0.296E-02    0.94       1.0  T
   4   -128.6178575 -0.429897E-04  0.105E-02    0.94       1.1  T
   5   -128.6178702 -0.126880E-04  0.328E-03    0.94       3.5  T
   6   -128.6178710 -0.793982E-06  0.186E-03    0.94       6.1  T
   7   -128.6178711 -0.150119E-06  0.875E-04    0.94      12.9  T
   8   -128.6178711 -0.363385E-07  0.326E-04    0.94      34.7  T
     SCC iter.                  ...        0 min,  0.172 sec
     gradient                   ...        0 min,  0.016 sec
 * total energy  :  -126.9613156 Eh     change       -0.3099428E-02 Eh
   gradient norm :     0.0281916 Eh/α   predicted    -0.3031853E-02 (  -2.18%)
   displ. norm   :     0.6698323 α      lambda       -0.4164928E-02
   maximum displ.:     0.2336889 α      in ANC's #7, #12, #11, ...

........................................................................
.............................. CYCLE   20 ..............................
........................................................................

 iter      E             dE          RMSdq      gap      omega  full diag
   1   -128.6180829 -0.128618E+03  0.171E-01    0.92       0.0  T
   2   -128.6181761 -0.932136E-04  0.102E-01    0.93       1.0  T
   3   -128.6180997  0.763695E-04  0.361E-02    0.92       1.0  T
   4   -128.6181734 -0.736260E-04  0.127E-02    0.93       1.0  T
   5   -128.6181929 -0.195714E-04  0.389E-03    0.93       2.9  T
   6   -128.6181944 -0.144407E-05  0.183E-03    0.93       6.2  T
   7   -128.6181945 -0.109837E-06  0.946E-04    0.93      12.0  T
   8   -128.6181945 -0.381602E-07  0.307E-04    0.93      36.9  T
     SCC iter.                  ...        0 min,  0.160 sec
     gradient                   ...        0 min,  0.014 sec
 * total energy  :  -126.9643772 Eh     change       -0.3061630E-02 Eh
   gradient norm :     0.0257397 Eh/α   predicted    -0.3016814E-02 (  -1.46%)
   displ. norm   :     0.6569065 α      lambda       -0.3922098E-02
   maximum displ.:     0.2380916 α      in ANC's #12, #7, #11, ...
 * RMSD in coord.:     1.0913130 α      energy gain  -0.1394715E+01 Eh

generating ANC from exact Hessian ...
Using Lindh-Hessian (1995)
 Shifting diagonal of input Hessian by    9.8550483277169039E-003
 Lowest  eigenvalues of input Hessian
    0.000000    0.000000    0.000000    0.000000    0.000000    0.000000
    0.010000    0.010043    0.010065    0.010219    0.010308    0.010485
    0.010708    0.010850    0.011023    0.011160    0.011384    0.011550
 Highest eigenvalues
    2.099178    2.184507    2.195778    2.325680    2.373478    2.393102


........................................................................
.............................. CYCLE   21 ..............................
........................................................................

 iter      E             dE          RMSdq      gap      omega  full diag
   1   -128.6296318 -0.128630E+03  0.171E-01    0.91       0.0  T
   2   -128.6296837 -0.519162E-04  0.102E-01    0.92       1.0  T
   3   -128.6295885  0.951779E-04  0.354E-02    0.91       1.0  T
   4   -128.6296950 -0.106454E-03  0.851E-03    0.92       1.3  T
   5   -128.6297026 -0.763216E-05  0.335E-03    0.92       3.4  T
   6   -128.6297032 -0.579327E-06  0.190E-03    0.92       6.0  T
   7   -128.6297033 -0.127101E-06  0.955E-04    0.92      11.9  T
   8   -128.6297034 -0.441561E-07  0.349E-04    0.92      32.4  T
     SCC iter.                  ...        0 min,  0.160 sec
     gradient                   ...        0 min,  0.015 sec
 * total energy  :  -126.9670526 Eh     change       -0.2675375E-02 Eh
   gradient norm :     0.0296161 Eh/α   predicted     0.0000000E+00 (-100.00%)
   displ. norm   :     0.3327206 α      lambda       -0.3359232E-02
   maximum displ.:     0.1694849 α      in ANC's #10, #13, #19, ...

........................................................................
.............................. CYCLE   22 ..............................
........................................................................

 iter      E             dE          RMSdq      gap      omega  full diag
   1   -128.6335278 -0.128634E+03  0.965E-02    0.92       0.0  T
   2   -128.6335630 -0.351241E-04  0.575E-02    0.92       1.0  T
   3   -128.6335543  0.869482E-05  0.173E-02    0.92       1.0  T
   4   -128.6335656 -0.112870E-04  0.467E-03    0.92       2.4  T
   5   -128.6335671 -0.152181E-05  0.188E-03    0.92       6.0  T
   6   -128.6335672 -0.136659E-06  0.110E-03    0.92      10.3  T
   7   -128.6335672 -0.340423E-07  0.463E-04    0.92      24.4  T
   8   -128.6335673 -0.123794E-07  0.187E-04    0.92      60.5  T
     SCC iter.                  ...        0 min,  0.157 sec
     gradient                   ...        0 min,  0.015 sec
 * total energy  :  -126.9697484 Eh     change       -0.2695811E-02 Eh
   gradient norm :     0.0130531 Eh/α   predicted    -0.1865766E-02 ( -30.79%)
   displ. norm   :     0.6226256 α      lambda       -0.3950198E-02
   maximum displ.:     0.3314203 α      in ANC's #10, #13, #19, ...

........................................................................
.............................. CYCLE   23 ..............................
........................................................................

 iter      E             dE          RMSdq      gap      omega  full diag
   1   -128.6343103 -0.128634E+03  0.162E-01    0.92       0.0  T
   2   -128.6343572 -0.469584E-04  0.968E-02    0.93       1.0  T
   3   -128.6343460  0.112857E-04  0.189E-02    0.92       1.0  T
   4   -128.6343616 -0.156426E-04  0.541E-03    0.92       2.1  T
   5   -128.6343632 -0.162749E-05  0.250E-03    0.92       4.5  T
   6   -128.6343633 -0.725930E-07  0.148E-03    0.92       7.7  T
   7   -128.6343634 -0.110343E-06  0.535E-04    0.92      21.2  T
   8   -128.6343634 -0.205296E-07  0.207E-04    0.92      54.7  T
     SCC iter.                  ...        0 min,  0.197 sec
     gradient                   ...        0 min,  0.015 sec
 * total energy  :  -126.9728809 Eh     change       -0.3132557E-02 Eh
   gradient norm :     0.0185536 Eh/α   predicted    -0.2740772E-02 ( -12.51%)
   displ. norm   :     0.6665855 α      lambda       -0.3120714E-02
   maximum displ.:     0.3507706 α      in ANC's #10, #13, #19, ...

........................................................................
.............................. CYCLE   24 ..............................
........................................................................

 iter      E             dE          RMSdq      gap      omega  full diag
   1   -128.6326448 -0.128633E+03  0.160E-01    0.92       0.0  T
   2   -128.6326740 -0.292090E-04  0.951E-02    0.93       1.0  T
   3   -128.6326589  0.151028E-04  0.157E-02    0.92       1.0  T
   4   -128.6326737 -0.148502E-04  0.692E-03    0.93       1.6  T
   5   -128.6326788 -0.501653E-05  0.264E-03    0.92       4.3  T
   6   -128.6326789 -0.141822E-06  0.156E-03    0.92       7.3  T
   7   -128.6326790 -0.129911E-06  0.524E-04    0.92      21.6  T
   8   -128.6326790 -0.153962E-07  0.235E-04    0.92      48.1  T
     SCC iter.                  ...        0 min,  0.153 sec
     gradient                   ...        0 min,  0.017 sec
 * total energy  :  -126.9754191 Eh     change       -0.2538213E-02 Eh
   gradient norm :     0.0259907 Eh/α   predicted    -0.2253686E-02 ( -11.21%)
   displ. norm   :     0.6380013 α      lambda       -0.3139382E-02
   maximum displ.:     0.3181214 α      in ANC's #10, #13, #11, ...

........................................................................
.............................. CYCLE   25 ..............................
........................................................................

 iter      E             dE          RMSdq      gap      omega  full diag
   1   -128.6344944 -0.128634E+03  0.146E-01    0.92       0.0  T
   2   -128.6345317 -0.372845E-04  0.868E-02    0.93       1.0  T
   3   -128.6345101  0.216194E-04  0.198E-02    0.92       1.0  T
   4   -128.6345337 -0.236654E-04  0.636E-03    0.92       1.8  T
   5   -128.6345375 -0.380856E-05  0.248E-03    0.92       4.6  T
   6   -128.6345378 -0.255397E-06  0.142E-03    0.92       8.0  T
   7   -128.6345379 -0.671346E-07  0.570E-04    0.92      19.9  T
   8   -128.6345379 -0.178589E-07  0.215E-04    0.92      52.8  T
     SCC iter.                  ...        0 min,  0.161 sec
     gradient                   ...        0 min,  0.016 sec
 * total energy  :  -126.9779972 Eh     change       -0.2578028E-02 Eh
   gradient norm :     0.0221072 Eh/α   predicted    -0.2208637E-02 ( -14.33%)
   displ. norm   :     0.6334876 α      lambda       -0.2999195E-02
   maximum displ.:     0.3143942 α      in ANC's #13, #10, #11, ...

........................................................................
.............................. CYCLE   26 ..............................
........................................................................

 iter      E             dE          RMSdq      gap      omega  full diag
   1   -128.6397016 -0.128640E+03  0.148E-01    0.93       0.0  T
   2   -128.6397352 -0.335833E-04  0.879E-02    0.93       1.0  T
   3   -128.6396464  0.888057E-04  0.307E-02    0.94       1.0  T
   4   -128.6397402 -0.938181E-04  0.826E-03    0.93       1.4  T
   5   -128.6397488 -0.864871E-05  0.290E-03    0.93       3.9  T
   6   -128.6397493 -0.445380E-06  0.160E-03    0.93       7.1  T
   7   -128.6397493 -0.572649E-07  0.806E-04    0.93      14.1  T
   8   -128.6397494 -0.412616E-07  0.262E-04    0.93      43.3  T
     SCC iter.                  ...        0 min,  0.147 sec
     gradient                   ...        0 min,  0.014 sec
 * total energy  :  -126.9804983 Eh     change       -0.2501158E-02 Eh
   gradient norm :     0.0163553 Eh/α   predicted    -0.2101397E-02 ( -15.98%)
   displ. norm   :     0.7096839 α      lambda       -0.2821252E-02
   maximum displ.:     0.3637345 α      in ANC's #13, #10, #11, ...

........................................................................
.............................. CYCLE   27 ..............................
........................................................................

 iter      E             dE          RMSdq      gap      omega  full diag
   1   -128.6415453 -0.128642E+03  0.174E-01    0.94       0.0  T
   2   -128.6415942 -0.488910E-04  0.103E-01    0.94       1.0  T
   3   -128.6414746  0.119615E-03  0.355E-02    0.95       1.0  T
   4   -128.6416012 -0.126618E-03  0.950E-03    0.94       1.2  T
   5   -128.6416127 -0.114536E-04  0.310E-03    0.94       3.7  T
   6   -128.6416130 -0.333056E-06  0.186E-03    0.94       6.1  T
   7   -128.6416131 -0.110610E-06  0.779E-04    0.94      14.5  T
   8   -128.6416132 -0.373010E-07  0.304E-04    0.94      37.3  T
     SCC iter.                  ...        0 min,  0.157 sec
     gradient                   ...        0 min,  0.014 sec
 * total energy  :  -126.9829010 Eh     change       -0.2402719E-02 Eh
   gradient norm :     0.0186847 Eh/α   predicted    -0.2121097E-02 ( -11.72%)
   displ. norm   :     0.6770124 α      lambda       -0.3077700E-02
   maximum displ.:     0.3265040 α      in ANC's #13, #12, #11, ...

........................................................................
.............................. CYCLE   28 ..............................
........................................................................

 iter      E             dE          RMSdq      gap      omega  full diag
   1   -128.6543976 -0.128654E+03  0.170E-01    0.96       0.0  T
   2   -128.6544589 -0.613698E-04  0.101E-01    0.95       1.0  T
   3   -128.6542584  0.200553E-03  0.459E-02    0.97       1.0  T
   4   -128.6544845 -0.226164E-03  0.941E-03    0.96       1.2  T
   5   -128.6544937 -0.918078E-05  0.414E-03    0.96       2.7  T
   6   -128.6544949 -0.119047E-05  0.212E-03    0.96       5.3  T
   7   -128.6544950 -0.998732E-07  0.110E-03    0.96      10.3  T
   8   -128.6544951 -0.690809E-07  0.338E-04    0.96      33.5  T
   9   -128.6544951 -0.741935E-08  0.162E-04    0.96      69.8  T
     SCC iter.                  ...        0 min,  0.180 sec
     gradient                   ...        0 min,  0.015 sec
 * total energy  :  -126.9847503 Eh     change       -0.1849296E-02 Eh
   gradient norm :     0.0284432 Eh/α   predicted    -0.2244177E-02 (  21.35%)
   displ. norm   :     0.6997889 α      lambda       -0.3238308E-02
   maximum displ.:     0.3679195 α      in ANC's #13, #10, #19, ...

........................................................................
.............................. CYCLE   29 ..............................
........................................................................

 iter      E             dE          RMSdq      gap      omega  full diag
   1   -128.6449891 -0.128645E+03  0.178E-01    0.97       0.0  T
   2   -128.6450498 -0.606743E-04  0.105E-01    0.97       1.0  T
   3   -128.6449406  0.109198E-03  0.367E-02    0.97       1.0  T
   4   -128.6450627 -0.122100E-03  0.924E-03    0.97       1.2  T
   5   -128.6450714 -0.872159E-05  0.370E-03    0.97       3.1  T
   6   -128.6450718 -0.422429E-06  0.216E-03    0.97       5.2  T
   7   -128.6450720 -0.141860E-06  0.963E-04    0.97      11.8  T
   8   -128.6450720 -0.488928E-07  0.361E-04    0.97      31.3  T
     SCC iter.                  ...        0 min,  0.155 sec
     gradient                   ...        0 min,  0.020 sec
 * total energy  :  -126.9865214 Eh     change       -0.1771069E-02 Eh
   gradient norm :     0.0305310 Eh/α   predicted    -0.2412071E-02 (  36.19%)
   displ. norm   :     0.2764523 α      lambda       -0.1782853E-02
   maximum displ.:     0.1402353 α      in ANC's #13, #12, #11, ...

........................................................................
.............................. CYCLE   30 ..............................
........................................................................

 iter      E             dE          RMSdq      gap      omega  full diag
   1   -128.6489370 -0.128649E+03  0.700E-02    0.96       0.0  T
   2   -128.6490087 -0.716438E-04  0.417E-02    0.97       1.0  T
   3   -128.6490079  0.805878E-06  0.190E-02    0.97       1.0  T
   4   -128.6490068  0.110665E-05  0.725E-03    0.97       1.6  T
   5   -128.6490123 -0.551048E-05  0.159E-03    0.97       7.1  T
   6   -128.6490124 -0.930854E-07  0.974E-04    0.97      11.6  T
   7   -128.6490124 -0.239488E-07  0.479E-04    0.97      23.6  T
     SCC iter.                  ...        0 min,  0.134 sec
     gradient                   ...        0 min,  0.018 sec
 * total energy  :  -126.9878171 Eh     change       -0.1295732E-02 Eh
   gradient norm :     0.0174334 Eh/α   predicted    -0.9595573E-03 ( -25.94%)
   displ. norm   :     0.5560559 α      lambda       -0.2980743E-02
   maximum displ.:     0.2052364 α      in ANC's #12, #13, #11, ...

........................................................................
.............................. CYCLE   31 ..............................
........................................................................

 iter      E             dE          RMSdq      gap      omega  full diag
   1   -128.6590688 -0.128659E+03  0.136E-01    0.98       0.0  T
   2   -128.6591374 -0.685744E-04  0.841E-02    0.97       1.0  T
   3   -128.6590041  0.133277E-03  0.403E-02    0.98       1.0  T
   4   -128.6591601 -0.155962E-03  0.961E-03    0.97       1.2  T
   5   -128.6591689 -0.887700E-05  0.373E-03    0.98       3.0  T
   6   -128.6591699 -0.977101E-06  0.184E-03    0.98       6.2  T
   7   -128.6591701 -0.240562E-06  0.909E-04    0.98      12.5  T
   8   -128.6591702 -0.229620E-07  0.280E-04    0.98      40.4  T
     SCC iter.                  ...        0 min,  0.150 sec
     gradient                   ...        0 min,  0.015 sec
 * total energy  :  -126.9892950 Eh     change       -0.1477814E-02 Eh
   gradient norm :     0.0312599 Eh/α   predicted    -0.1951209E-02 (  32.03%)
   displ. norm   :     0.4976531 α      lambda       -0.2000257E-02
   maximum displ.:     0.2518768 α      in ANC's #13, #12, #11, ...

........................................................................
.............................. CYCLE   32 ..............................
........................................................................

 iter      E             dE          RMSdq      gap      omega  full diag
   1   -128.6551140 -0.128655E+03  0.119E-01    0.98       0.0  T
   2   -128.6552074 -0.934158E-04  0.691E-02    0.98       1.0  T
   3   -128.6551667  0.407628E-04  0.300E-02    0.98       1.0  T
   4   -128.6552027 -0.360176E-04  0.120E-02    0.98       1.0  T
   5   -128.6552216 -0.189020E-04  0.269E-03    0.98       4.2  T
   6   -128.6552221 -0.522732E-06  0.146E-03    0.98       7.8  T
   7   -128.6552222 -0.510676E-07  0.749E-04    0.98      15.1  T
   8   -128.6552222 -0.328635E-07  0.247E-04    0.98      45.8  T
     SCC iter.                  ...        0 min,  0.151 sec
     gradient                   ...        0 min,  0.018 sec
 * total energy  :  -126.9906331 Eh     change       -0.1338182E-02 Eh
   gradient norm :     0.0234511 Eh/α   predicted    -0.1247819E-02 (  -6.75%)
   displ. norm   :     0.4733380 α      lambda       -0.2014030E-02
   maximum displ.:     0.1811966 α      in ANC's #11, #13, #12, ...

........................................................................
.............................. CYCLE   33 ..............................
........................................................................

 iter      E             dE          RMSdq      gap      omega  full diag
   1   -128.6621813 -0.128662E+03  0.927E-02    0.97       0.0  T
   2   -128.6622674 -0.861093E-04  0.547E-02    0.98       1.0  T
   3   -128.6622622  0.517879E-05  0.221E-02    0.98       1.0  T
   4   -128.6622678 -0.563842E-05  0.752E-03    0.98       1.5  T
   5   -128.6622730 -0.512597E-05  0.223E-03    0.98       5.1  T
   6   -128.6622733 -0.345158E-06  0.125E-03    0.98       9.1  T
   7   -128.6622734 -0.530546E-07  0.587E-04    0.98      19.3  T
   8   -128.6622734 -0.210747E-07  0.205E-04    0.98      55.2  T
     SCC iter.                  ...        0 min,  0.151 sec
     gradient                   ...        0 min,  0.015 sec
 * total energy  :  -126.9916484 Eh     change       -0.1015245E-02 Eh
   gradient norm :     0.0224415 Eh/α   predicted    -0.1232646E-02 (  21.41%)
   displ. norm   :     0.5436395 α      lambda       -0.1858770E-02
   maximum displ.:     0.2225815 α      in ANC's #11, #12, #13, ...

........................................................................
.............................. CYCLE   34 ..............................
........................................................................

 iter      E             dE          RMSdq      gap      omega  full diag
   1   -128.6564509 -0.128656E+03  0.108E-01    0.97       0.0  T
   2   -128.6564866 -0.357036E-04  0.637E-02    0.97       1.0  T
   3   -128.6564491  0.374679E-04  0.211E-02    0.97       1.0  T
   4   -128.6564816 -0.325123E-04  0.912E-03    0.98       1.2  T
   5   -128.6564934 -0.117228E-04  0.215E-03    0.97       5.3  T
   6   -128.6564935 -0.106698E-06  0.134E-03    0.97       8.4  T
   7   -128.6564935 -0.547178E-07  0.516E-04    0.97      22.0  T
   8   -128.6564935 -0.171277E-07  0.238E-04    0.97      47.6  T
     SCC iter.                  ...        0 min,  0.147 sec
     gradient                   ...        0 min,  0.016 sec
 * total energy  :  -126.9927282 Eh     change       -0.1079799E-02 Eh
   gradient norm :     0.0225120 Eh/α   predicted    -0.1204061E-02 (  11.51%)
   displ. norm   :     0.5887099 α      lambda       -0.2970313E-02
   maximum displ.:     0.2686924 α      in ANC's #10, #12, #4, ...

........................................................................
.............................. CYCLE   35 ..............................
........................................................................

 iter      E             dE          RMSdq      gap      omega  full diag
   1   -128.6641775 -0.128664E+03  0.165E-01    0.97       0.0  T
   2   -128.6642982 -0.120702E-03  0.989E-02    0.97       1.0  T
   3   -128.6642119  0.862667E-04  0.345E-02    0.97       1.0  T
   4   -128.6642906 -0.787078E-04  0.144E-02    0.97       1.0  T
   5   -128.6643180 -0.274081E-04  0.401E-03    0.97       2.8  T
   6   -128.6643189 -0.895602E-06  0.232E-03    0.97       4.9  T
   7   -128.6643190 -0.880742E-07  0.113E-03    0.97      10.0  T
   8   -128.6643191 -0.779692E-07  0.471E-04    0.97      24.0  T
   9   -128.6643191 -0.102255E-07  0.198E-04    0.97      57.2  T
     SCC iter.                  ...        0 min,  0.169 sec
     gradient                   ...        0 min,  0.015 sec
 * total energy  :  -126.9925569 Eh     change        0.1712566E-03 Eh
   gradient norm :     0.0469156 Eh/α   predicted    -0.1999882E-02 (*******%)
   displ. norm   :     0.2935721 α      lambda       -0.3340551E-02
   maximum displ.:     0.1221847 α      in ANC's #13, #11, #12, ...

........................................................................
.............................. CYCLE   36 ..............................
........................................................................

 iter      E             dE          RMSdq      gap      omega  full diag
   1   -128.6634041 -0.128663E+03  0.785E-02    0.97       0.0  T
   2   -128.6634672 -0.630792E-04  0.488E-02    0.97       1.0  T
   3   -128.6634508  0.163307E-04  0.218E-02    0.97       1.0  T
   4   -128.6634628 -0.119405E-04  0.989E-03    0.97       1.1  T
   5   -128.6634754 -0.126481E-04  0.261E-03    0.97       4.3  T
   6   -128.6634759 -0.491023E-06  0.143E-03    0.97       7.9  T
   7   -128.6634760 -0.488151E-07  0.707E-04    0.97      16.0  T
   8   -128.6634760 -0.253044E-07  0.298E-04    0.97      37.9  T
     SCC iter.                  ...        0 min,  0.149 sec
     gradient                   ...        0 min,  0.033 sec
 * total energy  :  -126.9944703 Eh     change       -0.1913382E-02 Eh
   gradient norm :     0.0181790 Eh/α   predicted    -0.1814230E-02 (  -5.18%)
   displ. norm   :     0.3310491 α      lambda       -0.1133123E-02
   maximum displ.:     0.1394575 α      in ANC's #11, #12, #8, ...

........................................................................
.............................. CYCLE   37 ..............................
........................................................................

 iter      E             dE          RMSdq      gap      omega  full diag
   1   -128.6602699 -0.128660E+03  0.568E-02    0.97       0.0  T
   2   -128.6602921 -0.222204E-04  0.345E-02    0.97       1.0  T
   3   -128.6602788  0.133190E-04  0.160E-02    0.97       1.0  T
   4   -128.6602943 -0.155171E-04  0.490E-03    0.97       2.3  T
   5   -128.6602970 -0.267671E-05  0.150E-03    0.97       7.5  T
   6   -128.6602971 -0.144214E-06  0.817E-04    0.97      13.9  T
   7   -128.6602971 -0.154251E-07  0.420E-04    0.97      27.0  T
     SCC iter.                  ...        0 min,  0.136 sec
     gradient                   ...        0 min,  0.016 sec
 * total energy  :  -126.9952054 Eh     change       -0.7350462E-03 Eh
   gradient norm :     0.0129782 Eh/α   predicted    -0.6286542E-03 ( -14.47%)
   displ. norm   :     0.5625538 α      lambda       -0.1097127E-02
   maximum displ.:     0.2084090 α      in ANC's #12, #11, #10, ...

........................................................................
.............................. CYCLE   38 ..............................
........................................................................

 iter      E             dE          RMSdq      gap      omega  full diag
   1   -128.6578005 -0.128658E+03  0.107E-01    0.97       0.0  T
   2   -128.6578059 -0.540816E-05  0.640E-02    0.97       1.0  T
   3   -128.6577753  0.306287E-04  0.164E-02    0.97       1.0  T
   4   -128.6578095 -0.341537E-04  0.334E-03    0.97       3.4  T
   5   -128.6578100 -0.581624E-06  0.195E-03    0.97       5.8  T
   6   -128.6578101 -0.107461E-06  0.904E-04    0.97      12.5  T
   7   -128.6578102 -0.471850E-07  0.352E-04    0.97      32.2  T
     SCC iter.                  ...        0 min,  0.166 sec
     gradient                   ...        0 min,  0.015 sec
 * total energy  :  -126.9960218 Eh     change       -0.8164925E-03 Eh
   gradient norm :     0.0147181 Eh/α   predicted    -0.7221716E-03 ( -11.55%)
   displ. norm   :     0.5101220 α      lambda       -0.1185555E-02
   maximum displ.:     0.1597377 α      in ANC's #10, #12, #8, ...

........................................................................
.............................. CYCLE   39 ..............................
........................................................................

 iter      E             dE          RMSdq      gap      omega  full diag
   1   -128.6607984 -0.128661E+03  0.114E-01    0.97       0.0  T
   2   -128.6608082 -0.979812E-05  0.676E-02    0.97       1.0  T
   3   -128.6607648  0.434039E-04  0.205E-02    0.97       1.0  T
   4   -128.6608135 -0.487548E-04  0.420E-03    0.97       2.7  T
   5   -128.6608150 -0.142254E-05  0.211E-03    0.97       5.4  T
   6   -128.6608150 -0.739745E-07  0.114E-03    0.97      10.0  T
   7   -128.6608151 -0.451935E-07  0.471E-04    0.97      24.1  T
   8   -128.6608151 -0.195789E-07  0.167E-04    0.97      67.7  T
     SCC iter.                  ...        0 min,  0.216 sec
     gradient                   ...        0 min,  0.015 sec
 * total energy  :  -126.9967539 Eh     change       -0.7320582E-03 Eh
   gradient norm :     0.0151552 Eh/α   predicted    -0.7470352E-03 (   2.05%)
   displ. norm   :     0.6330464 α      lambda       -0.1105021E-02
   maximum displ.:     0.2467883 α      in ANC's #12, #8, #11, ...

........................................................................
.............................. CYCLE   40 ..............................
........................................................................

 iter      E             dE          RMSdq      gap      omega  full diag
   1   -128.6538980 -0.128654E+03  0.131E-01    0.97       0.0  T
   2   -128.6539219 -0.238420E-04  0.786E-02    0.97       1.0  T
   3   -128.6538816  0.402718E-04  0.204E-02    0.97       1.0  T
   4   -128.6539241 -0.425346E-04  0.660E-03    0.97       1.7  T
   5   -128.6539288 -0.464788E-05  0.292E-03    0.97       3.9  T
   6   -128.6539291 -0.340661E-06  0.167E-03    0.97       6.8  T
   7   -128.6539292 -0.571828E-07  0.594E-04    0.97      19.1  T
   8   -128.6539292 -0.281677E-07  0.202E-04    0.97      56.1  T
     SCC iter.                  ...        0 min,  0.154 sec
     gradient                   ...        0 min,  0.017 sec
 * total energy  :  -126.9972686 Eh     change       -0.5146621E-03 Eh
   gradient norm :     0.0175070 Eh/α   predicted    -0.7739281E-03 (  50.38%)
   displ. norm   :     0.2657228 α      lambda       -0.7940150E-03
   maximum displ.:     0.0891053 α      in ANC's #7, #17, #1, ...

........................................................................
.............................. CYCLE   41 ..............................
........................................................................

 iter      E             dE          RMSdq      gap      omega  full diag
   1   -128.6594423 -0.128659E+03  0.590E-02    0.98       0.0  T
   2   -128.6594528 -0.104624E-04  0.352E-02    0.97       1.0  T
   3   -128.6594500  0.280900E-05  0.960E-03    0.97       1.2  T
   4   -128.6594539 -0.386129E-05  0.262E-03    0.97       4.3  T
   5   -128.6594542 -0.364883E-06  0.106E-03    0.97      10.6  T
   6   -128.6594542 -0.199520E-07  0.648E-04    0.97      17.5  T
   7   -128.6594543 -0.116336E-07  0.320E-04    0.97      35.4  T
     SCC iter.                  ...        0 min,  0.188 sec
     gradient                   ...        0 min,  0.016 sec
 * total energy  :  -126.9978169 Eh     change       -0.5483214E-03 Eh
   gradient norm :     0.0099048 Eh/α   predicted    -0.4250423E-03 ( -22.48%)
   displ. norm   :     0.4399945 α      lambda       -0.7813108E-03
   maximum displ.:     0.1558818 α      in ANC's #7, #1, #17, ...

........................................................................
.............................. CYCLE   42 ..............................
........................................................................

 iter      E             dE          RMSdq      gap      omega  full diag
   1   -128.6648429 -0.128665E+03  0.881E-02    0.98       0.0  T
   2   -128.6648588 -0.158354E-04  0.522E-02    0.98       1.0  T
   3   -128.6648502  0.852260E-05  0.140E-02    0.98       1.0  T
   4   -128.6648601 -0.986611E-05  0.417E-03    0.98       2.7  T
   5   -128.6648613 -0.122432E-05  0.186E-03    0.98       6.1  T
   6   -128.6648616 -0.219782E-06  0.104E-03    0.98      10.9  T
   7   -128.6648616 -0.440906E-07  0.409E-04    0.98      27.7  T
   8   -128.6648616 -0.715605E-08  0.128E-04    0.98      88.8  T
     SCC iter.                  ...        0 min,  0.187 sec
     gradient                   ...        0 min,  0.015 sec
 * total energy  :  -126.9983538 Eh     change       -0.5369354E-03 Eh
   gradient norm :     0.0085005 Eh/α   predicted    -0.4662890E-03 ( -13.16%)
   displ. norm   :     0.5848577 α      lambda       -0.7159915E-03
   maximum displ.:     0.2130606 α      in ANC's #1, #7, #5, ...
 * RMSD in coord.:     0.9422804 α      energy gain  -0.3397664E-01 Eh

generating ANC from exact Hessian ...
Using Lindh-Hessian (1995)
 Shifting diagonal of input Hessian by    9.8478530381856857E-003
 Lowest  eigenvalues of input Hessian
    0.000000    0.000000    0.000000    0.000000    0.000000    0.000000
    0.010000    0.010036    0.010064    0.010256    0.010336    0.010497
    0.010610    0.010812    0.011074    0.011332    0.011392    0.011689
 Highest eigenvalues
    2.099322    2.184641    2.197861    2.370326    2.381487    2.393113


........................................................................
.............................. CYCLE   43 ..............................
........................................................................

 iter      E             dE          RMSdq      gap      omega  full diag
   1   -128.6632872 -0.128663E+03  0.109E-01    0.98       0.0  T
   2   -128.6632969 -0.969735E-05  0.645E-02    0.98       1.0  T
   3   -128.6632649  0.319774E-04  0.193E-02    0.98       1.0  T
   4   -128.6632996 -0.347190E-04  0.481E-03    0.98       2.4  T
   5   -128.6633017 -0.210599E-05  0.241E-03    0.98       4.7  T
   6   -128.6633020 -0.303079E-06  0.120E-03    0.98       9.4  T
   7   -128.6633020 -0.304274E-07  0.343E-04    0.98      33.0  T
   8   -128.6633020 -0.389869E-08  0.138E-04    0.98      82.2  T
     SCC iter.                  ...        0 min,  0.211 sec
     gradient                   ...        0 min,  0.015 sec
 * total energy  :  -126.9988869 Eh     change       -0.5331216E-03 Eh
   gradient norm :     0.0119064 Eh/α   predicted     0.0000000E+00 (-100.00%)
   displ. norm   :     0.1186873 α      lambda       -0.3675959E-03
   maximum displ.:     0.0374869 α      in ANC's #3, #11, #22, ...

........................................................................
.............................. CYCLE   44 ..............................
........................................................................

 iter      E             dE          RMSdq      gap      omega  full diag
   1   -128.6646400 -0.128665E+03  0.340E-02    0.98       0.0  T
   2   -128.6646429 -0.290495E-05  0.203E-02    0.98       1.0  T
   3   -128.6646395  0.339104E-05  0.646E-03    0.98       1.8  T
   4   -128.6646433 -0.377102E-05  0.177E-03    0.98       6.4  T
   5   -128.6646436 -0.314863E-06  0.718E-04    0.98      15.8  T
   6   -128.6646436 -0.206209E-07  0.433E-04    0.98      26.1  T
     SCC iter.                  ...        0 min,  0.110 sec
     gradient                   ...        0 min,  0.015 sec
 * total energy  :  -126.9991807 Eh     change       -0.2938070E-03 Eh
   gradient norm :     0.0053929 Eh/α   predicted    -0.1863906E-03 ( -36.56%)
   displ. norm   :     0.3101373 α      lambda       -0.5513625E-03
   maximum displ.:     0.1025621 α      in ANC's #3, #11, #14, ...

........................................................................
.............................. CYCLE   45 ..............................
........................................................................

 iter      E             dE          RMSdq      gap      omega  full diag
   1   -128.6652487 -0.128665E+03  0.765E-02    0.97       0.0  T
   2   -128.6652564 -0.778156E-05  0.456E-02    0.98       1.0  T
   3   -128.6652391  0.173955E-04  0.128E-02    0.97       1.0  T
   4   -128.6652572 -0.181072E-04  0.402E-03    0.98       2.8  T
   5   -128.6652591 -0.191105E-05  0.168E-03    0.98       6.7  T
   6   -128.6652592 -0.119961E-06  0.954E-04    0.98      11.9  T
   7   -128.6652592 -0.171872E-07  0.306E-04    0.98      37.0  T
     SCC iter.                  ...        0 min,  0.132 sec
     gradient                   ...        0 min,  0.015 sec
 * total energy  :  -126.9995701 Eh     change       -0.3893326E-03 Eh
   gradient norm :     0.0069360 Eh/α   predicted    -0.3022064E-03 ( -22.38%)
   displ. norm   :     0.3500979 α      lambda       -0.3792947E-03
   maximum displ.:     0.1191522 α      in ANC's #3, #14, #11, ...

........................................................................
.............................. CYCLE   46 ..............................
........................................................................

 iter      E             dE          RMSdq      gap      omega  full diag
   1   -128.6641228 -0.128664E+03  0.789E-02    0.97       0.0  T
   2   -128.6641268 -0.397414E-05  0.471E-02    0.98       1.0  T
   3   -128.6640963  0.304475E-04  0.156E-02    0.97       1.0  T
   4   -128.6641293 -0.329780E-04  0.338E-03    0.98       3.3  T
   5   -128.6641303 -0.991710E-06  0.166E-03    0.97       6.8  T
   6   -128.6641304 -0.680782E-07  0.799E-04    0.97      14.2  T
   7   -128.6641304 -0.117151E-07  0.244E-04    0.97      46.4  T
     SCC iter.                  ...        0 min,  0.151 sec
     gradient                   ...        0 min,  0.015 sec
 * total energy  :  -126.9998733 Eh     change       -0.3031997E-03 Eh
   gradient norm :     0.0105903 Eh/α   predicted    -0.2128925E-03 ( -29.78%)
   displ. norm   :     0.5014122 α      lambda       -0.5083566E-03
   maximum displ.:     0.1801705 α      in ANC's #14, #3, #11, ...

........................................................................
.............................. CYCLE   47 ..............................
........................................................................

 iter      E             dE          RMSdq      gap      omega  full diag
   1   -128.6619898 -0.128662E+03  0.103E-01    0.97       0.0  T
   2   -128.6619963 -0.648573E-05  0.618E-02    0.97       1.0  T
   3   -128.6619272  0.691106E-04  0.243E-02    0.96       1.0  T
   4   -128.6620028 -0.756155E-04  0.451E-03    0.97       2.5  T
   5   -128.6620044 -0.157585E-05  0.236E-03    0.97       4.8  T
   6   -128.6620045 -0.180176E-06  0.102E-03    0.97      11.1  T
   7   -128.6620046 -0.193891E-07  0.392E-04    0.97      28.9  T
   8   -128.6620046 -0.776657E-08  0.131E-04    0.97      86.1  T
     SCC iter.                  ...        0 min,  0.155 sec
     gradient                   ...        0 min,  0.015 sec
 * total energy  :  -127.0002761 Eh     change       -0.4027891E-03 Eh
   gradient norm :     0.0118850 Eh/α   predicted    -0.3180883E-03 ( -21.03%)
   displ. norm   :     0.5038840 α      lambda       -0.5539363E-03
   maximum displ.:     0.1920473 α      in ANC's #14, #3, #1, ...

........................................................................
.............................. CYCLE   48 ..............................
........................................................................

 iter      E             dE          RMSdq      gap      omega  full diag
   1   -128.6616411 -0.128662E+03  0.952E-02    0.97       0.0  T
   2   -128.6616495 -0.831758E-05  0.568E-02    0.97       1.0  T
   3   -128.6615910  0.584594E-04  0.246E-02    0.97       1.0  T
   4   -128.6616557 -0.647175E-04  0.460E-03    0.97       2.5  T
   5   -128.6616576 -0.187000E-05  0.243E-03    0.97       4.7  T
   6   -128.6616579 -0.343915E-06  0.102E-03    0.97      11.1  T
   7   -128.6616579 -0.751126E-08  0.428E-04    0.97      26.4  T
   8   -128.6616580 -0.104573E-07  0.141E-04    0.97      80.2  T
     SCC iter.                  ...        0 min,  0.153 sec
     gradient                   ...        0 min,  0.018 sec
 * total energy  :  -127.0007129 Eh     change       -0.4368031E-03 Eh
   gradient norm :     0.0106484 Eh/α   predicted    -0.3473027E-03 ( -20.49%)
   displ. norm   :     0.4637423 α      lambda       -0.6119077E-03
   maximum displ.:     0.1763697 α      in ANC's #14, #1, #3, ...

........................................................................
.............................. CYCLE   49 ..............................
........................................................................

 iter      E             dE          RMSdq      gap      omega  full diag
   1   -128.6655465 -0.128666E+03  0.813E-02    0.97       0.0  T
   2   -128.6655599 -0.133732E-04  0.484E-02    0.98       1.0  T
   3   -128.6655353  0.246004E-04  0.210E-02    0.97       1.0  T
   4   -128.6655643 -0.290437E-04  0.413E-03    0.98       2.7  T
   5   -128.6655656 -0.128849E-05  0.231E-03    0.97       4.9  T
   6   -128.6655661 -0.495957E-06  0.951E-04    0.97      11.9  T
   7   -128.6655661 -0.137685E-07  0.440E-04    0.97      25.7  T
     SCC iter.                  ...        0 min,  0.129 sec
     gradient                   ...        0 min,  0.016 sec
 * total energy  :  -127.0011707 Eh     change       -0.4578735E-03 Eh
   gradient norm :     0.0095483 Eh/α   predicted    -0.3717515E-03 ( -18.81%)
   displ. norm   :     0.6120340 α      lambda       -0.5451122E-03
   maximum displ.:     0.2273187 α      in ANC's #1, #14, #3, ...

........................................................................
.............................. CYCLE   50 ..............................
........................................................................

 iter      E             dE          RMSdq      gap      omega  full diag
   1   -128.6627237 -0.128663E+03  0.109E-01    0.97       0.0  T
   2   -128.6627402 -0.165300E-04  0.652E-02    0.98       1.0  T
   3   -128.6626775  0.627080E-04  0.277E-02    0.97       1.0  T
   4   -128.6627467 -0.692377E-04  0.599E-03    0.98       1.9  T
   5   -128.6627504 -0.368203E-05  0.294E-03    0.97       3.9  T
   6   -128.6627510 -0.633671E-06  0.123E-03    0.97       9.2  T
   7   -128.6627511 -0.128043E-07  0.476E-04    0.97      23.8  T
   8   -128.6627511 -0.761702E-08  0.162E-04    0.97      70.0  T
     SCC iter.                  ...        0 min,  0.172 sec
     gradient                   ...        0 min,  0.016 sec
 * total energy  :  -127.0015966 Eh     change       -0.4258918E-03 Eh
   gradient norm :     0.0123805 Eh/α   predicted    -0.3746613E-03 ( -12.03%)
   displ. norm   :     0.5175896 α      lambda       -0.7476546E-03
   maximum displ.:     0.2170126 α      in ANC's #1, #3, #5, ...

........................................................................
.............................. CYCLE   51 ..............................
........................................................................

 iter      E             dE          RMSdq      gap      omega  full diag
   1   -128.6699364 -0.128670E+03  0.824E-02    0.98       0.0  T
   2   -128.6699650 -0.286582E-04  0.491E-02    0.98       1.0  T
   3   -128.6699522  0.128003E-04  0.210E-02    0.98       1.0  T
   4   -128.6699712 -0.189729E-04  0.395E-03    0.98       2.9  T
   5   -128.6699720 -0.810182E-06  0.181E-03    0.98       6.3  T
   6   -128.6699722 -0.195304E-06  0.983E-04    0.98      11.5  T
   7   -128.6699722 -0.349668E-07  0.529E-04    0.98      21.4  T
     SCC iter.                  ...        0 min,  0.132 sec
     gradient                   ...        0 min,  0.015 sec
 * total energy  :  -127.0020760 Eh     change       -0.4793329E-03 Eh
   gradient norm :     0.0109495 Eh/α   predicted    -0.4739756E-03 (  -1.12%)
   displ. norm   :     0.6565063 α      lambda       -0.5730976E-03
   maximum displ.:     0.2615655 α      in ANC's #1, #14, #3, ...

........................................................................
.............................. CYCLE   52 ..............................
........................................................................

 iter      E             dE          RMSdq      gap      omega  full diag
   1   -128.6650479 -0.128665E+03  0.103E-01    0.98       0.0  T
   2   -128.6650567 -0.875469E-05  0.615E-02    0.98       1.0  T
   3   -128.6650219  0.347444E-04  0.202E-02    0.97       1.0  T
   4   -128.6650603 -0.383730E-04  0.446E-03    0.98       2.5  T
   5   -128.6650620 -0.170464E-05  0.242E-03    0.98       4.7  T
   6   -128.6650624 -0.356733E-06  0.959E-04    0.98      11.8  T
   7   -128.6650624 -0.945545E-08  0.316E-04    0.98      35.9  T
     SCC iter.                  ...        0 min,  0.179 sec
     gradient                   ...        0 min,  0.017 sec
 * total energy  :  -127.0024734 Eh     change       -0.3973963E-03 Eh
   gradient norm :     0.0149653 Eh/α   predicted    -0.4100768E-03 (   3.19%)
   displ. norm   :     0.4216780 α      lambda       -0.5902055E-03
   maximum displ.:     0.1919891 α      in ANC's #1, #7, #5, ...

........................................................................
[...]
    91   6 C       92   6 C                                       1.4154199
    80   6 C       93   7 N                                       1.4509428
    92   6 C       93   7 N                                       1.3866395
    88   6 C       94   6 C                                       1.4204120
    93   7 N       94   6 C                                       1.3837921
    94   6 C       95   6 C                                       1.3875653
    95   6 C       96   6 C                                       1.3921308
    89   6 C       97   6 C                                       1.3886463
    96   6 C       97   6 C                                       1.3906492
    91   6 C       98   6 C                                       1.4245753
    98   6 C       99   6 C                                       1.3776530
    99   6 C      100   6 C                                       1.3974986
    92   6 C      101   6 C                                       1.3898868
   100   6 C      101   6 C                                       1.3930703
    98   6 C      102   8 O                                       1.3602357
    82   6 C      103   8 O                                       1.3569779
   106   6 C      107   8 O                                       1.2097144
   106   6 C      108   8 O                                       1.3505149
   108   8 O      109   6 C                                       1.4196555
   104   6 C      110   8 O                                       1.2106947
   104   6 C      111   8 O                                       1.3508302
   111   8 O      112   6 C                                       1.4169100
   105   6 C      113   8 O                                       1.2104756
   105   6 C      114   8 O                                       1.3548939
   114   8 O      115   6 C                                       1.4166743
    81   6 C      116   1 H                                       1.0767106
    85   6 C      117   1 H                                       1.0756686
    99   6 C      118   1 H                                       1.0772448
   101   6 C      119   1 H                                       1.0748402
    95   6 C      120   1 H                                       1.0744755
    97   6 C      121   1 H                                       1.0755234
    80   6 C      122   6 C                                       1.5331717 (max)
   122   6 C      123   6 C                                       1.5236656
    79   6 C      124   6 C                                       1.5314891
   124   6 C      125   6 C                                       1.5220362
   102   8 O      126   6 C                                       1.4060886
   103   8 O      127   6 C                                       1.4055479
   112   6 C      128   1 H                                       1.0872160
   112   6 C      129   1 H                                       1.0924332
   112   6 C      130   1 H                                       1.0922533
   115   6 C      131   1 H                                       1.0873156
   115   6 C      132   1 H                                       1.0922579
   115   6 C      133   1 H                                       1.0923261
   109   6 C      134   1 H                                       1.0879653
   109   6 C      135   1 H                                       1.0916541
   109   6 C      136   1 H                                       1.0910792
    80   6 C      137   1 H                                       1.0925056
    80   6 C      138   1 H                                       1.0919854
   122   6 C      139   1 H                                       1.0912730
   122   6 C      140   1 H                                       1.0907792
   123   6 C      141   1 H                                       1.0879915
   123   6 C      142   1 H                                       1.0872957
   123   6 C      143   1 H                                       1.0879206
   126   6 C      144   1 H                                       1.0893272
   126   6 C      145   1 H                                       1.0948739
   126   6 C      146   1 H                                       1.0940814
   127   6 C      147   1 H                                       1.0887601
   127   6 C      148   1 H                                       1.0950327
   127   6 C      149   1 H                                       1.0951374
   125   6 C      150   1 H                                       1.0868749
   125   6 C      151   1 H                                       1.0876746
   125   6 C      152   1 H                                       1.0868912
   124   6 C      153   1 H                                       1.0919279
Note: The following floating-point exceptions are signalling: IEEE_UNDERFLOW_FLAG
normal termination of xtb
   124   6 C      154   1 H                                       1.0915988
    79   6 C      155   1 H                                       1.0911175
    79   6 C      156   1 H                                       1.0912806

 * 4 distinct bonds (by element types)

   Z      Z             #   av. dist./Å        max./Å        min./Å
   1 H    6 C          70     1.0879449     1.0951374     1.0742095
   6 C    6 C          50     1.4228227     1.5331717     1.3768539
   6 C    7 N          12     1.4062769     1.4509428     1.3807133
   6 C    8 O          26     1.3442513     1.4196555     1.2087802


optimized geometry written to: xtbopt.mol


           -------------------------------------------------
          | TOTAL ENERGY             -254.048860497207 Eh   |
          | GRADIENT NORM               0.000286273493 Eh/α |
          | HOMO-LUMO GAP               0.903961973909 eV   |
           -------------------------------------------------
########################################################################
[WARNING] Runtime exception occurred
-3- restart_readRestart: Dimension missmatch in restart file.
-2- restart_readRestart: Multiplicity missmatch in restart file.
-1- restart_readRestart: Number of electron missmatch in restart file.
########################################################################

------------------------------------------------------------------------
 * finished run on 2024/12/02 at 12:42:09.159     
------------------------------------------------------------------------
 total:
 * wall-time:     0 d,  0 h,  0 min, 26.929 sec
 *  cpu-time:     0 d,  0 h,  1 min, 29.360 sec
 * ratio c/w:     3.318 speedup
 SCF:
 * wall-time:     0 d,  0 h,  0 min,  1.332 sec
 *  cpu-time:     0 d,  0 h,  0 min,  4.878 sec
 * ratio c/w:     3.662 speedup
 ANC optimizer:
 * wall-time:     0 d,  0 h,  0 min, 25.571 sec
 *  cpu-time:     0 d,  0 h,  1 min, 24.430 sec
 * ratio c/w:     3.302 speedup

Running optimization for loose_opt_dimer.mol
      -----------------------------------------------------------      
     |                   =====================                   |     
     |                           x T B                           |     
     |                   =====================                   |     
     |                         S. Grimme                         |     
     |          Mulliken Center for Theoretical Chemistry        |     
     |                    University of Bonn                     |     
      -----------------------------------------------------------      

   * xtb version 6.7.1 (edcfbbe) compiled by 'runner@Mac-1732539442253.local' on 2024-11-25

   xtb is free software: you can redistribute it and/or modify it under
   the terms of the GNU Lesser General Public License as published by
   the Free Software Foundation, either version 3 of the License, or
   (at your option) any later version.
   
   xtb is distributed in the hope that it will be useful,
   but WITHOUT ANY WARRANTY; without even the implied warranty of
   MERCHANTABILITY or FITNESS FOR A PARTICULAR PURPOSE.  See the
   GNU Lesser General Public License for more details.
   
   Cite this work as:
   * C. Bannwarth, E. Caldeweyher, S. Ehlert, A. Hansen, P. Pracht,
     J. Seibert, S. Spicher, S. Grimme, WIREs Comput. Mol. Sci., 2020, 11,
     e01493. DOI: 10.1002/wcms.1493
   
   for GFN2-xTB:
   * C. Bannwarth, S. Ehlert and S. Grimme., J. Chem. Theory Comput., 2019,
     15, 1652-1671. DOI: 10.1021/acs.jctc.8b01176
   for GFN1-xTB:
   * S. Grimme, C. Bannwarth, P. Shushkov, J. Chem. Theory Comput., 2017,
     13, 1989-2009. DOI: 10.1021/acs.jctc.7b00118
   for GFN0-xTB:
   * P. Pracht, E. Caldeweyher, S. Ehlert, S. Grimme, ChemRxiv, 2019, preprint.
     DOI: 10.26434/chemrxiv.8326202.v1
   for GFN-FF:
   * S. Spicher and S. Grimme, Angew. Chem. Int. Ed., 2020, 59, 15665-15673.
     DOI: 10.1002/anie.202004239
   
   for ALPB and GBSA implicit solvation:
   * S. Ehlert, M. Stahn, S. Spicher, S. Grimme, J. Chem. Theory Comput.,
     2021, 17, 4250-4261. DOI: 10.1021/acs.jctc.1c00471
   
   for ddCOSMO and CPCM-X implicit solvation:
   * M. Stahn, S. Ehlert, S. Grimme, J. Phys. Chem. A,
     2023, XX, XXXX-XXXX. DOI: 10.1021/acs.jpca.3c04382
   
   for DFT-D4:
   * E. Caldeweyher, C. Bannwarth and S. Grimme, J. Chem. Phys., 2017,
     147, 034112. DOI: 10.1063/1.4993215
   * E. Caldeweyher, S. Ehlert, A. Hansen, H. Neugebauer, S. Spicher,
     C. Bannwarth and S. Grimme, J. Chem. Phys., 2019, 150, 154122.
     DOI: 10.1063/1.5090222
   * E. Caldeweyher, J.-M. Mewes, S. Ehlert and S. Grimme, Phys. Chem. Chem. Phys.
     2020, 22, 8499-8512. DOI: 10.1039/D0CP00502A
   
   for sTDA-xTB:
   * S. Grimme and C. Bannwarth, J. Chem. Phys., 2016, 145, 054103.
     DOI: 10.1063/1.4959605
   
   in the mass-spec context:
   * V. Asgeirsson, C. Bauer and S. Grimme, Chem. Sci., 2017, 8, 4879.
     DOI: 10.1039/c7sc00601b
   * J. Koopman and S. Grimme, ACS Omega 2019, 4, 12, 15120-15133.
     DOI: 10.1021/acsomega.9b02011
   
   for metadynamics refer to:
   * S. Grimme, J. Chem. Theory Comput., 2019, 155, 2847-2862
     DOI: 10.1021/acs.jctc.9b00143
   
   for SPH calculations refer to:
   * S. Spicher and S. Grimme, J. Chem. Theory Comput., 2021, 17, 1701-1714
     DOI: 10.1021/acs.jctc.0c01306
   
   for ONIOM refer to:
   * C. Plett, A. Katbashev, S. Ehlert, S. Grimme, M. Bursch,
     Phys. Chem. Chem. Phys., 2023, 25, 17860-17868. DOI: 10.1039/D3CP02178E
   
   for DIPRO refer to:
   * J. Kohn, N. Gildemeister, S. Grimme, D. Fazzi, A. Hansen,
     J. Chem. Phys., 2023, just accepted.
   
   for PTB refer to:
   * S. Grimme, M. Mueller, A. Hansen, J. Chem. Phys., 2023, 158, 124111.
     DOI: 10.1063/5.0137838
   
   with help from (in alphabetical order)
   P. Atkinson, C. Bannwarth, F. Bohle, G. Brandenburg, E. Caldeweyher
   M. Checinski, S. Dohm, S. Ehlert, S. Ehrlich, I. Gerasimov, C. Hölzer
   A. Katbashev, J. Kohn, J. Koopman, C. Lavigne, S. Lehtola, F. März, M. Müller,
   F. Musil, H. Neugebauer, J. Pisarek, C. Plett, P. Pracht, F. Pultar,
   J. Seibert, P. Shushkov, S. Spicher, M. Stahn, M. Steiner, T. Strunk,
   J. Stückrath, T. Rose, and J. Unsleber
   
 * started run on 2024/12/02 at 12:42:09.190     
   ID    Z sym.   atoms
    1    6 C      1-11, 13, 14, 16-23, 26-28, 31, 34, 37, 44-49, 79-89, 91,
                  92, 94-101, 104-106, 109, 112, 115, 122-127
    2    7 N      12, 15, 90, 93
    3    8 O      24, 25, 29, 30, 32, 33, 35, 36, 102, 103, 107, 108, 110,
                  111, 113, 114
    4    1 H      38-43, 50-78, 116-121, 128-156

           -------------------------------------------------
          |                Calculation Setup                |
           -------------------------------------------------

          program call               : xtb opt_dimer.mol --dipro 0.3 --gfn 2 --chrg 0 --uhf 2
          coordinate file            : opt_dimer.mol
          omp threads                :                     8


molecular fragmentation (1/2 indicates fragments):
111111111111111111111111111111111111111111111111111111111111111111111111
111111222222222222222222222222222222222222222222222222222222222222222222
222222222222
# atoms in fragment 1/2:    78    78
 fragment masses (1/2) :      587.64      587.64
CMA distance (Bohr)    :  10.435
constraining FC (au)   :  0.0500

           -------------------------------------------------
          |                 G F N 2 - x T B                 |
           -------------------------------------------------

        Reference                      10.1021/acs.jctc.8b01176
      * Hamiltonian:
        H0-scaling (s, p, d)           1.850000    2.230000    2.230000
        zeta-weighting                 0.500000
      * Dispersion:
        s8                             2.700000
        a1                             0.520000
        a2                             5.000000
        s9                             5.000000
      * Repulsion:
        kExp                           1.500000    1.000000
        rExp                           1.000000
      * Coulomb:
        alpha                          2.000000
        third order                    shell-resolved
        anisotropic                    true
        a3                             3.000000
        a5                             4.000000
        cn-shift                       1.200000
        cn-exp                         4.000000
        max-rad                        5.000000

q/qsh data taken from xtbrestart
CAMM data taken from xtbrestart
           -------------------------------------------------
          |                    D I P R O                    |
           -------------------------------------------------
Calculation for dimer 
--------------------- 
  
charge of dimer :   0.
unpaired e- of dimer :  2
repulsion energy          3.3321004438234E+00 Eh
dispersion energy         1.7421150494241E-02 Eh
number of electrons       4.5000000000000E+02 e
integral cutoff           1.7347787504999E+01 bohr

------------------------------------------------------------
  cycle        total energy    energy error   density error
------------------------------------------------------------
      1     -252.6810811647  -2.5603060E+02   1.6803699E-01
      2     -253.9195349192  -1.2384538E+00   7.2961592E-02
      3     -253.9855842647  -6.6049346E-02   3.8275634E-02
      4     -254.0279921576  -4.2407893E-02   1.4727771E-02
      5     -254.0422377796  -1.4245622E-02   6.2145034E-03
      6     -254.0462408240  -4.0030444E-03   3.4029822E-03
      7     -254.0483970987  -2.1562746E-03   1.5174601E-03
      8     -254.0487546425  -3.5754381E-04   5.2923084E-04
      9     -254.0487826956  -2.8053115E-05   2.9606729E-04
     10     -254.0487947111  -1.2015536E-05   1.4366065E-04
     11     -254.0487974881  -2.7770007E-06   4.8239443E-05
     12     -254.0487976822  -1.9406082E-07   2.8589705E-05
     13     -254.0487978020  -1.1982399E-07   1.3940996E-05
------------------------------------------------------------

electronic energy        -2.5739831939632E+02 Eh
total energy             -2.5404879780201E+02 Eh

 total:                                   1.237 sec
 - repulsion                              0.000 sec (  0%)
 - dispersion                             0.007 sec (  0%)
 - coulomb                                0.003 sec (  0%)
 - hamiltonian                            0.008 sec (  0%)
 - scc                                    1.219 sec ( 98%)

Found 2 fragments!
Fragment 1:  1-78
Fragment 2:  79-156

[Info] Fragment spin read from .UHFfrag
Calculation for fragment 1
 ------------------------------
   
charge of fragment :   0.
unpaired e- of fragment :  1
------------------------------------------------------------
  cycle        total energy    energy error   density error
------------------------------------------------------------
      1     -126.3181462341  -1.2798568E+02   1.6822151E-01
      2     -126.9393658815  -6.2121965E-01   7.2985175E-02
      3     -126.9743588484  -3.4992967E-02   3.8121517E-02
      4     -126.9968472289  -2.2488381E-02   1.4159697E-02
      5     -127.0024083900  -5.5611611E-03   5.5948725E-03
      6     -127.0032604072  -8.5201721E-04   2.8991235E-03
      7     -127.0037575370  -4.9712984E-04   1.5383585E-03
      8     -127.0039767064  -2.1916932E-04   4.5047889E-04
      9     -127.0039819570  -5.2506395E-06   2.4030246E-04
     10     -127.0039838896  -1.9325633E-06   1.1617526E-04
     11     -127.0039847872  -8.9765143E-07   3.6266091E-05
     12     -127.0039848289  -4.1676429E-08   1.9651003E-05
------------------------------------------------------------

 total:                                   0.327 sec
Calculation for fragment 2
 ------------------------------
   
charge of fragment :   0.
unpaired e- of fragment :  1
------------------------------------------------------------
  cycle        total energy    energy error   density error
------------------------------------------------------------
      1     -126.3182751888  -1.2798388E+02   1.6803302E-01
      2     -126.9394816860  -6.2120650E-01   7.2740126E-02
      3     -126.9747060043  -3.5224318E-02   3.8099034E-02
      4     -126.9975155013  -2.2809497E-02   1.4010931E-02
      5     -127.0027622320  -5.2467307E-03   5.2665177E-03
      6     -127.0033189702  -5.5673819E-04   2.6078424E-03
      7     -127.0035639232  -2.4495299E-04   1.4345997E-03
      8     -127.0037799104  -2.1598723E-04   4.3735643E-04
      9     -127.0037856538  -5.7433654E-06   2.3769407E-04
     10     -127.0037876612  -2.0074123E-06   1.1125804E-04
     11     -127.0037885597  -8.9843792E-07   3.6955537E-05
     12     -127.0037886136  -5.3935963E-08   2.0161261E-05
     13     -127.0037886219  -8.3216491E-09   1.1006340E-05
------------------------------------------------------------

 total:                                   0.303 sec
   
   ::::::::::::::::::::::::::::::::::::::::::::::
   ::     D I P R O      C O U P L I N G S     ::
   ::::::::::::::::::::::::::::::::::::::::::::::
   
energy threshhold for near-degenerate orbitals near HOMO and LUMO considered for DIPRO:  0.300 eV
no. of orbitals within energy window of frag 1         2
no. of orbitals within energy window of frag 2         2
   
  Fragment 1 SOMO   Fragment 2 SOMO 
--------------------------------------
E_mon(orb) frag1 frag2              -9.742    -9.751 eV
J(AB):                0.013 eV
S(AB):            -0.00068330 Eh
|J(AB,eff)|:            0.006 eV
   
  Fragment 1 SOMO   Fragment 2 LUMO 
--------------------------------------
E_mon(orb) frag1 frag2              -9.742    -8.306 eV
J(AB):                0.034 eV
S(AB):            -0.00136327 Eh
|J(AB,eff)|:            0.021 eV
   
  Fragment 1 LUMO   Fragment 2 SOMO 
--------------------------------------
E_mon(orb) frag1 frag2              -8.289    -9.751 eV
J(AB):                0.006 eV
S(AB):            -0.00029189 Eh
|J(AB,eff)|:            0.003 eV
   
  Fragment 1 LUMO   Fragment 2 LUMO 
--------------------------------------
E_mon(orb) frag1 frag2              -8.289    -8.306 eV
J(AB):                0.022 eV
S(AB):            -0.00101764 Eh
|J(AB,eff)|:            0.014 eV
   
..............................................................................
:  total |J(AB,eff)| for hole transport (occ. MOs) :               0.006 eV  :
:  total |J(AB,eff)| for charge transport (unocc. MOs) :           0.014 eV  :
:  total |J(AB,eff)| for charge transfer (CT) :                    0.022 eV  :
..............................................................................
  
 Please remember, DIPRO is not available for restart!
   
normal termination of dipro
----------------------------------------------------------
 * finished run on 2024/12/02 at 12:42:11.076     
----------------------------------------------------------
 dipro:
 * wall-time:     0 d,  0 h,  0 min,  1.881 sec
 *  cpu-time:     0 d,  0 h,  0 min,  6.371 sec
 * ratio c/w:     3.387 speedup
