156
 energy: -253.997308858480 gnorm: 0.139899774970 xtb: 6.7.1 (43a0e4e5b5d943adc66b4aa6563d39c792f6153b)
C            0.97960000000000        3.00950000000000       -3.42330000000000
C            2.32010000000000       -3.26080000000000        0.28770000000000
C           -3.54970000000000        1.68390000000000       -1.68390000000000
C           -2.72020000000000        0.62660000000000       -1.33110000000000
C           -1.30050000000000        0.85410000000000       -1.31550000000000
C           -0.79360000000000        1.98570000000000       -2.01380000000000
C           -1.67310000000000        3.02070000000000       -2.32620000000000
C           -3.03160000000000        2.89150000000000       -2.12480000000000
C           -0.36570000000000       -0.07530000000000       -0.73680000000000
C            0.93170000000000       -0.13380000000000       -1.30690000000000
C            1.37050000000000        0.88810000000000       -2.19320000000000
N            0.53100000000000        1.97360000000000       -2.47120000000000
C           -0.66010000000000       -0.92630000000000        0.38320000000000
C            0.17900000000000       -2.04450000000000        0.63720000000000
N            1.38270000000000       -2.18110000000000       -0.07050000000000
C            1.78430000000000       -1.23050000000000       -1.01440000000000
C            3.00270000000000       -1.32080000000000       -1.67850000000000
C            3.43590000000000       -0.32420000000000       -2.53240000000000
C            2.63390000000000        0.77610000000000       -2.76110000000000
C           -1.70920000000000       -0.62830000000000        1.31550000000000
C           -2.00280000000000       -1.55230000000000        2.30980000000000
C           -1.26900000000000       -2.71500000000000        2.46070000000000
C           -0.18370000000000       -2.94320000000000        1.64080000000000
O           -2.35300000000000        0.60980000000000        1.26030000000000
O           -3.19800000000000       -0.65380000000000       -1.05570000000000
C           -3.92490000000000        4.02490000000000       -2.44290000000000
C           -1.62260000000000       -3.66820000000000        3.53720000000000
C            4.75330000000000       -0.41620000000000       -3.19900000000000
O            5.07160000000000        0.42450000000000       -4.01980000000000
O            5.54780000000000       -1.47140000000000       -2.84160000000000
C            6.73860000000000       -1.41590000000000       -3.55860000000000
O           -3.44970000000000        5.06340000000000       -2.86410000000000
O           -5.26130000000000        3.82450000000000       -2.23400000000000
C           -5.95690000000000        4.98730000000000       -2.54590000000000
O           -2.69010000000000       -3.55610000000000        4.11120000000000
O           -0.70570000000000       -4.64070000000000        3.82930000000000
C           -1.18890000000000       -5.42300000000000        4.87520000000000
H           -4.61620000000000        1.58790000000000       -1.61550000000000
H           -1.31490000000000        3.95260000000000       -2.72140000000000
H           -2.76570000000000       -1.34950000000000        3.03720000000000
H            0.37210000000000       -3.84640000000000        1.80110000000000
H            3.64350000000000       -2.17000000000000       -1.54190000000000
H            3.02900000000000        1.54260000000000       -3.39950000000000
C            2.13120000000000       -4.49540000000000       -0.57800000000000
C            3.07810000000000       -5.62290000000000       -0.20590000000000
C            1.74510000000000        4.12460000000000       -2.73040000000000
C            2.34130000000000        5.12720000000000       -3.70270000000000
C           -3.67520000000000        0.60580000000000        1.74520000000000
C           -4.53170000000000       -0.88700000000000       -1.44200000000000
H           -7.02390000000000        4.82380000000000       -2.38150000000000
H           -5.77130000000000        5.24120000000000       -3.59220000000000
H           -5.59720000000000        5.79560000000000       -1.90440000000000
H           -0.46460000000000       -6.20380000000000        5.11530000000000
H           -2.13710000000000       -5.87250000000000        4.57110000000000
H           -1.35400000000000       -4.78470000000000        5.74690000000000
H            7.37070000000000       -2.26040000000000       -3.27710000000000
H            7.24540000000000       -0.47500000000000       -3.33140000000000
H            6.51050000000000       -1.45730000000000       -4.62620000000000
H            2.19660000000000       -3.50500000000000        1.34130000000000
H            3.34530000000000       -2.88680000000000        0.22810000000000
H            2.25980000000000       -4.21920000000000       -1.63200000000000
H            1.08900000000000       -4.83000000000000       -0.50110000000000
H            4.11900000000000       -5.31160000000000       -0.30690000000000
H            2.93470000000000       -6.50290000000000       -0.83600000000000
H            2.93320000000000       -5.93300000000000        0.83020000000000
H           -4.15310000000000        1.54250000000000        1.45490000000000
H           -3.67520000000000        0.52640000000000        2.82910000000000
H           -4.21880000000000       -0.23260000000000        1.30910000000000
H           -4.74670000000000       -1.94800000000000       -1.30960000000000
H           -4.66160000000000       -0.62550000000000       -2.49310000000000
H           -5.21290000000000       -0.30760000000000       -0.81880000000000
H            2.88270000000000        5.92370000000000       -3.18850000000000
H            1.56570000000000        5.59520000000000       -4.31090000000000
H            3.04080000000000        4.64370000000000       -4.38650000000000
H            2.53360000000000        3.68280000000000       -2.10760000000000
H            1.07320000000000        4.63020000000000       -2.02670000000000
H            0.12000000000000        3.40590000000000       -3.96870000000000
H            1.58840000000000        2.54230000000000       -4.20080000000000
C            0.17020000000000        3.03650000000000        1.61650000000000
C            2.77040000000000       -3.05340000000000        5.02400000000000
C           -3.48330000000000        1.83170000000000        4.86930000000000
C           -2.57280000000000        0.78640000000000        4.95670000000000
C           -1.24140000000000        0.99150000000000        4.45340000000000
C           -1.01830000000000        2.07720000000000        3.56570000000000
C           -1.97920000000000        3.08440000000000        3.49420000000000
C           -3.17900000000000        2.98820000000000        4.16920000000000
C           -0.17220000000000        0.06740000000000        4.70540000000000
C            0.90260000000000        0.01240000000000        3.78290000000000
C            1.03580000000000        1.01910000000000        2.78730000000000
N            0.09110000000000        2.04940000000000        2.71040000000000
C           -0.14390000000000       -0.81780000000000        5.83540000000000
C            0.68330000000000       -1.97120000000000        5.77760000000000
N            1.71470000000000       -2.03730000000000        4.83330000000000
C            1.85270000000000       -1.04460000000000        3.85630000000000
C            2.89610000000000       -1.06440000000000        2.94060000000000
C            3.04550000000000       -0.06690000000000        1.99700000000000
C            2.12540000000000        0.96060000000000        1.92750000000000
C           -0.84820000000000       -0.54580000000000        7.05980000000000
C           -0.99090000000000       -1.57920000000000        7.97830000000000
C           -0.36290000000000       -2.79990000000000        7.79250000000000
C            0.50340000000000       -2.96810000000000        6.73300000000000
O           -1.29030000000000        0.75210000000000        7.30070000000000
O           -2.91490000000000       -0.48590000000000        5.40600000000000
C           -4.16960000000000        4.07820000000000        4.05160000000000
C           -0.57050000000000       -3.90230000000000        8.75400000000000
C            4.18950000000000       -0.09010000000000        1.06360000000000
O            4.35940000000000        0.84130000000000        0.29810000000000
O            4.99830000000000       -1.19250000000000        1.12500000000000
C            6.01470000000000       -1.07300000000000        0.18450000000000
O           -3.88650000000000        5.08260000000000        3.42490000000000
O           -5.37570000000000        3.87300000000000        4.66280000000000
C           -6.19270000000000        4.97910000000000        4.45540000000000
O           -1.21850000000000       -3.71160000000000        9.76630000000000
O           -0.00310000000000       -5.10250000000000        8.42160000000000
C           -0.28120000000000       -6.03460000000000        9.41580000000000
H           -4.45880000000000        1.74680000000000        5.30830000000000
H           -1.81210000000000        3.96740000000000        2.90700000000000
H           -1.58440000000000       -1.45310000000000        8.86360000000000
H            1.02230000000000       -3.90420000000000        6.65350000000000
H            3.61390000000000       -1.86130000000000        2.93870000000000
H            2.29510000000000        1.72080000000000        1.18970000000000
C            2.46830000000000       -4.35150000000000        4.29290000000000
C            3.44230000000000       -5.46480000000000        4.63490000000000
C            0.92600000000000        4.28480000000000        2.04460000000000
C            1.04400000000000        5.31690000000000        0.93830000000000
C           -1.97410000000000        0.93670000000000        8.51490000000000
C           -4.27060000000000       -0.68800000000000        5.71600000000000
H           -7.15060000000000        4.81870000000000        4.95410000000000
H           -6.34520000000000        5.11010000000000        3.38150000000000
H           -5.69980000000000        5.86430000000000        4.86410000000000
H            0.17280000000000       -6.99180000000000        9.15180000000000
H           -1.36450000000000       -6.14410000000000        9.50520000000000
H            0.12740000000000       -5.67380000000000       10.36260000000000
H            6.69870000000000       -1.91850000000000        0.27790000000000
H            6.54740000000000       -0.13400000000000        0.35180000000000
H            5.56360000000000       -1.06500000000000       -0.80890000000000
H            2.88390000000000       -3.23580000000000        6.09610000000000
H            3.73760000000000       -2.64560000000000        4.72160000000000
H            2.47080000000000       -4.16580000000000        3.21510000000000
H            1.44010000000000       -4.65880000000000        4.51760000000000
H            4.46600000000000       -5.18330000000000        4.38320000000000
H            3.21280000000000       -6.38810000000000        4.09940000000000
H            3.42280000000000       -5.69070000000000        5.70220000000000
H           -2.28120000000000        1.98130000000000        8.57890000000000
H           -1.31240000000000        0.70780000000000        9.35130000000000
H           -2.86190000000000        0.30370000000000        8.53880000000000
H           -4.40090000000000       -1.74480000000000        5.95550000000000
H           -4.89410000000000       -0.43990000000000        4.85650000000000
H           -4.54670000000000       -0.08510000000000        6.58150000000000
H            1.54140000000000        6.22720000000000        1.27870000000000
H            0.06200000000000        5.60060000000000        0.55650000000000
H            1.62040000000000        4.92450000000000        0.10050000000000
H            1.92170000000000        3.99440000000000        2.40300000000000
H            0.43040000000000        4.72100000000000        2.92100000000000
H           -0.84200000000000        3.28080000000000        1.28290000000000
H            0.62960000000000        2.57690000000000        0.73840000000000
156
 energy: -254.026362799030 gnorm: 0.062531818947 xtb: 6.7.1 (43a0e4e5b5d943adc66b4aa6563d39c792f6153b)
C            0.97577976995141        2.99870757709412       -3.41316190770192
C            2.31092623802742       -3.25184144096663        0.28352259506576
C           -3.55113487731630        1.67312853018731       -1.68128438214709
C           -2.71401971160351        0.63228240828651       -1.32382115327163
C           -1.30027995064683        0.83986751402867       -1.32862818305288
C           -0.79467425486204        1.96606707684561       -2.03534093607865
C           -1.66230103148887        3.01437737797582       -2.33079504588002
C           -3.02657099352095        2.88631066967600       -2.11528222330593
C           -0.36856982416052       -0.07452626132317       -0.73587029896361
C            0.93010277740039       -0.13113307195743       -1.30242225337785
C            1.36445291461462        0.88759161586363       -2.19620663445012
N            0.52914026350596        1.96809814650786       -2.46949543107433
C           -0.65300701203302       -0.91715268665544        0.38688258818786
C            0.19600382398394       -2.02943636769904        0.64585929139506
N            1.38291986879092       -2.17638800950511       -0.06936879757241
C            1.78493670210459       -1.22674740212637       -1.00225922181395
C            2.99786912695463       -1.33169132517985       -1.66994707780290
C            3.42668340289249       -0.32671345675586       -2.52822462136727
C            2.62820976570791        0.78414077242520       -2.76023913748937
C           -1.70206256353115       -0.63738437073253        1.31280961317968
C           -1.99604453671633       -1.54537134886491        2.31124654081400
C           -1.25808619122634       -2.71241859912731        2.45583064164390
C           -0.16390325935508       -2.94201005903912        1.63501576686795
O           -2.34437477868548        0.58262803966964        1.24431689451613
O           -3.18512369080928       -0.63592347729065       -1.05308910561398
C           -3.89767224841669        4.02871524898332       -2.43925410080546
C           -1.64219667971361       -3.64778296017928        3.52851033651642
C            4.72994852134961       -0.39701452969626       -3.21381694161058
O            5.06993281804660        0.43240706710870       -4.02875234497057
O            5.51984379908323       -1.44906815406650       -2.87032867846833
C            6.74181003744820       -1.41686006527806       -3.56640533268397
O           -3.44809297967575        5.07096460294768       -2.86629627956180
O           -5.22453083141014        3.83121269214753       -2.23546791929033
C           -5.96036876150146        4.98940132274484       -2.54573915957637
O           -2.69897820982027       -3.55045249815070        4.11355535978874
O           -0.73698066460380       -4.61686701064405        3.82083612414284
C           -1.19348826809154       -5.42758234115813        4.87826821933236
H           -4.62109624229521        1.57797558288310       -1.62225153628988
H           -1.30849623852030        3.95168797617773       -2.72396610455781
H           -2.77205040340818       -1.35530496745386        3.03172394639371
H            0.38397395600035       -3.85264605502121        1.79186921792881
H            3.63948491653512       -2.18402878944625       -1.54118990293722
H            3.03150838442510        1.54805623751733       -3.40002648502427
C            2.12312066270630       -4.49296887418569       -0.58490073960814
C            3.07766501338244       -5.61548383399286       -0.20254593457539
C            1.74365881578273        4.12135456500453       -2.72077610850052
C            2.33557932818892        5.11970279849612       -3.70535112348682
C           -3.66672169697232        0.59828467822167        1.73615849282627
C           -4.52023123025305       -0.88192797769419       -1.43788144050409
H           -7.01895880027116        4.79792941007623       -2.37393113089145
H           -5.79144871295738        5.26052685410177       -3.59155906643340
H           -5.61973193609721        5.81426789813332       -1.91364899621421
H           -0.45051507427569       -6.19506724612706        5.09407143044653
H           -2.14123886601880       -5.89236281968644        4.59443544034881
H           -1.35896154902581       -4.80772394669073        5.76385440838676
H            7.34972972465390       -2.26847406258958       -3.26262191359064
H            7.26535693503702       -0.48314747457722       -3.34367504518865
H            6.54271228557549       -1.45813028802728       -4.64015142551132
H            2.17541367153998       -3.50034404817965        1.33629248235561
H            3.33542833214521       -2.87860837732110        0.21243066169532
H            2.26844081745895       -4.22063307516699       -1.63501098704948
H            1.08745984543814       -4.83556304032453       -0.49352530821800
H            4.11544960288201       -5.30113238138647       -0.30879684005081
H            2.92749808509169       -6.48850406950083       -0.83624473205125
H            2.92652128185018       -5.92444094039474        0.83139788608631
H           -4.12221461148917        1.54247195456264        1.43527149761837
H           -3.70364462021315        0.53436593749044        2.82323823509176
H           -4.23191080617170       -0.23402863168819        1.31163503581228
H           -4.71302809300981       -1.94618222048282       -1.29913554649003
H           -4.66912771893690       -0.62674938931899       -2.49121997408814
H           -5.22318516990847       -0.31509507647869       -0.82146880429634
H            2.87255213337841        5.90991144718290       -3.18230897628154
H            1.55697872190361        5.58767846992072       -4.30675492074058
H            3.03711553820805        4.63376134094777       -4.38252346166971
H            2.54197673595857        3.68106320989632       -2.11419259382278
H            1.06680779306005        4.63704153416116       -2.03292227640884
H            0.10971986756139        3.39899715228186       -3.94590569739296
H            1.59508003845692        2.53042858691045       -4.18281575504761
C            0.16861515665338        3.02735191183518        1.62952151272138
C            2.75866304861789       -3.04363632654794        5.02394450704296
C           -3.48262077745742        1.82323984761930        4.87672369339731
C           -2.56382789736204        0.79317618339384        4.96751898087791
C           -1.24507014050472        0.97726598113305        4.44439779555351
C           -1.02544727655148        2.05644316658630        3.54701176841460
C           -1.96979972546235        3.07857342010558        3.48566969719344
C           -3.16943898872072        2.98503555116600        4.17668603133496
C           -0.17731520075991        0.06332406101783        4.70673466488399
C            0.89656318052813        0.00883364219042        3.78375188584224
C            1.02555335229696        1.01629374201529        2.78550902970968
N            0.08835778917766        2.04161543223347        2.71166005173963
C           -0.13718672601579       -0.81055509190687        5.83829861590045
C            0.69830981174138       -1.95824384392927        5.78289760704338
N            1.71242554835461       -2.03332398235530        4.83297231083491
C            1.84952455577907       -1.04733509802437        3.86189922854040
C            2.89047828788681       -1.07900993388635        2.94640871984485
C            3.03548646520153       -0.07249694266825        2.00077847740646
C            2.11712454047144        0.96599284175069        1.92849805421112
C           -0.84976464132524       -0.55764066881114        7.05184067739120
C           -0.98717123161203       -1.57541986497272        7.97709032167060
C           -0.36236053825377       -2.80220538687874        7.77911718890828
C            0.51663453242765       -2.96972440986531        6.71940538727025
O           -1.29596434285682        0.72399156256263        7.28421248393155
O           -2.89972099532205       -0.46285844861572        5.41852349702766
C           -4.14072886134750        4.08395577546496        4.04693713182727
C           -0.58462540888988       -3.88033660628138        8.75476104099004
C            4.16883572777980       -0.07156973934756        1.06204295563242
O            4.36261550760770        0.84604272384707        0.29284345445847
O            4.97711506822762       -1.16053335970962        1.12967174111936
C            6.02340613491933       -1.07186197964433        0.19247316338452
O           -3.88545323849256        5.09100821941688        3.42113036092272
O           -5.34053068956515        3.88093957062507        4.64927796038695
C           -6.19509885824859        4.98165473934353        4.45592893393040
O           -1.22467334317384       -3.71088922143865        9.77079604473532
O           -0.01876825991698       -5.07307854197946        8.43225791012149
C           -0.28186430260256       -6.03924497905522        9.41969171093734
H           -4.46326762074943        1.74077320404111        5.31168342423419
H           -1.80662275818491        3.96730214245562        2.90206769774812
H           -1.58004593293269       -1.45522607432494        8.86750506297133
H            1.03618826164674       -3.90726649498750        6.64387291293801
H            3.61644280122030       -1.87118475756580        2.94518296521491
H            2.29574839934589        1.72499678821449        1.18798347100054
C            2.46400375575602       -4.34852928578063        4.28910822347126
C            3.44535682230586       -5.45723475752651        4.63899766909177
C            0.92854905070836        4.28214070315437        2.05615120035392
C            1.04115977377466        5.30905628301115        0.93929525112479
C           -1.97208244414972        0.93114931582351        8.50337965873083
C           -4.25795274263513       -0.68263400946454        5.72012606913351
H           -7.14147321063668        4.79427420073304        4.96192214665669
H           -6.36362201735738        5.12949455668784        3.38555284869126
H           -5.72418853915460        5.88202530425234        4.85995518265800
H            0.18193768262639       -6.98155771279598        9.13058590427023
H           -1.36266460544609       -6.16770193136479        9.52350456443138
H            0.12121164349886       -5.69913746679600       10.37752836342287
H            6.68740102468029       -1.92757752939636        0.30839557645595
H            6.57385236979429       -0.13996882724197        0.34261422410109
H            5.59775358122122       -1.06508958856450       -0.81056360676955
H            2.86176356607969       -3.23121334182699        6.09728566390831
H            3.72105986314545       -2.63354373278726        4.70732205410902
H            2.48464009060177       -4.16450948670130        3.21247815282795
H            1.44555888961691       -4.66321498782275        4.52275392216191
H            4.46589182642214       -5.17459096356921        4.38262974672985
H            3.20703447325300       -6.37321406144861        4.09934834940152
H            3.41807793902561       -5.68301009102866        5.70446068146187
H           -2.26586924435149        1.98055742089921        8.54554495497715
H           -1.31921753382794        0.71149384643329        9.35323768828917
H           -2.86902955194492        0.30844141116933        8.55452466388916
H           -4.36664251359567       -1.74271412511903        5.95067587983004
H           -4.89583951656178       -0.44200638992559        4.86389970708318
H           -4.56288006465793       -0.08945337552634        6.58648475185126
H            1.53732661753198        6.21353143714955        1.28882530940364
H            0.05810497820185        5.59172333306702        0.56400180024980
H            1.62200878875307        4.91461278713399        0.10758736039728
H            1.92850095820117        3.99299037442779        2.39577381691074
H            0.42387262666226        4.72670011211667        2.91949420097506
H           -0.84570494768927        3.27540213987491        1.30476501084573
H            0.63981096850315        2.56704641020398        0.75784016603905
156
 energy: -254.038230933704 gnorm: 0.016465010555 xtb: 6.7.1 (43a0e4e5b5d943adc66b4aa6563d39c792f6153b)
C            0.97115080697441        2.98584852669253       -3.40360036991216
C            2.30439312904391       -3.24014758871779        0.27984736936492
C           -3.55279409064131        1.66980157712897       -1.68478303253541
C           -2.71033062365052        0.63761852559672       -1.32792218758276
C           -1.29963240110588        0.82909164751359       -1.33921384633244
C           -0.79357422381524        1.95194244808312       -2.04876817482531
C           -1.65263504319314        3.00877772725961       -2.33359827955069
C           -3.02077389945638        2.88618041136888       -2.10973424444487
C           -0.37054571758666       -0.07436841524798       -0.73543085561295
C            0.93111004931657       -0.12840657986128       -1.29801011848656
C            1.36155358220317        0.88779908122325       -2.19539296552870
N            0.52840955760536        1.96328534491281       -2.46424998907049
C           -0.64662575314911       -0.90905504635098        0.39107589297332
C            0.20991709733025       -2.01668387504108        0.65582873442332
N            1.38335650402455       -2.17028730359860       -0.06802460551658
C            1.78757464230143       -1.22234305363413       -0.99444091035897
C            2.99557174699511       -1.33906073467547       -1.66972518590880
C            3.41847393640704       -0.32878450198275       -2.52945247084150
C            2.62462714827450        0.78979201765743       -2.75845897507023
C           -1.69941592772763       -0.64316574401462        1.30897926450122
C           -1.99369375982914       -1.54122031643823        2.31071580709256
C           -1.25170393879614       -2.70983831040972        2.45419029785587
C           -0.15093101513380       -2.93943356284470        1.63509250772141
O           -2.35063011407563        0.55557076792441        1.21514789010772
O           -3.17512663771545       -0.61925864468394       -1.05304647825623
C           -3.86715298132014        4.04021439244089       -2.43956390958339
C           -1.66583291247015       -3.62643523030082        3.52514948385173
C            4.70817738778853       -0.37368161899499       -3.23406215834591
O            5.06360153905046        0.44946150442229       -4.04501586084448
O            5.49451311055233       -1.42574822282103       -2.90529161184543
C            6.74467612041229       -1.41885395249716       -3.57750764275983
O           -3.43447038804144        5.08691314202185       -2.86856941314585
O           -5.18694173992022        3.84701280821163       -2.23657391463486
C           -5.96501266508090        4.99357390645135       -2.54510013719071
O           -2.71692648527841       -3.53775752308899        4.11752419449619
O           -0.77190063103286       -4.59603066789068        3.81770553929408
C           -1.19956009325934       -5.43482401555188        4.88229536974281
H           -4.62398564453005        1.57819191571916       -1.63167741265477
H           -1.30629522467686        3.95121800554150       -2.72180740330053
H           -2.78097698669872       -1.36579506118675        3.02327757677642
H            0.38218346194492       -3.85987051668771        1.78811043828507
H            3.63784831375044       -2.19343241125145       -1.55528392809265
H            3.04067068341641        1.54900709057982       -3.39620882139490
C            2.11476704639900       -4.48693557227244       -0.59026435659961
C            3.07539591528965       -5.60540438991022       -0.19952458844711
C            1.74094999064619        4.11475706229460       -2.71157649191428
C            2.32841035364059        5.10940276513942       -3.70691813945673
C           -3.66666800261551        0.59597777162300        1.72401667102133
C           -4.50831709478101       -0.88623233905196       -1.43108772941285
H           -7.01113939961030        4.75622110527845       -2.36052955400929
H           -5.81448996006821        5.27329406402517       -3.59173360157283
H           -5.64542017555463        5.83185229749957       -1.91924902971570
H           -0.42948786052981       -6.18398267078700        5.06090640836329
H           -2.14417203987846       -5.91533933966059        4.61461952744866
H           -1.35967123462031       -4.83238333614472        5.78077953173701
H            7.31615139146770       -2.28226230746192       -3.24081863929065
H            7.28254086831462       -0.49404441424316       -3.35146555511103
H            6.57627501207496       -1.46369103811836       -4.65677181593039
H            2.16413733728547       -3.49421109553803        1.32984476693502
H            3.32856614993552       -2.87207432513800        0.20180787757741
H            2.27091484059778       -4.22016349451610       -1.63730774886205
H            1.08513289635733       -4.83625812351723       -0.48899273914590
H            4.10959401673145       -5.28574948516346       -0.30863127840476
H            2.92114913944458       -6.47412523404336       -0.83532762944216
H            2.91918067719797       -5.91033015402472        0.83322745597686
H           -4.09567417026369        1.54819742952874        1.40916951210866
H           -3.68375346369923        0.55414857828936        2.81423558476376
H           -4.25383206642949       -0.23607293034937        1.32358486697215