156
 energy: -253.999225679610 gnorm: 0.139266615444 xtb: 6.7.1 (edcfbbe)
C            0.97920000000000        3.00430000000000       -3.42900000000000
C            2.31720000000000       -3.26490000000000        0.28380000000000
C           -3.54680000000000        1.69400000000000       -1.67250000000000
C           -2.71940000000000        0.63380000000000       -1.32340000000000
C           -1.29900000000000        0.85740000000000       -1.31120000000000
C           -0.79080000000000        1.98790000000000       -2.01050000000000
C           -1.66820000000000        3.02560000000000       -2.31960000000000
C           -3.02650000000000        2.90050000000000       -2.11370000000000
C           -0.36520000000000       -0.07480000000000       -0.73540000000000
C            0.93100000000000       -0.13570000000000       -1.30790000000000
C            1.37040000000000        0.88580000000000       -2.19430000000000
N            0.53240000000000        1.97260000000000       -2.47160000000000
C           -0.65930000000000       -0.92600000000000        0.38470000000000
C            0.17780000000000       -2.04630000000000        0.63620000000000
N            1.38000000000000       -2.18480000000000       -0.07350000000000
C            1.78200000000000       -1.23420000000000       -1.01730000000000
C            2.99950000000000       -1.32610000000000       -1.68270000000000
C            3.43370000000000       -0.32950000000000       -2.53610000000000
C            2.63320000000000        0.77220000000000       -2.76340000000000
C           -1.70540000000000       -0.62610000000000        1.31970000000000
C           -1.99860000000000       -1.54990000000000        2.31440000000000
C           -1.26770000000000       -2.71470000000000        2.46250000000000
C           -0.18490000000000       -2.94510000000000        1.63970000000000
O           -2.34720000000000        0.61330000000000        1.26730000000000
O           -3.20000000000000       -0.64570000000000       -1.04860000000000
C           -3.91720000000000        4.03730000000000       -2.42660000000000
C           -1.62090000000000       -3.66800000000000        3.53910000000000
C            4.75080000000000       -0.42290000000000       -3.20300000000000
O            5.06960000000000        0.41730000000000       -4.02400000000000
O            5.54450000000000       -1.47860000000000       -2.84540000000000
C            6.73540000000000       -1.42420000000000       -3.56240000000000
O           -3.44010000000000        5.07500000000000       -2.84770000000000
O           -5.25340000000000        3.84120000000000       -2.21250000000000
C           -5.94610000000000        5.00760000000000       -2.51770000000000
O           -2.68530000000000       -3.55160000000000        4.11810000000000
O           -0.70730000000000       -4.64530000000000        3.82540000000000
C           -1.18920000000000       -5.42680000000000        4.87270000000000
H           -4.61340000000000        1.60090000000000       -1.60070000000000
H           -1.30830000000000        3.95640000000000       -2.71560000000000
H           -2.75830000000000       -1.34500000000000        3.04460000000000
H            0.36880000000000       -3.84980000000000        1.79800000000000
H            3.63890000000000       -2.17650000000000       -1.54740000000000
H            3.02900000000000        1.53870000000000       -3.40140000000000
C            2.12880000000000       -4.49900000000000       -0.58280000000000
C            3.07780000000000       -5.62540000000000       -0.21280000000000
C            1.74830000000000        4.12160000000000       -2.74340000000000
C            2.34670000000000        5.11630000000000       -3.72250000000000
C           -3.66970000000000        0.60990000000000        1.75130000000000
C           -4.53470000000000       -0.87520000000000       -1.43400000000000
H           -7.01280000000000        4.84780000000000       -2.34800000000000
H           -5.76520000000000        5.26350000000000       -3.56430000000000
H           -5.57980000000000        5.81270000000000       -1.87600000000000
H           -0.46860000000000       -6.21290000000000        5.10630000000000
H           -2.14220000000000       -5.86930000000000        4.57360000000000
H           -1.34460000000000       -4.78950000000000        5.74690000000000
H            7.36720000000000       -2.26870000000000       -3.28030000000000
H            7.24250000000000       -0.48330000000000       -3.33590000000000
H            6.50730000000000       -1.46640000000000       -4.62990000000000
H            2.19380000000000       -3.51010000000000        1.33720000000000
H            3.34240000000000       -2.89080000000000        0.22470000000000
H            2.25580000000000       -4.22170000000000       -1.63670000000000
H            1.08710000000000       -4.83500000000000       -0.50490000000000
H            4.11810000000000       -5.31250000000000       -0.31490000000000
H            2.93480000000000       -6.50510000000000       -0.84340000000000
H            2.93470000000000       -5.93650000000000        0.82320000000000
H           -4.14620000000000        1.54770000000000        1.46250000000000
H           -3.67100000000000        0.52820000000000        2.83510000000000
H           -4.21370000000000       -0.22720000000000        1.31320000000000
H           -4.75210000000000       -1.93580000000000       -1.30280000000000
H           -4.66500000000000       -0.61190000000000       -2.48450000000000
H           -5.21400000000000       -0.29500000000000       -0.80930000000000
H            2.88930000000000        5.91540000000000       -3.21360000000000
H            1.57230000000000        5.58120000000000       -4.33440000000000
H            3.04580000000000        4.62680000000000       -4.40240000000000
H            2.53600000000000        3.68150000000000       -2.11850000000000
H            1.07850000000000        4.63370000000000       -2.04240000000000
H            0.11820000000000        3.39940000000000       -3.97320000000000
H            1.58510000000000        2.53330000000000       -4.20630000000000
C            0.17120000000000        3.03460000000000        1.61640000000000
C            2.76620000000000       -3.05650000000000        5.02420000000000
C           -3.47970000000000        1.83870000000000        4.87330000000000
C           -2.57060000000000        0.79210000000000        4.96070000000000
C           -1.23870000000000        0.99560000000000        4.45800000000000
C           -1.01400000000000        2.08130000000000        3.57060000000000
C           -1.97340000000000        3.08990000000000        3.49930000000000
C           -3.17360000000000        2.99500000000000        4.17380000000000
C           -0.17110000000000        0.06930000000000        4.70900000000000
C            0.90280000000000        0.01250000000000        3.78560000000000
C            1.03710000000000        1.01910000000000        2.79000000000000
N            0.09430000000000        2.05120000000000        2.71390000000000
C           -0.14450000000000       -0.81730000000000        5.83800000000000
C            0.68040000000000       -1.97220000000000        5.77880000000000
N            1.71150000000000       -2.03930000000000        4.83420000000000
C            1.85040000000000       -1.04670000000000        3.85730000000000
C            2.89240000000000       -1.06910000000000        2.94010000000000
C            3.04320000000000       -0.07160000000000        1.99670000000000
C            2.12560000000000        0.95830000000000        1.92900000000000
C           -0.84850000000000       -0.54570000000000        7.06260000000000
C           -0.99360000000000       -1.58030000000000        7.97950000000000
C           -0.36830000000000       -2.80210000000000        7.79170000000000
C            0.49830000000000       -2.97020000000000        6.73250000000000
O           -1.28810000000000        0.75270000000000        7.30540000000000
O           -2.91460000000000       -0.48010000000000        5.40880000000000
C           -4.16320000000000        4.08590000000000        4.05520000000000
C           -0.57960000000000       -3.90600000000000        8.75070000000000
C            4.18570000000000       -0.09740000000000        1.06150000000000
O            4.35580000000000        0.83290000000000        0.29490000000000
O            4.99310000000000       -1.20100000000000        1.12260000000000
C            6.00910000000000       -1.08320000000000        0.18150000000000
O           -3.87750000000000        5.09110000000000        3.43100000000000
O           -5.37130000000000        3.88040000000000        4.66220000000000
C           -6.18740000000000        4.98700000000000        4.45360000000000
O           -1.22540000000000       -3.71540000000000        9.76430000000000
O           -0.01800000000000       -5.10790000000000        8.41430000000000
C           -0.29890000000000       -6.04160000000000        9.40610000000000
H           -4.45580000000000        1.75440000000000        5.31110000000000
H           -1.80500000000000        3.97260000000000        2.91200000000000
H           -1.58720000000000       -1.45420000000000        8.86470000000000
H            1.01530000000000       -3.90740000000000        6.65150000000000
H            3.60820000000000       -1.86790000000000        2.93710000000000
H            2.29620000000000        1.71850000000000        1.19140000000000
C            2.46420000000000       -4.35290000000000        4.29020000000000
C            3.43980000000000       -5.46610000000000        4.62750000000000
C            0.92870000000000        4.28410000000000        2.03780000000000
C            1.04440000000000        5.31150000000000        0.92680000000000
C           -1.97100000000000        0.93710000000000        8.52020000000000
C           -4.27010000000000       -0.68000000000000        5.72110000000000
H           -7.14740000000000        4.82560000000000        4.94800000000000
H           -6.33530000000000        5.12030000000000        3.37940000000000
H           -5.69620000000000        5.87130000000000        4.86630000000000
H            0.14810000000000       -7.00070000000000        9.13760000000000
H           -1.38260000000000       -6.14460000000000        9.49850000000000
H            0.11470000000000       -5.68680000000000       10.35300000000000
H            6.69340000000000       -1.92830000000000        0.27620000000000
H            6.54180000000000       -0.14380000000000        0.34680000000000
H            5.55790000000000       -1.07700000000000       -0.81180000000000
H            2.87870000000000       -3.24100000000000        6.09600000000000
H            3.73380000000000       -2.64860000000000        4.72330000000000
H            2.46460000000000       -4.16430000000000        3.21290000000000
H            1.43660000000000       -4.66190000000000        4.51570000000000
H            4.46280000000000       -5.18280000000000        4.37500000000000
H            3.21050000000000       -6.38810000000000        4.08970000000000
H            3.42210000000000       -5.69510000000000        5.69420000000000
H           -2.27570000000000        1.98220000000000        8.58600000000000
H           -1.30940000000000        0.70540000000000        9.35600000000000
H           -2.86010000000000        0.30600000000000        8.54340000000000
H           -4.40150000000000       -1.73650000000000        5.96120000000000
H           -4.89460000000000       -0.43130000000000        4.86260000000000
H           -4.54400000000000       -0.07620000000000        6.58670000000000
H            1.54260000000000        6.22320000000000        1.26200000000000
H            0.06150000000000        5.59370000000000        0.54600000000000
H            1.61860000000000        4.91530000000000        0.08930000000000
H            1.92520000000000        3.99480000000000        2.39470000000000
H            0.43550000000000        4.72410000000000        2.91360000000000
H           -0.84180000000000        3.27820000000000        1.28470000000000
H            0.62810000000000        2.57160000000000        0.73880000000000
156
 energy: -254.028291034462 gnorm: 0.062394602233 xtb: 6.7.1 (edcfbbe)
C            0.97546433022200        2.99358234358023       -3.41871769936962
C            2.30792525879117       -3.25589993410103        0.27966774707488
C           -3.54830311514691        1.68334817196480       -1.67019211084664
C           -2.71313618539587        0.63947079804785       -1.31670102907215
C           -1.29915829166114        0.84321007106480       -1.32499996424966
C           -0.79210049172743        1.96828097198336       -2.03205700936167
C           -1.65746619593968        3.01926352207909       -2.32442724116529
C           -3.02136088697857        2.89530037445163       -2.10442459067514
C           -0.36829196312044       -0.07412241987734       -0.73468717165829
C            0.92978737684478       -0.13306182950076       -1.30361082899966
C            1.36450795329578        0.88517411733201       -2.19724837966254
N            0.53060324821404        1.96705251215959       -2.46980111834440
C           -0.65263109637781       -0.91686312690376        0.38852384927011
C            0.19463455145922       -2.03094377796032        0.64499679118579
N            1.38012380483669       -2.17996839823917       -0.07238253721568
C            1.78261822534782       -1.23036057889107       -1.00528907712124
C            2.99475123546568       -1.33696909701342       -1.67423373288019
C            3.42452003833155       -0.33198841488084       -2.53190123829425
C            2.62769423012378        0.78019448169046       -2.76253481473888
C           -1.69973503189969       -0.63521568108463        1.31572466879497
C           -1.99203068464558       -1.54251917881618        2.31574431370449
C           -1.25682029121362       -2.71158616502964        2.45767402588907
C           -0.16538307860363       -2.94364970721827        1.63393770411160
O           -2.34330689337604        0.58476110736136        1.24598363023580
O           -3.18705363768366       -0.62777887560109       -1.04627545646348
C           -3.88983868482153        4.04124497167593       -2.42311981181457
C           -1.64061309127036       -3.64714795651403        3.53060458101746
C            4.72756292859321       -0.40366541505080       -3.21796182460340
O            5.06807905995487        0.42518896248181       -4.03305501246674
O            5.51657397433904       -1.45615171212489       -2.87426998671551
C            6.73868552953389       -1.42520212803528       -3.57024203189914
O           -3.43843832736664        5.08267559304073       -2.84996294368476
O           -5.21639885352326        3.84802512377798       -2.21410699060434
C           -5.94950724990540        5.00981230313783       -2.51760581146227
O           -2.69425344350248       -3.54587626099155        4.12040168797098
O           -0.73889701753202       -4.62104902039661        3.81709334115152
C           -1.19398012458771       -5.43133239137476        4.87564818314123
H           -4.61834774959772        1.59120283499450       -1.60757550386537
H           -1.30180122568304        3.95560962006076       -2.71818240818343
H           -2.76531072476100       -1.35076047074392        3.03871565858432
H            0.38041674390263       -3.85591497921588        1.78863165920361
H            3.63489222404692       -2.19060637256026       -1.54679461301677
H            3.03164494923086        1.54413353961926       -3.40190170948370
C            2.12062827641925       -4.49649442119344       -0.58965324451419
C            3.07725429166730       -5.61795095128426       -0.20940869549184
C            1.74694779373846        4.11838730450566       -2.73374699013284
C            2.34108435177264        5.10874161932569       -3.72506394467419
C           -3.66443668268794        0.60164283686943        1.74284781182561
C           -4.52320187651161       -0.87008667859301       -1.42995260399114
H           -7.00785496202805        4.82181283027260       -2.34058975593491
H           -5.78521291312383        5.28298762702112       -3.56361034485880
H           -5.60238270230331        5.83171905345055       -1.88522533280947
H           -0.45456936623713       -6.20408373449912        5.08480090185618
H           -2.14648160921488       -5.88932430006167        4.59686561443286
H           -1.34978794063219       -4.81257548592905        5.76374560279184
H            7.34611178460993       -2.27688109761210       -3.26565225096750
H            7.26267662520614       -0.49158169366019       -3.34820980020106
H            6.53972712423151       -1.46730771156838       -4.64396057269753
H            2.17244194183139       -3.50539745392862        1.33220428324510
H            3.33245840810768       -2.88262019525108        0.20902499210002
H            2.26436901224291       -4.22312021930837       -1.63970859439055
H            1.08554552067642       -4.84058268670101       -0.49731560562164
H            4.11444048307193       -5.30199780937124       -0.31677132044193
H            2.92751385839138       -6.49068624417898       -0.84360069133838
H            2.92792399031921       -5.92789943810990        0.82448605895174
H           -4.11851146549274        1.54762323818471        1.44574847340441
H           -3.67947693007868        0.53675988016302        2.82998238546089
H           -4.23094824317510       -0.23060318980564        1.32021416816855
H           -4.71826264485381       -1.93406167194069       -1.29240779343216
H           -4.67257126995011       -0.61308743247526       -2.48274007220694
H           -5.22427805182542       -0.30248802548453       -0.81204065490218
H            2.87919520118123        5.90163483335572       -3.20728133867624
H            1.56360481376361        5.57375364239505       -4.33013937786070
H            3.04215014007833        4.61680145265802       -4.39838494450095
H            2.54447984748558        3.67965944547212       -2.12506065451620
H            1.07224073594550        4.64049878581104       -2.04864703635459
H            0.10803499879659        3.39260949925862       -3.95026760086401
H            1.59186296423772        2.52145057529345       -4.18830480398919
C            0.16961373824609        3.02548168195477        1.62954105583911
C            2.75448539436997       -3.04671042817753        5.02409051958371
C           -3.47925399229991        1.83025379475658        4.88054893943097
C           -2.56175187201112        0.79890706162055        4.97133305172680
C           -1.24287186265882        0.98139226223910        4.44870029840002
C           -1.02150420348594        2.06029457807616        3.55170131259820
C           -1.96419958057390        3.08394706514459        3.49062499391480
C           -3.16417028740247        2.99176800105477        4.18111691902071
C           -0.17639996187240        0.06515350923917        4.71033740248475
C            0.89694450199998        0.00886348559988        3.78615546675800
C            1.02686931604305        1.01615730459326        2.78823722011074
N            0.09154114344177        2.04333472192586        2.71517129748133
C           -0.13765518509885       -0.81018810663184        5.84126985687181
C            0.69528619358943       -1.95937224682367        5.78409623155611
N            1.70915287594207       -2.03539089864260        4.83383398835095
C            1.84719278551374       -1.04939800416786        3.86280640021061
C            2.88688522759827       -1.08357872238138        2.94589203438662
C            3.03314056010425       -0.07711861449440        2.00049745333674
C            2.11736637207402        0.96366115783447        1.92991354425113
C           -0.84984930748537       -0.55756649096537        7.05477009452705
C           -0.98981672485071       -1.57661088676448        7.97842297934988
C           -0.36775402426995       -2.80436216030407        7.77843621821053
C            0.51140720760650       -2.97192857255041        6.71896015148149
O           -1.29375062171275        0.72456036435269        7.28886934101672
O           -2.89938486576107       -0.45696821913750        5.42154719871849
C           -4.13430242014357        4.09180075649038        4.05061579680489
C           -0.59359164643052       -3.88403571328688        8.75170613626472
C            4.16510468410596       -0.07871601137641        1.05991218542726
O            4.35918419666911        0.83778300077842        0.28971338070640
O            4.97200026074246       -1.16868326570511        1.12739192188597
C            6.01788758874435       -1.08197768463311        0.18956497385667
O           -3.87655295262421        5.09962040546352        3.42725835238201
O           -5.33600387798410        3.88842327305651        4.64873809834781
C           -6.18980772384162        4.98958487737861        4.45419668922074
O           -1.23157461769898       -3.71467141286184        9.76886845753577
O           -0.03360419820762       -5.07840733193931        8.42517225871463
C           -0.29965785115988       -6.04631738008414        9.41005532615497
H           -4.46033772160331        1.74856827370741        5.31467068455493
H           -1.79950116119791        3.97249572163595        2.90714281224532
H           -1.58297506345180       -1.45651382901879        8.86864292618060
H            1.02920929669887       -3.91040862876735        6.64196061385675
H            3.61074520687639       -1.87771228236745        2.94352114281517
H            2.29684094368785        1.72270227717917        1.18962353808045
C            2.45988685640500       -4.34994348347770        4.28643206392662
C            3.44288377906660       -5.45856747679948        4.63165092140024
C            0.93122928666681        4.28148027557853        2.04936724925689
C            1.04142146229691        5.30360854044179        0.92785742868021
C           -1.96900227658997        0.93146194062642        8.50860281228442
C           -4.25747312919908       -0.67461570898498        5.72524127792518
H           -7.13825341399259        4.80101725230326        4.95588832696309
H           -6.35389864811498        5.13975378605633        3.38347986441669
H           -5.72067473662530        5.88911643297706        4.86214425704196
H            0.15736193369110       -6.99045428088232        9.11626160852020
H           -1.38091369101817       -6.16847234432306        9.51680337315591
H            0.10839520513222       -5.71218034097864       10.36789457371222
H            6.68198772693289       -1.93741875699436        0.30699735960222
H            6.56846123866582       -0.14979426884231        0.33760088930609
H            5.59207781478844       -1.07717941016237       -0.81340287712428
H            2.85648066804750       -3.23634157488835        6.09715445308823
H            3.71733508367427       -2.63643936904524        4.70902236904493
H            2.47844673697831       -4.16298335051502        3.21027898643427
H            1.44216135206407       -4.66635818130094        4.52092672625303
H            4.46270911518795       -5.17408619683724        4.37449984108331
H            3.20468373266485       -6.37323213670326        4.08972905168800
H            3.41742866874643       -5.68740136999084        5.69651447408555
H           -2.26034585924057        1.98145374205591        8.55240717461039
H           -1.31629922569989        0.70910784320098        9.35792262112909
H           -2.86732142858691        0.31071254009151        8.55921252791675
H           -4.36716364021285       -1.73444846536051        5.95639782454635
H           -4.89632086438960       -0.43348173327571        4.86988627178882
H           -4.56031345796514       -0.08058760110287        6.59176385148868
H            1.53854224844872        6.20949858335864        1.27225785536939
H            0.05750726590560        5.58478378420415        0.55361509645085
H            1.62012542046763        4.90531135802166        0.09649873364367
H            1.93193836291170        3.99332684754051        2.38753781914023
H            0.42898062885808        4.72986765943530        2.91211855253499
H           -0.84547527689663        3.27284299077128        1.30662997406704
H            0.63828845883079        2.56177607934288        0.75831594163119
156
 energy: -254.040135239322 gnorm: 0.016222147535 xtb: 6.7.1 (edcfbbe)
C            0.97076403572916        2.98088975861207       -3.40913141882451
C            2.30159102507927       -3.24432688048932        0.27599317203243
C           -3.55009540402014        1.68000350339964       -1.67424017972370
C           -2.70947098815540        0.64441290999943       -1.32185649391262
C           -1.29872287044075        0.83236650015927       -1.33599979044743
C           -0.79117682103482        1.95425973274459       -2.04523518135868
C           -1.64802249555603        3.01363103417717       -2.32735713439514
C           -3.01563132151683        2.89508517973084       -2.09924163626322
C           -0.37021335551398       -0.07406180135954       -0.73406588351621
C            0.93113769996724       -0.13042408619551       -1.29934401023210
C            1.36175982485472        0.88535769425210       -2.19626009556912
N            0.52994441663865        1.96233548385277       -2.46437915678790
C           -0.64565694366291       -0.90900505948339        0.39336430633418
C            0.20858307705101       -2.01867297375071        0.65484525655529
N            1.38067728316019       -2.17405725308112       -0.07126544168412
C            1.78528358620232       -1.22601206127775       -0.99778824656894
C            2.99261793384973       -1.34422754104986       -1.67435340147320
C            3.41638268595665       -0.33397827250363       -2.53326704882766
C            2.62426590808738        0.78579664609372       -2.76079829427433
C           -1.69529450994130       -0.64108453964271        1.31350800279805
C           -1.98966398936280       -1.53932356615856        2.31541894720419
C           -1.25029906690887       -2.70954030891143        2.45611245009368
C           -0.15245381549995       -2.94143331393018        1.63411551173426
O           -2.34375752801538        0.55915956820310        1.22155559391238
O           -3.17714434044729       -0.61162041066451       -1.04733944524074
C           -3.85953381289821        4.05277715872397       -2.42363588618058
C           -1.66403575004026       -3.62611748597598        3.52767117991482
C            4.70610845080695       -0.38024314255064       -3.23829773756171
O            5.06180875920247        0.44238280576154       -4.04953077162984
O            5.49152752246314       -1.43273490111375       -2.90922485966161
C            6.74157152312051       -1.42711723037746       -3.58143218308064
O           -3.42479848537591        5.09871912599554       -2.85219309848075
O           -5.17900651260228        3.86383327549253       -2.21516044470477
C           -5.95428089335196        5.01395939060075       -2.51686351177331
O           -2.71215250877587       -3.53343403494788        4.12450504106946
O           -0.77354337214309       -4.60034935478061        3.81447952452466
C           -1.20007669012496       -5.43878231722397        4.87967938106770
H           -4.62129965017101        1.59159900207880       -1.61710291292967
H           -1.29970249959013        3.95523312695470       -2.71580039470951
H           -2.77438819489425       -1.36259679462111        3.03044291651001
H            0.37837699289490       -3.86360272096993        1.78462999342052
H            3.63336167666438       -2.19990981917993       -1.56134472004453
H            3.04089695073738        1.54507772181413       -3.39802955545406
C            2.11228775967638       -4.49044863990692       -0.59499520043709
C            3.07492984214224       -5.60792215775131       -0.20645287905508
C            1.74415670250721        4.11185215567690       -2.72459536798233
C            2.33381013323796        5.09851459044532       -3.72654245600653
C           -3.66091193870311        0.60033201517358        1.73100782604227
C           -4.51156521259249       -0.87468835060686       -1.42341787211823
H           -7.00026054385444        4.77985717547149       -2.32725085384821
H           -5.80822451308304        5.29548317399298       -3.56360626755994
H           -5.62816219015011        5.84934101286684       -1.89054296362363
H           -0.43357211766204       -6.19320208908445        5.05150480018756
H           -2.14934082272838       -5.91254403368962        4.61665448262400
H           -1.35061478173180       -4.83733547112629        5.78044338394968
H            7.31242385589806       -2.29061733317520       -3.24385903359210
H            7.27979985765038       -0.50241068617416       -3.35598610425961
H            6.57310915238590       -1.47287150196376       -4.66062686593317
H            2.16138452645638       -3.49931821254726        1.32571460460479
H            3.32580527310580       -2.87623820966370        0.19856966495491
H            2.26662450100248       -4.22261463530695       -1.64203599208909
H            1.08321251634391       -4.84118112769802       -0.49292444353210
H            4.10853856501222       -5.28665546831711       -0.31660592191067
H            2.92118913034879       -6.47645510574078       -0.84268096996708
H            2.92059228960046       -5.91377572392916        0.82631751028463
H           -4.08874395531030        1.55285001316457        1.41694737382653
H           -3.68116331951266        0.55643551849176        2.82101531777387
H           -4.24892322256988       -0.22959910694121        1.32903833283396
H           -4.67457075633718       -1.94273786210644       -1.27734564523791