156
 energy: -253.997289089868 gnorm: 0.139577534845 xtb: 6.7.1 (edcfbbe)
C            0.98210000000000        3.00770000000000       -3.42620000000000
C            2.31610000000000       -3.26380000000000        0.28420000000000
C           -3.54590000000000        1.69650000000000       -1.67470000000000
C           -2.71900000000000        0.63580000000000       -1.32570000000000
C           -1.29850000000000        0.85920000000000       -1.31230000000000
C           -0.78970000000000        1.99020000000000       -2.01030000000000
C           -1.66670000000000        3.02830000000000       -2.31920000000000
C           -3.02510000000000        2.90320000000000       -2.11460000000000
C           -0.36530000000000       -0.07320000000000       -0.73590000000000
C            0.93130000000000       -0.13400000000000       -1.30760000000000
C            1.37140000000000        0.88770000000000       -2.19350000000000
N            0.53390000000000        1.97490000000000       -2.47050000000000
C           -0.66030000000000       -0.92460000000000        0.38360000000000
C            0.17670000000000       -2.04500000000000        0.63550000000000
N            1.37940000000000       -2.18330000000000       -0.07340000000000
C            1.78200000000000       -1.23270000000000       -1.01680000000000
C            2.99970000000000       -1.32480000000000       -1.68180000000000
C            3.43430000000000       -0.32830000000000       -2.53510000000000
C            2.63420000000000        0.77380000000000       -2.76240000000000
C           -1.70740000000000       -0.62530000000000        1.31770000000000
C           -2.00130000000000       -1.54940000000000        2.31190000000000
C           -1.27010000000000       -2.71400000000000        2.46050000000000
C           -0.18670000000000       -2.94400000000000        1.63860000000000
O           -2.34940000000000        0.61380000000000        1.26470000000000
O           -3.19990000000000       -0.64370000000000       -1.05190000000000
C           -3.91520000000000        4.04040000000000       -2.42760000000000
C           -1.62390000000000       -3.66740000000000        3.53680000000000
C            4.75130000000000       -0.42200000000000       -3.20230000000000
O            5.07030000000000        0.41850000000000       -4.02300000000000
O            5.54440000000000       -1.47830000000000       -2.84550000000000
C            6.73520000000000       -1.42410000000000       -3.56250000000000
O           -3.43750000000000        5.07830000000000       -2.84740000000000
O           -5.25170000000000        3.84440000000000       -2.21500000000000
C           -5.94380000000000        5.01120000000000       -2.52000000000000
O           -2.69000000000000       -3.55300000000000        4.11310000000000
O           -0.70910000000000       -4.64280000000000        3.82570000000000
C           -1.19190000000000       -5.42470000000000        4.87230000000000
H           -4.61260000000000        1.60370000000000       -1.60330000000000
H           -1.30630000000000        3.95950000000000       -2.71410000000000
H           -2.76210000000000       -1.34510000000000        3.04110000000000
H            0.36720000000000       -3.84870000000000        1.79710000000000
H            3.63900000000000       -2.17530000000000       -1.54640000000000
H            3.03040000000000        1.54030000000000       -3.40020000000000
C            2.12700000000000       -4.49800000000000       -0.58200000000000
C            3.07500000000000       -5.62510000000000       -0.21140000000000
C            1.75200000000000        4.12300000000000       -2.73840000000000
C            2.35180000000000        5.11880000000000       -3.71540000000000
C           -3.67200000000000        0.61040000000000        1.74890000000000
C           -4.53450000000000       -0.87280000000000       -1.43790000000000
H           -7.01070000000000        4.85160000000000       -2.35160000000000
H           -5.76170000000000        5.26790000000000       -3.56630000000000
H           -5.57800000000000        5.81580000000000       -1.87740000000000
H           -0.47000000000000       -6.20890000000000        5.10860000000000
H           -2.14290000000000       -5.86980000000000        4.57080000000000
H           -1.35130000000000       -4.78710000000000        5.74560000000000
H            7.36610000000000       -2.26980000000000       -3.28190000000000
H            7.24350000000000       -0.48420000000000       -3.33460000000000
H            6.50700000000000       -1.46420000000000       -4.63010000000000
H            2.19230000000000       -3.50850000000000        1.33770000000000
H            3.34140000000000       -2.89030000000000        0.22500000000000
H            2.25450000000000       -4.22120000000000       -1.63600000000000
H            1.08500000000000       -4.83330000000000       -0.50430000000000
H            4.11560000000000       -5.31300000000000       -0.31310000000000
H            2.93170000000000       -6.50480000000000       -0.84180000000000
H            2.93130000000000       -5.93580000000000        0.82470000000000
H           -4.14890000000000        1.54770000000000        1.45930000000000
H           -3.67300000000000        0.52980000000000        2.83270000000000
H           -4.21580000000000       -0.22720000000000        1.31160000000000
H           -4.75220000000000       -1.93340000000000       -1.30670000000000
H           -4.66410000000000       -0.60950000000000       -2.48840000000000
H           -5.21390000000000       -0.29250000000000       -0.81350000000000
H            2.89540000000000        5.91630000000000       -3.20500000000000
H            1.57800000000000        5.58600000000000       -4.32650000000000
H            3.05030000000000        4.62980000000000       -4.39630000000000
H            2.53910000000000        3.68110000000000       -2.11390000000000
H            1.08240000000000        4.63450000000000       -2.03670000000000
H            0.12160000000000        3.40450000000000       -3.97000000000000
H            1.58770000000000        2.53720000000000       -4.20410000000000
C            0.16930000000000        3.03480000000000        1.61790000000000
C            2.76750000000000       -3.05750000000000        5.02190000000000
C           -3.48160000000000        1.83300000000000        4.87310000000000
C           -2.57130000000000        0.78740000000000        4.96040000000000
C           -1.23980000000000        0.99240000000000        4.45730000000000
C           -1.01620000000000        2.07850000000000        3.57020000000000
C           -1.97670000000000        3.08610000000000        3.49920000000000
C           -3.17680000000000        2.98970000000000        4.17360000000000
C           -0.17120000000000        0.06720000000000        4.70820000000000
C            0.90270000000000        0.01150000000000        3.78480000000000
C            1.03630000000000        1.01870000000000        2.78970000000000
N            0.09250000000000        2.05000000000000        2.71400000000000
C           -0.14340000000000       -0.81900000000000        5.83750000000000
C            0.68220000000000       -1.97330000000000        5.77810000000000
N            1.71290000000000       -2.04000000000000        4.83300000000000
C            1.85120000000000       -1.04690000000000        3.85640000000000
C            2.89340000000000       -1.06790000000000        2.93940000000000
C            3.04350000000000       -0.06990000000000        1.99640000000000
C            2.12500000000000        0.95920000000000        1.92880000000000
C           -0.84720000000000       -0.54750000000000        7.06220000000000
C           -0.99090000000000       -1.58180000000000        7.97950000000000
C           -0.36470000000000       -2.80320000000000        7.79210000000000
C            0.50130000000000       -2.97110000000000        6.73230000000000
O           -1.28820000000000        0.75050000000000        7.30440000000000
O           -2.91380000000000       -0.48500000000000        5.40900000000000
C           -4.16780000000000        4.07930000000000        4.05500000000000
C           -0.57390000000000       -3.90650000000000        8.75210000000000
C            4.18630000000000       -0.09450000000000        1.06150000000000
O            4.35650000000000        0.83640000000000        0.29580000000000
O            4.99370000000000       -1.19810000000000        1.12200000000000
C            6.00980000000000       -1.07970000000000        0.18100000000000
O           -3.88330000000000        5.08490000000000        3.43090000000000
O           -5.37570000000000        3.87220000000000        4.66190000000000
C           -6.19310000000000        4.97780000000000        4.45330000000000
O           -1.22110000000000       -3.71640000000000        9.76500000000000
O           -0.00870000000000       -5.10720000000000        8.41760000000000
C           -0.28760000000000       -6.04040000000000        9.41040000000000
H           -4.45750000000000        1.74770000000000        5.31110000000000
H           -1.80930000000000        3.96900000000000        2.91190000000000
H           -1.58440000000000       -1.45590000000000        8.86490000000000
H            1.01910000000000       -3.90790000000000        6.65160000000000
H            3.61010000000000       -1.86590000000000        2.93620000000000
H            2.29510000000000        1.71990000000000        1.19160000000000
C            2.46380000000000       -4.35420000000000        4.28900000000000
C            3.43930000000000       -5.46770000000000        4.62570000000000
C            0.92460000000000        4.28490000000000        2.04190000000000
C            1.04100000000000        5.31360000000000        0.93220000000000
C           -1.97300000000000        0.93430000000000        8.51820000000000
C           -4.26990000000000       -0.68770000000000        5.71730000000000
H           -7.15300000000000        4.81520000000000        4.94760000000000
H           -6.34120000000000        5.11100000000000        3.37900000000000
H           -5.70300000000000        5.86280000000000        4.86600000000000
H            0.16220000000000       -6.99860000000000        9.14310000000000
H           -1.37110000000000       -6.14620000000000        9.50250000000000
H            0.12480000000000       -5.68330000000000       10.35700000000000
H            6.69330000000000       -1.92560000000000        0.27450000000000
H            6.54330000000000       -0.14100000000000        0.34760000000000
H            5.55850000000000       -1.07180000000000       -0.81230000000000
H            2.88140000000000       -3.24160000000000        6.09360000000000
H            3.73490000000000       -2.65020000000000        4.71950000000000
H            2.46310000000000       -4.16610000000000        3.21160000000000
H            1.43640000000000       -4.66250000000000        4.51590000000000
H            4.46220000000000       -5.18510000000000        4.37200000000000
H            3.20900000000000       -6.38980000000000        4.08850000000000
H            3.42270000000000       -5.69620000000000        5.69250000000000
H           -2.27900000000000        1.97910000000000        8.58330000000000
H           -1.31240000000000        0.70360000000000        9.35500000000000
H           -2.86140000000000        0.30210000000000        8.54030000000000
H           -4.40020000000000       -1.74480000000000        5.95490000000000
H           -4.89250000000000       -0.43830000000000        4.85760000000000
H           -4.54690000000000       -0.08600000000000        6.58340000000000
H            1.53760000000000        6.22550000000000        1.26940000000000
H            0.05850000000000        5.59510000000000        0.55000000000000
H            1.61730000000000        4.91900000000000        0.09540000000000
H            1.92090000000000        3.99620000000000        2.40020000000000
H            0.42960000000000        4.72330000000000        2.91740000000000
H           -0.84360000000000        3.27760000000000        1.28520000000000
H            0.62790000000000        2.57370000000000        0.74020000000000
156
 energy: -254.026375287744 gnorm: 0.062533545034 xtb: 6.7.1 (edcfbbe)
C            0.97831652388655        2.99695489393341       -3.41591702840863
C            2.30683797884354       -3.25478348909508        0.28009877808673
C           -3.54733094272801        1.68576431542015       -1.67214844542564
C           -2.71273448021517        0.64155509520756       -1.31852298095723
C           -1.29836513625770        0.84497110016794       -1.32567055634550
C           -0.79084447789410        1.97056205516157       -2.03198475055172
C           -1.65579205654065        3.02194765090934       -2.32404119851733
C           -3.01994145182651        2.89803651345416       -2.10519750656641
C           -0.36829029982303       -0.07249719115044       -0.73527995751403
C            0.92974548795174       -0.13131944110730       -1.30313305070905
C            1.36539029407502        0.88710512427942       -2.19660057531963
N            0.53205979311746        1.96931662408302       -2.46882862297646
C           -0.65366631424944       -0.91548623228565        0.38690824148109
C            0.19367467491544       -2.02962112204736        0.64427912722848
N            1.37959743877528       -2.17843264060279       -0.07216676144415
C            1.78267614569587       -1.22886338065268       -1.00461208510207
C            2.99487758116596       -1.33568131282834       -1.67328842666245
C            3.42511063952934       -0.33077479795460       -2.53094435756208
C            2.62859963107506        0.78179970367798       -2.76152964182166
C           -1.70194986710373       -0.63449474518355        1.31346628636446
C           -1.99477955324198       -1.54200340798780        2.31300752020493
C           -1.25921512326481       -2.71091178451871        2.45567430863818
C           -0.16699124899576       -2.94251724677119        1.63281987466456
O           -2.34561914899838        0.58528634394851        1.24340474831098
O           -3.18695150310675       -0.62578283414763       -1.04944585785921
C           -3.88781883613901        4.04427918661079       -2.42397719527547
C           -1.64366954039496       -3.64660917847632        3.52809506090056
C            4.72794868210233       -0.40277373741455       -3.21721734220679
O            5.06871551376327        0.42646047883413       -4.03201897446458
O            5.51646366871481       -1.45593972989264       -2.87427100745968
C            6.73845779929469       -1.42512480683539       -3.57032916471341
O           -3.43573276264038        5.08597725851146       -2.84970306244889
O           -5.21476214212874        3.85116957443047       -2.21650527790241
C           -5.94718831705835        5.01337903527768       -2.51993254568667
O           -2.69898768278401       -3.54707118721185        4.11544260957494
O           -0.74058073537402       -4.61858380320761        3.81731731582201
C           -1.19662031709765       -5.42915798081953        4.87523007809180
H           -4.61746817530296        1.59380164566111       -1.61038905254939
H           -1.29971688623389        3.95860217511728       -2.71676481401554
H           -2.76897000858087       -1.35075176158807        3.03512223104126
H            0.37889809672629       -3.85472054399394        1.78777520082967
H            3.63491859745432       -2.18938968598415       -1.54574259809834
H            3.03299135745030        1.54567539016353       -3.40069379828144
C            2.11883278169480       -4.49550354757301       -0.58886934589726
C            3.07448567279676       -5.61759765768393       -0.20797554048980
C            1.75067435137141        4.11976459756002       -2.72871322563102
C            2.34614365903812        5.11127248538994       -3.71802322240387
C           -3.66677116483572        0.60219209320549        1.74045048973903
C           -4.52297902084741       -0.86769850807667       -1.43383382186386
H           -7.00578122468823        4.82560133286673       -2.34422593209456
H           -5.78168169755590        5.28732428956572       -3.56558511370002
H           -5.60052018933131        5.83476349579247       -1.88661909652041
H           -0.45593652266709       -6.19997027848957        5.08712929734655
H           -2.14719078905050       -5.88972479461584        4.59410725510241
H           -1.35641904001429       -4.81010744416661        5.76242790468885
H            7.34503000768493       -2.27797016669584       -3.26727523018353
H            7.26356642888498       -0.49246508088474       -3.34686248677540
H            6.53937844032668       -1.46517277557925       -4.64412494613224
H            2.17103754068089       -3.50381694609466        1.33271734873799
H            3.33151950489642       -2.88204448686604        0.20933664040334
H            2.26308481486333       -4.22260583686268       -1.63898818187782
H            1.08346233814223       -4.83884033208404       -0.49671719676725
H            4.11196447862252       -5.30246031842079       -0.31497435832398
H            2.92437533243614       -6.49035322713670       -0.84200433935822
H            2.92451740627377       -5.92718816849650        0.82595503175303
H           -4.12119928190184        1.54773851462524        1.44256843936709
H           -3.68150263115818        0.53827498577664        2.82762349221619
H           -4.23302185908417       -0.23059355242561        1.31855717205924
H           -4.71838530667080       -1.93164443110080       -1.29637641033222
H           -4.67168539103843       -0.61061169571763       -2.48665912006174
H           -5.22416710521449       -0.29996317514946       -0.81622269723627
H            2.88524614694945        5.90249283376994       -3.19869371391064
H            1.56931509561242        5.57853007792184       -4.32227174120537
H            3.04663306923879        4.61978970275864       -4.39228352582280
H            2.54756449809860        3.67922554854813       -2.12045100279446
H            1.07616720286999        4.64130049467016       -2.04294784105094
H            0.11144390514965        3.39771834410966       -3.94706131034588
H            1.59446932594915        2.52536459131661       -4.18606147553255
C            0.16770291416637        3.02569861409106        1.63099904145920
C            2.75575969896983       -3.04770571102013        5.02184426274340
C           -3.48100937614948        1.82446955150359        4.88043879447445
C           -2.56239682235100        0.79420129326186        4.97122331249778
C           -1.24356410007371        0.97810497185916        4.44828871881043
C           -1.02355855949067        2.05750814836938        3.55129609914270
C           -1.96740897646040        3.08013056156126        3.49048375974698
C           -3.16732591861260        2.98649212412624        4.18099983624179
C           -0.17643531201212        0.06307798847340        4.70951200112774
C            0.89657972350909        0.00790685803685        3.78563306196559
C            1.02589271764575        1.01576284561785        2.78781288539556
N            0.08966024307609        2.04207287286876        2.71517389755825
C           -0.13677482235877       -0.81182370520979        5.84031698628017
C            0.69721065706141       -1.96045545695309        5.78336364931869
N            1.71060095771803       -2.03602723800394        4.83268958336940
C            1.84806212301159       -1.04963348622808        3.86206597785817
C            2.88781555419531       -1.08245550806303        2.94527313426119
C            3.03341759467121       -0.07546515260518        2.00020473708446
C            2.11663617175918        0.96458292779607        1.92978973330546
C           -0.84888391881114       -0.55941437386235        7.05418704845421
C           -0.98728893888165       -1.57808097723831        7.97829016027607
C           -0.36414657824776       -2.80546546961798        7.77876228786210
C            0.51454033565678       -2.97277820045954        6.71872885261281
O           -1.29391423984585        0.72234186766647        7.28784937648772
O           -2.89863755263935       -0.46192561952026        5.42159330154375
C           -4.13882417339277        4.08520132081058        4.05047289682365
C           -0.58796889940162       -3.88451901155880        8.75295751254566
C            4.16558428347190       -0.07587715058975        1.05998857543887
O            4.35966944103196        0.84136748002610        0.29053084647251
O            4.97259437353308       -1.16593190667187        1.12680329703226
C            6.01854207221899       -1.07850177984057        0.18908672642333
O           -3.88227085208307        5.09342769130845        3.42708985502642
O           -5.34042080822752        3.88023718270324        4.64849029999736
C           -6.19550829918739        4.98034832242632        4.45388654111755
O           -1.22729172620080       -3.71562017127031        9.76952005529185
O           -0.02435789250594       -5.07778293006793        8.42832843280928
C           -0.28829826405760       -6.04510329475414        9.41432197359994
H           -4.46197363672289        1.74170929814681        5.31463065018777
H           -1.80381413347674        3.96889244609068        2.90702788695757
H           -1.58003717365969       -1.45812501425262        8.86884406790860
H            1.03298953174573       -3.91090551920402        6.64199228170188
H            3.61254483757702       -1.87579339543589        2.94265868196566
H            2.29569175544224        1.72410172063210        1.18988730790768
C            2.45951043966762       -4.35119475790134        4.28520227524009
C            3.44237525006161       -5.46013902050656        4.62983708915399
C            0.92717649408784        4.28220332732098        2.05346278686112
C            1.03807454156062        5.30568218770135        0.93326776948039
C           -1.97098557999820        0.92869426939536        8.50664654072631
C           -4.25722320700750       -0.68227117758571        5.72143500257395
H           -7.14379226596743        4.79065579307058        4.95548560608948
H           -6.35975488498542        5.13037363542771        3.38313121100431
H           -5.72750418296360        5.88049832022050        4.86183039034745
H            0.17139257248978       -6.98837599246595        9.12185256778631
H           -1.36927795211369       -6.17000813931333        9.52081313095595
H            0.11851630851476       -5.70867950118009       10.37190247864921
H            6.68193664875737       -1.93466719930858        0.30522272418552
H            6.56983302419817       -0.14697480807075        0.33847963340673
H            5.59266590139777       -1.07192254837684       -0.81384626282556
H            2.85917200256699       -3.23693670091183        6.09483758713016
H            3.71836017591010       -2.63807327965445        4.70522740328899
H            2.47692261053265       -4.16478920223017        3.20893261819807
H            1.44191667563606       -4.66692182785408        4.52109084177294
H            4.46208033327545       -5.17631933664265        4.37146129526108
H            3.20315355151540       -6.37491654587110        4.08855639229853
H            3.41799228718312       -5.68850398272598        5.69481701730208
H           -2.26365298373278        1.97835457513027        8.54979100129531
H           -1.31922641461521        0.70732099851313        9.35691606179103
H           -2.86860743766304        0.30682123101244        8.55611495068400
H           -4.36584146077594       -1.74270571836265        5.95017690501590
H           -4.89424057513447       -0.44043140511597        4.86492813331231
H           -4.56314828548859       -0.09040095098143        6.58836363321947
H            1.53351499866948        6.21177379776085        1.27960798180926
H            0.05451571602456        5.58613335099887        0.55760752388591
H            1.61880313237177        4.90903524379383        0.10253227300200
H            1.92767455512877        3.99474130824791        2.39297951282869
H            0.42303732397726        4.72902928042946        2.91589054983017
H           -0.84731714480309        3.27220908568592        1.30716245911591
H            0.63810014603171        2.56388758855225        0.75970758674158
156
 energy: -254.038216472718 gnorm: 0.016223654353 xtb: 6.7.1 (edcfbbe)
C            0.97357193348838        2.98418513936409       -3.40634891942802
C            2.30056240361875       -3.24314729645277        0.27647948980010
C           -3.54900111264247        1.68241049498588       -1.67594888417740
C           -2.70903311300600        0.64662396932551       -1.32334237407889
C           -1.29771122403728        0.83417208964183       -1.33629516606615
C           -0.78981429228581        1.95654887748300       -2.04522107130396
C           -1.64623680803097        3.01631768102355       -2.32689675517162
C           -3.01415444534258        2.89790317769610       -2.09980299143327
C           -0.37011785671859       -0.07240120480683       -0.73472972986085
C            0.93086595700331       -0.12865428056793       -1.29877396350072
C            1.36255710840279        0.88728254642751       -2.19578957527097
N            0.53130942074733        1.96448962206670       -2.46356978884103
C           -0.64674232306966       -0.90768425721984        0.39137052878849
C            0.20767800823020       -2.01734109199137        0.65413401357885
N            1.38024164401656       -2.17243442711932       -0.07090264598262
C            1.78544465193081       -1.22447341057218       -0.99698685311501
C            2.99269329962251       -1.34290402357221       -1.67337816462046
C            3.41697068988806       -0.33273624388984       -2.53238999758455
C            2.62506870127385        0.78737846285106       -2.75983629783640
C           -1.69766832706778       -0.64046711038564        1.31104517414859
C           -1.99251261300298       -1.53886696603604        2.31236718701015
C           -1.25278638660058       -2.70894533417372        2.45403794868435
C           -0.15396538276692       -2.94027697708608        1.63297803514268
O           -2.34612165076847        0.55966623773987        1.21902912472929
O           -3.17698567877942       -0.60959199530106       -1.05040998344797
C           -3.85746273498465        4.05569810351715       -2.42435892030039
C           -1.66706406453460       -3.62546718372274        3.52507089878872
C            4.70638466049260       -0.37933466217538       -3.23747424024976
O            5.06241228865113        0.44366130815332       -4.04841780459186
O            5.49138921472802       -1.43261595396097       -2.90915356433594
C            6.74129982460667       -1.42706758360353       -3.58151539421810
O           -3.42202936741729        5.10193597248095       -2.85187854588914
O           -5.17737870186841        3.86690438926619       -2.21742551106835
C           -5.95191056008272        5.01747257321436       -2.51919839969139
O           -2.71683339973664       -3.53442093577587        4.11957736418845
O           -0.77517889286973       -4.59794741330819        3.81455553289867
C           -1.20266299589403       -5.43650294820461        4.87923661359660
H           -4.62029424242575        1.59407719519431       -1.62009308274049
H           -1.29761665663163        3.95812059819081       -2.71451757923054
H           -2.77794850704553       -1.36253395263340        3.02668812872435
H            0.37698926925828       -3.86226022458233        1.78394007228184
H            3.63333639915863       -2.19863451975199       -1.56023226794251
H            3.04216090837654        1.54653681802003       -3.39689179198570
C            2.11052959749886       -4.48940518627449       -0.59420611309376
C            3.07218117571514       -5.60750306953363       -0.20499832442388
C            1.74786615325029        4.11317302581668       -2.71952374303325
C            2.33882952258179        5.10102350520983       -3.71952628516470
C           -3.66325985557870        0.60090573140623        1.72859258266200
C           -4.51128275037576       -0.87228125110597       -1.42725914728076
H           -6.99819101146063        4.78361213718425       -2.33091430281234
H           -5.80463224126802        5.29972208638029       -3.56557476314277
H           -5.62623909595617        5.85233979883260       -1.89194088659517
H           -0.43489372754736       -6.18898269414918        5.05385651501518
H           -2.15007562640532       -5.91275983857406        4.61398653334637
H           -1.35711276024234       -4.83471399025900        5.77911737971891
H            7.31135129288441       -2.29170487079542       -3.24550738056171
H            7.28054533592040       -0.50329784864685       -3.35458921052040
H            6.57269225576722       -1.47079047743273       -4.66077675965562
H            2.16014786316202       -3.49775076156428        1.32626699461898
H            3.32495376097702       -2.87558392724420        0.19889820249399
H            2.26539217442188       -4.22202557420613       -1.64128009953743
H            1.08116884739682       -4.83934018744126       -0.49231284009496
H            4.10607479433106       -5.28706865100646       -0.31482075589258
H            2.91802238849921       -6.47606350900408       -0.84109410170516
H            2.91718440418724       -5.91302944264443        0.82776404472456
H           -4.09139318658449        1.55304985555460        1.41382043904442
H           -3.68328823460501        0.55785945468631        2.81865105563831
H           -4.25104456976467       -0.22953045924495        1.32731513861661
H           -4.67465591064763       -1.94029410737380       -1.28136880519597