116
 energy: -22.927944945557 gnorm: 0.329718822199 xtb: 6.6.1 (8d0f1dd)
C           -3.31122850772930        0.79849766164622       -0.92477639677520
C           -2.44380812530352       -0.12270372891954       -0.27661132624697
C           -1.41337090092821        0.39579727573559        0.56335275196199
C           -0.89266158675590        1.65801491088749        0.27377586709581
C           -1.72665675402493        2.51431363229076       -0.49448366572522
C           -2.95444148494349        2.13954154133227       -1.01494489940871
C           -0.74098268209890       -0.43411532818871        1.49825021926784
C            0.56872586496315        0.03782116815119        1.86248088067890
C            1.03782416582094        1.29402317993033        1.50887470833621
N            0.31238977034758        2.07067427098208        0.65193736800696
C           -1.29695700510141       -1.39996043042223        2.41574187746061
C           -0.38243517664656       -2.18060797534842        3.13232615520648
N            0.91308504082021       -1.90366887689689        3.30325166013478
C            1.37712470144904       -0.74872102533751        2.81811050966982
C            2.52149331701875       -0.17739833758153        3.39379298866852
C            2.95849061756259        1.02681208890480        2.95105897606587
C            2.24288949469137        1.78498308775960        2.03503020483770
C           -2.74860936222260       -1.74497937691422        2.38401158947411
C           -3.09416315450955       -2.91614440870436        3.00571134491758
C           -2.16786021984049       -3.77788778654213        3.63251872101904
C           -0.85708937311598       -3.40495313382985        3.68547234358092
O           -3.71994433332149       -0.94984598373544        1.67726658385724
O           -2.55702603277562       -1.47241711578389       -0.57241635275616
C           -3.84297843593025        3.13357444054366       -1.60938954875544
C           -2.68769581069131       -5.03867041417370        4.30484659386931
H           -1.39666850744143        3.51251503834900       -0.76806311868865
H           -4.27662633836220        0.55105838579656       -1.33106614114542
H            2.66329581305412        2.73912661909249        1.72562431984580
H            3.05775395548473       -0.69369546277216        4.16536137542516
H           -0.24710966264510       -4.12034095424229        4.22946223699121
H           -4.11477991332403       -3.04712728052358        3.03244694615357
O           -4.21824883374556        4.03433712717988       -0.87713382485991
O           -4.44510595673734        2.90643496899600       -2.81853501752979
C           -5.44216520282800        3.83300025693726       -3.02488532025093
C            4.23586651889298        1.50004220933226        3.59165660008449
O            5.05927614697201        0.66079890002952        3.91714215179376
O            4.47001334453535        2.86385149488593        3.72605651435371
C            5.79457498613219        3.08584475587818        4.15829123132174
O           -3.82227255313510       -5.27347675879771        4.16636005494405
O           -1.85023202017753       -5.79767454267276        5.06656077253571
C           -2.55119635829503       -6.86252441382958        5.62930343183426
C           -5.07197156564436       -1.42399175670916        1.58830531863830
C           -1.33089900128490       -2.23622472573986       -0.99264499351172
H           -2.54510546830388       -7.76426885143998        4.99136022291012
H           -3.57194749219491       -6.44405511486021        5.74196173723541
H           -2.09133598235598       -7.02043774843818        6.64022264233588
H            5.72707967266424        3.46798026205549        5.10135971236643
H            6.34060091246885        3.78468702308830        3.50069950143490
H            6.17933064298187        2.03010500085905        4.19342358084693
H           -0.91862729772622       -2.57650129080332       -0.01361370304871
H           -0.49769766914251       -1.60651221708571       -1.34094446550576
H           -1.52632419730509       -2.94569707152159       -1.75361447637286
H           -5.11788846557077       -2.41810833635233        1.17520213188926
H           -5.67929807973498       -0.69619639428435        1.04301666067831
H           -5.57598832326623       -1.42383358739762        2.57928294206544
H           -6.13050215934830        3.76035386975488       -2.23272855695873
H           -5.86615610071888        3.45938329385866       -4.02668959924245
H           -5.13479557532099        4.87790991548477       -2.98314551356402
C           -1.38192942069774        3.73616555005018        2.91232598411686
C           -1.84821468128685        2.59982427735607        3.49755545445181
C           -1.05946531454833        2.05730632010638        4.60922730982276
C            0.19893954712228        2.69376791964407        4.86302140881997
C            0.50425395911860        3.94630308659851        4.28768785650746
C           -0.26031777722226        4.46998310053134        3.25072669343212
C           -1.20488993561782        0.74454293276906        5.14851520323437
C           -0.06287609782692        0.02744069315890        5.60930570802864
C            1.19208754369866        0.71421540266195        5.78882868583885
N            1.19428660993148        2.06344359410476        5.62744624321596
C           -2.41361422770794        0.07928500213936        5.25249410304426
C           -2.45851584031083       -1.32662100968547        5.60237876023992
N           -1.29466212405906       -1.98318595734370        5.89916817085159
C           -0.14475655767527       -1.32117560077092        5.98824682881008
C            0.97209270935794       -1.98958449505532        6.53157704134458
C            2.21982707914082       -1.36973967291181        6.68703967237737
C            2.30561929262884       -0.09745313075593        6.26436900324455
C           -3.73018485967715        0.71367583494582        5.25810242262992
C           -4.89964478833448       -0.06184623426677        5.21204641615509
C           -4.82617965800088       -1.39228978090841        5.46901303780036
C           -3.67144193418464       -1.98914944386360        5.67265433266067
O           -3.75568638935321        2.07705011038914        5.52067969627343
O           -2.94192434743730        1.91263938797883        3.01658762327703
C            0.21273512614467        5.50086066357994        2.34765104514621
C           -6.06660304520411       -2.17604633098929        5.80641622556876
H            1.41756699010566        4.38133362238595        4.66974005703471
H           -1.82880610647429        4.11982501512100        2.06992133318584
H            3.26888037378556        0.32655662585251        6.31721410015598
H            0.87146188387207       -3.08471526305024        6.57830423410869
H           -3.67716811065157       -3.05999292755990        5.83019634570050
H           -5.77379677507622        0.43595144608221        4.71017130754348
O            1.34459852619901        5.82615848916894        2.44941456579099
O           -0.74718748219123        6.07961784856304        1.59848183464284
C           -0.21473095568964        7.24015934882472        1.05753806029483
C            3.53228080814219       -2.00967610361154        7.02506769044485
O            3.64093082622715       -3.14437803815732        7.50071391725347
O            4.56565258381079       -1.22937033368332        6.69086985080897
C            5.72579357310716       -1.80692399125161        7.22246151275881
O           -7.04801223588612       -1.95726935745904        5.14194115322235
O           -6.01514389321278       -2.93743591896022        6.94765316328794
C           -7.21292732384718       -3.62681918543340        7.15115816329978
C           -4.95459780685163        2.65960679932188        5.86868674392943
C           -3.68284113682406        2.59129188358641        2.05479246020704
H           -7.43119628931628       -4.22607794725959        6.20622607140901
H           -8.06548455146707       -2.91765848248592        7.29781126410398
H           -7.07314693247270       -4.33087306029711        7.91223421050944
H            6.57332189837178       -1.29353136199234        6.78341268688262
H            5.74663761932316       -2.84282155125561        6.88089468184451
H            5.69426191474290       -1.72781984964892        8.29460302186842
H           -4.10481209541493        3.44288266176275        2.60483747673152
H           -4.49244774344916        1.87419893016926        1.82433103764650
H           -3.18901540870812        2.85154642679373        1.06781919454921
H           -5.55414326821421        2.76698137191684        4.93950725322359
H           -4.78658370641210        3.62090640967288        6.25983200635257
H           -5.43485580473958        1.97242995129449        6.65265772412460
H            0.89164886030839        7.38838561720231        1.13776105146914
H           -0.62894889903848        8.04195665205089        1.64837664327952
H           -0.59282546386754        7.45699159724320        0.03719083132488
116
 energy: -22.620450827344 gnorm: 0.541276381857 xtb: 6.6.1 (8d0f1dd)
C           -2.96095134754254        1.07934621355060       -0.59535094506833
C           -2.22130447264954       -0.14220323207921       -0.18083048092707
C           -0.96511476151938        0.01286981679211        0.49306594899992
C           -0.38715519283553        1.40930984136169        0.59718589045784
C           -1.32048344115913        2.41500481672945        0.35738470865191
C           -2.51828036287140        2.38107288394401       -0.34243746488250
C           -0.52783415583780       -0.98946899648174        1.50666892896154
C            0.77356061745838       -0.64209015727742        1.86363676001453
C            1.58035531221616        0.49455490493980        1.41855513859253
N            0.98768590881044        1.62205408358654        0.87341723329830
C           -1.38808414690459       -2.08132794671661        2.02743760469742
C           -0.64286817327028       -3.02162119362160        2.74644187279816
N            0.66062232978401       -2.84240226386009        3.03957329920338
C            1.28994806194042       -1.60106826864329        2.85187371883956
C            2.71189511954664       -1.38050519731714        3.13916342651684
C            3.52075767494263       -0.45622024678585        2.58050627869387
C            2.88978637760361        0.49722362546435        1.84971291097713
C           -2.80377878528443       -2.25527635345070        1.98870118221148
C           -3.41935561563412       -3.55887067141334        2.34646505012800
C           -2.55136519157272       -4.45656970091134        3.05530853262052
C           -1.18050372417425       -4.23618650640449        3.24782074372399
O           -3.52165262294658       -1.10355246269980        1.48649074960058
O           -2.61933488071275       -1.29622846162350       -0.87985080590043
C           -3.29944566483660        3.63020918044233       -0.78576373952432
C           -3.23912774573296       -5.65345570754872        3.78346012970372
H           -0.98141469109773        3.48490952569187        0.39504717454352
H           -3.97027441296576        0.89421197287631       -1.07262428214348
H            3.44434650923187        1.40870852859689        1.62670678858406
H            3.25707338138595       -2.03327230182820        3.83550976979064
H           -0.73533892658511       -4.81456495555812        4.02786729105197
H           -4.36779742778622       -3.74583568471727        2.13231096153943
O           -3.82295558325663        3.76190865890790       -1.87950410177426
O           -3.67231115366046        4.48974267465136        0.31166362204966
C           -4.37733485633972        5.66004861220684       -0.14083536714969
C            4.93132279721536       -0.40809525676036        2.98459874339260
O            5.30379737225187       -0.78504516933669        4.11672447996662
O            5.88514467432620       -0.17693917033297        2.05106364732795
C            7.16238314762367        0.11339037024467        2.77871140525643
O           -4.15896838326447       -6.38745157424273        3.29797738578958
O           -2.69102181913261       -6.01906894642517        4.94927496124113
C           -3.40655831416197       -7.01484782697247        5.72798351871174
C           -4.72938051684630       -1.29639813341904        0.81737854672532
C           -1.58107377877258       -1.92857032574145       -1.58535006764774
H           -4.24631224202750       -7.65788093498003        5.48796732486827
H           -4.32045052129955       -6.63089131431275        6.35912233775960
H           -2.71093591935960       -7.53014661205115        6.37098926567706
H            7.23570892764715       -0.70377060295849        3.54392951134803
H            7.39170294683282        0.94134078657892        3.34403563555683
H            7.84512601086890       -0.19432226529476        2.07590541116006
H           -1.70291284234362       -2.84755280779062       -1.10580654030772
H           -0.79479952559448       -1.49527339362065       -1.14734750006520
H           -1.82014941072029       -1.71351251057613       -2.62689578473919
H           -4.79530574114057       -2.41076575703827        0.75128112795015
H           -4.47151892131360       -0.92822458645681       -0.15880130663644
H           -5.58917891397299       -0.82491402901396        1.37298813964516
H           -3.76747219918545        5.93751194558013       -0.91461248485436
H           -4.18347874133465        6.42236737927115        0.58551151576028
H           -5.32055174332343        5.45537931005199       -0.50000513395780
C           -2.38042162638664        4.09755678946984        3.13083401948616
C           -2.54051323150329        2.92333389227100        3.99354912365638
C           -1.48283938926879        2.67040528538904        4.96269533180525
C           -0.34125180396621        3.54238417128024        4.86963535440517
C           -0.21014326740907        4.59226536642585        3.93930867112553
C           -1.21486888793319        4.82115846654208        2.95283101825142
C           -1.46078056543576        1.46624515572771        5.67804064994691
C           -0.17886336440312        1.00071200945660        6.12173113498203
C            0.88630682541165        1.90019234328381        5.89670527541648
N            0.89999615905300        3.13942641797163        5.33505928930767
C           -2.56789965953607        0.55115023076622        5.79248985160824
C           -2.08864334752875       -0.85866798095295        5.84719181436678
N           -0.93754636465466       -1.30834166786030        6.32338994222562
C            0.05564708331577       -0.36778182714396        6.54056607295124
C            1.30864630868066       -0.63479250385967        6.97239877720979
C            2.36012671541019        0.27533069997902        6.98233849739967
C            2.20052457912471        1.38939143980469        6.16935600851220
C           -3.98497992115315        0.82986789540021        5.85707096045666
C           -4.91078947806000       -0.12287761207105        5.23627982480262
C           -4.53144014791651       -1.43371986138164        5.44789583314223
C           -3.17769759125189       -1.76491798953778        5.52793547569500
O           -4.48836636197750        2.05135967294169        6.45746487110625
O           -3.61105849116271        2.15863478412841        3.85412094526474
C           -1.26691360113995        6.01291034644353        2.06471500607141
C           -5.59769597752711       -2.47724563266517        5.31580306157561
H            0.54315283990039        5.36748553434874        4.04464747187240
H           -3.01143728310646        4.54961491378502        2.58345745832777
H            3.10152621708614        1.96123162715451        5.90180518922130
H            1.45074850402952       -1.58503171051637        7.50125667058200
H           -2.85728172804138       -2.76109282452781        5.69868722436201
H           -5.92623142558893        0.14741160357898        5.22380677660031
O           -2.21445167097062        6.74098889214691        1.96299750391925
O           -0.16865754553585        6.23737968036099        1.21116541228399
C           -0.59418317829777        6.61767416108464       -0.08996844484223
C            3.62360279851888        0.01047097070770        7.54907827838668
O            3.80776186565928       -0.86524055085947        8.36845266766885
O            4.72615443480603        0.66328978537415        7.20774871686840
C            5.83225608910716        0.14644125449927        7.84607393941048
O           -6.64328989378832       -2.19455981337165        5.82130221287333
O           -5.59510715513425       -3.25054533915430        4.17166815351547
C           -6.56117876633830       -4.24461465312223        4.42049618024445
C           -5.39720703378150        2.01608129084205        7.52343952036918
C           -4.15530447737389        2.39221432963511        2.65695339952921
H           -6.93449875324032       -4.40462060204351        5.45342219027678
H           -6.41623938274919       -5.16381186992242        3.94807045237158
H           -7.46228000170465       -3.64354622296091        4.07193605097041
H            6.17608287218196        0.68242580097842        8.79137617878267
H            6.68206464870387        0.03999943565619        7.10577228505322
H            5.62392117035908       -0.94333252557483        8.19516326787375
H           -4.79874710450120        1.56986806778158        2.37724018286214
H           -3.49620616443166        2.36859236252483        1.79296459098338
H           -4.88307716542347        3.17618745962857        2.69218539453221
H           -6.41290154194377        2.38170122501000        7.43985756405503
H           -5.02221180641865        2.66749688105186        8.28295805078652
H           -5.69004318237912        1.10940654717392        7.99325723197321
H           -1.71472277698484        6.68614675529134       -0.19352723921922
H           -0.38629819669870        5.88098216026768       -0.89848167726908
H           -0.11427488910759        7.38144822371025       -0.61047245263196
116
 energy: -22.661817342027 gnorm: 0.484293213151 xtb: 6.6.1 (8d0f1dd)
C           -2.78949166354785        0.84793120372498       -0.05516633315187
C           -2.22585709540936       -0.16561724780187        0.59923328890650
C           -0.99359546691624       -0.00932782287410        1.45161995484208
C           -0.31461516909926        1.24430568750389        1.27334458517783
C           -0.87185470823253        2.20606531798517        0.39074603490231
C           -2.03998074181495        2.03378245014646       -0.31500035545581
C           -0.50799816907951       -1.18884797868289        2.16267100180867
C            0.89450013328600       -0.91708484587042        2.47359139397379
C            1.45269715158342        0.32046706857146        2.16157781868727
N            0.95441635994445        1.39587185389467        1.60019628293107
C           -1.11703588034625       -2.47412232651226        2.48311947956101
C           -0.28319544456782       -3.40325007317866        3.03914815016351
N            0.99038184313418       -3.20619902536044        3.41978432631890
C            1.64768754457935       -2.01741062543461        3.02992732988190
C            2.97834316034750       -1.72635427783337        3.26400552935251
C            3.70736577122048       -0.59793273507980        2.97958640986834
C            2.88079210551702        0.35103634622029        2.38700983228701
C           -2.47312538058427       -2.72088439738549        2.74937114957883
C           -3.01949815014079       -4.01715353263244        2.98241660933285
C           -2.14560208506995       -5.03653696127683        3.29459611793496
C           -0.81252476198753       -4.71601674730771        3.30253124402549
O           -3.36496314854756       -1.71207664704837        2.99219848706213
O           -2.64892843608448       -1.43700995620297        0.38640940289624
C           -2.58437681271982        3.18711932054650       -1.31915862281566
C           -2.51421385339814       -6.45205462585106        3.31951995400051
H           -0.39292516569385        3.16307852097990        0.60959215227930
H           -3.85385359767515        0.88337464978846       -0.36825864995537
H            3.40171201782500        1.22533203546462        2.09192516498271
H            3.61609866580278       -2.54621815624298        3.78377241521935
H           -0.10337970117124       -5.54080166923221        3.31072795291349
H           -3.94874001337716       -4.35907246288916        2.81611597926108
O           -3.78004807011574        3.45532616139546       -1.28042800528948
O           -1.59310174632133        3.65704451885311       -2.09323343034018
C           -2.14096302684190        4.52137417865408       -3.05464154788241
C            5.12961543433340       -0.43542388821854        3.25485270612636
O            5.39013301009019       -0.12188806263311        4.39061198233164
O            5.97391879893314       -0.72399711392976        2.23246298039786
C            7.23975725353942       -0.51893734651889        2.58942777689320
O           -3.71547973652276       -6.75762884198704        3.17454367381458
O           -1.56008712974041       -7.49405429240431        3.34393285188232
C           -1.98310965178840       -8.79741114103675        3.12573263857890
C           -4.75323165451858       -1.98141186180300        2.85170444703866
C           -3.39373928230767       -1.71832363916093       -0.81532736801964
H           -2.36718628131027       -8.51753151312116        2.08629835945529
H           -2.77724096211643       -9.12589513416239        3.91090180633410
H           -1.38207384924113       -9.47421606753194        2.43014105768766
H            7.93238003593359       -0.81290046713198        1.68965803384555
H            7.58474167162623       -0.76090113603639        3.67599786083423
H            7.13685570623472        0.54066704209180        2.62481704218445
H           -4.13488982159240       -0.94754079521312       -1.17333917613966
H           -3.87237321692651       -2.75192150424501       -0.92856466116568
H           -2.85456507332699       -1.59994044327347       -1.76551190837854
H           -5.03767485142939       -2.38170869662596        1.82955747110815
H           -5.04456355331663       -0.89435781886996        2.96555134015950
H           -5.07422562744646       -2.50330020433612        3.75242383913460
H           -2.57860974086448        4.20172735637006       -4.05753556319559
H           -1.51410806515797        5.35986756703620       -3.30496234455309
H           -2.94524937104143        5.03323040952629       -2.44919116334712
C           -2.83942746194948        4.50191022735847        2.72092983428982
C           -2.77296164384447        3.17688358998648        3.04160907065381
C           -1.68071297287929        2.82359338278286        3.99867333145883
C           -0.53614186452070        3.67654699296280        4.10820746635333
C           -0.57023415579929        4.89138530286865        3.45224955547501
C           -1.70781090554616        5.29295185549499        2.79733287942871
C           -1.70380701453956        1.64629567241242        4.80673949717997
C           -0.39616637226241        1.27699440627087        5.43336436051079
C            0.64871889012674        2.16027157343116        5.32047837755359
N            0.54628570169837        3.43879765543286        4.81534916999987
C           -2.85637118462395        0.92057152029286        5.31854318805182
C           -2.51851528733340       -0.41771822410856        5.62634526471848
N           -1.29791005226030       -0.85240851305244        5.99885514174267
C           -0.22319462771586       -0.02122180630625        5.93209439340112
C            0.94924955303475       -0.54143455997722        6.40736376876424
C            2.04561664936059        0.30243218980579        6.20956608148757
C            1.89923715382843        1.58387100634588        5.66592304557007
C           -4.24256508048788        1.37365741554924        5.28491571751249
C           -5.28641620542218        0.28359357138089        5.47383323424370
C           -4.83970806913549       -0.89705669044101        6.02912003664320
C           -3.53838786373503       -1.27151525490528        6.04525047890202
O           -4.61892025467339        2.68283334870638        5.47764058788701
O           -3.56393361170702        2.00188313728053        2.81483821065642
C           -1.74733470046972        6.74868121632915        2.54320166260299
C           -5.94906204716287       -1.96164847641804        6.13149034465734
H            0.12410963131516        5.64813785821102        3.49678933835314
H           -3.78359370050168        5.04318692065146        2.62516028740841
H            2.85757848356619        2.13583384977392        5.29241043248399
H            0.75514771530196       -1.56595979414780        6.90042159245397
H           -3.25865896513854       -2.30407776317595        6.12011042090415
H           -6.30556744482860        0.62862906326483        5.32915981548487
O           -2.13760400996752        7.31086455059930        1.50951535860460
O           -1.15385742643818        7.50671859873764        3.49842212924851
C           -1.29530313658010        8.83469525969116        2.93906681434320
C            3.31334907604063       -0.42927205961733        6.64023880795527
O            3.29196701905070       -1.63686369526932        6.75688236956101
O            4.33195902351818        0.49275256564435        7.15018725417250
C            5.56468023832288       -0.08507391170002        7.79747222361322
O           -5.58395196212386       -3.05325159937266        6.49564070157805
O           -7.24941413012545       -1.59939058175359        5.67608369425844
C           -7.97217072189374       -2.73410317833795        5.70182709979667
C           -4.05248367579765        3.21889856304318        6.69206462656305
C           -4.86735442268032        2.25101010519148        2.41709925106178
H           -7.51209180329025       -3.56893212951063        5.09527302933342
H           -8.65316795430205       -2.73065226599726        4.73399237805784
H           -8.49080335777272       -3.14029708208868        6.66743177546774
H            5.34627448087787       -0.95669762737722        8.25925465836279
H            5.99845200104893        0.67692485180221        8.48167341165356
H            6.10574836007045       -0.33952884851604        6.90842142330446
H           -5.32370719500391        1.28665306032022        2.13943976061704
H           -4.94451113143031        2.97792833190169        1.63680162006199
H           -5.31705227072832        2.72550326122014        3.27847287816735
H           -4.91934132628896        3.50803064332457        7.18433183194367
H           -3.20182831493336        3.86831378843242        6.47059168122757
H           -3.89154348841383        2.20873961225855        7.23518583661295
H           -0.68965078350657        9.74633921394564        3.22424514503960
H           -2.40630174548201        9.09401678052697        3.11612447940620
H           -1.45882126170684        9.07689487688852        1.85062438101651
116
 energy: -22.703729174782 gnorm: 0.496587605560 xtb: 6.6.1 (8d0f1dd)
C           -2.42805949653251        0.05412869937996       -0.48947257035499
C           -1.78952899440138       -1.03370144709331        0.19796764721074
C           -0.82231049940646       -0.63344776580137        1.19816339236965
C           -0.38441625661838        0.75641304112409        1.17525100929421
C           -0.93017796732317        1.72500865516634        0.44615906399897
C           -2.02281561198547        1.39022588611407       -0.43803912471474
C           -0.14815065926643       -1.55366134449087        2.05947089706640
C            1.11301590045919       -1.31648010220283        2.52987371935082
C            1.57797734060710        0.05777397331538        2.16991278834231
N            0.84941412059733        1.05777066836826        1.62752523066457
C           -0.59384230134268       -2.82470070946363        2.23597110724854
C            0.41378332287853       -3.88301054213938        2.61958796571842
N            1.80105941052952       -3.64710931002483        2.67590028194928
C            2.03702856469684       -2.41153037197115        2.91138395602696
C            3.32734029048370       -1.99268558611463        3.20571584867248
C            3.67612663391887       -0.75512698709456        2.87672854696347
C            2.87943133185979        0.26803269714197        2.34210000030550
C           -1.97732677044132       -3.17593694165737        2.32140024633603
C           -2.42535696495534       -4.51178139744188        2.51624856511655
C           -1.39630732445692       -5.48505618758118        2.61765047872463
C           -0.02481901426355       -5.23109034034754        2.63896941610872
O           -2.82856198634520       -2.01555053125599        2.35823294394801
O           -1.95509441696135       -2.30732507566410       -0.07612683386845
C           -2.58125185142244        2.50869696471965       -1.21698799819705
C           -1.63832398512706       -6.98890222134264        2.73523078325792
H           -0.90789160093120        2.80993780210484        0.53433833991717
H           -3.14880793863837       -0.03899821252070       -1.26915685778714
H            3.31882032995029        0.99011579754947        1.68429539001894
H            4.38057808056673       -2.53239060084010        3.26653938679184
H            0.64134888860533       -6.04576984698559        2.52843952526552
H           -3.44938891893046       -4.85097882145161        2.37581440656961
O           -3.36337298880378        2.46076029849522       -2.14613650722536