116
 energy: -22.928061455056 gnorm: 0.329736929581 xtb: 6.6.1 (8d0f1dd)
C           -3.31122850772930        0.79849766164622       -0.92477639677520
C           -2.44380812530352       -0.12270372891954       -0.27661132624697
C           -1.41337090092821        0.39579727573559        0.56335275196199
C           -0.89266158675590        1.65801491088749        0.27377586709581
C           -1.72665675402493        2.51431363229076       -0.49448366572522
C           -2.95444148494349        2.13954154133227       -1.01494489940871
C           -0.74098268209890       -0.43411532818871        1.49825021926784
C            0.56872586496315        0.03782116815119        1.86248088067890
C            1.03782416582094        1.29402317993033        1.50887470833621
N            0.31238977034758        2.07067427098208        0.65193736800696
C           -1.29695700510141       -1.39996043042223        2.41574187746061
C           -0.38243517664656       -2.18060797534842        3.13232615520648
N            0.91308504082021       -1.90366887689689        3.30325166013478
C            1.37712470144904       -0.74872102533751        2.81811050966982
C            2.52149331701875       -0.17739833758153        3.39379298866852
C            2.95849061756259        1.02681208890480        2.95105897606587
C            2.24288949469137        1.78498308775960        2.03503020483770
C           -2.74860936222260       -1.74497937691422        2.38401158947411
C           -3.09416315450955       -2.91614440870436        3.00571134491758
C           -2.16786021984049       -3.77788778654213        3.63251872101904
C           -0.85708937311598       -3.40495313382985        3.68547234358092
O           -3.71994433332149       -0.94984598373544        1.67726658385724
O           -2.55702603277562       -1.47241711578389       -0.57241635275616
C           -3.84297843593025        3.13357444054366       -1.60938954875544
C           -2.68769581069131       -5.03867041417370        4.30484659386931
H           -1.39666850744143        3.51251503834900       -0.76806311868865
H           -4.27662633836220        0.55105838579656       -1.33106614114542
H            2.66329581305412        2.73912661909249        1.72562431984580
H            3.05775395548473       -0.69369546277216        4.16536137542516
H           -0.24710966264510       -4.12034095424229        4.22946223699121
H           -4.11477991332403       -3.04712728052358        3.03244694615357
O           -4.21824883374556        4.03433712717988       -0.87713382485991
O           -4.44510595673734        2.90643496899600       -2.81853501752979
C           -5.44216520282800        3.83300025693726       -3.02488532025093
C            4.23586651889298        1.50004220933226        3.59165660008449
O            5.05927614697201        0.66079890002952        3.91714215179376
O            4.47001334453535        2.86385149488593        3.72605651435371
C            5.79457498613219        3.08584475587818        4.15829123132174
O           -3.82227255313510       -5.27347675879771        4.16636005494405
O           -1.85023202017753       -5.79767454267276        5.06656077253571
C           -2.55119635829503       -6.86252441382958        5.62930343183426
C           -5.07197156564436       -1.42399175670916        1.58830531863830
C           -1.33089900128490       -2.23622472573986       -0.99264499351172
H           -2.54510546830388       -7.76426885143998        4.99136022291012
H           -3.57194749219491       -6.44405511486021        5.74196173723541
H           -2.09133598235598       -7.02043774843818        6.64022264233588
H            5.72707967266424        3.46798026205549        5.10135971236643
H            6.34060091246885        3.78468702308830        3.50069950143490
H            6.17933064298187        2.03010500085905        4.19342358084693
H           -0.91862729772622       -2.57650129080332       -0.01361370304871
H           -0.49769766914251       -1.60651221708571       -1.34094446550576
H           -1.52632419730509       -2.94569707152159       -1.75361447637286
H           -5.11788846557077       -2.41810833635233        1.17520213188926
H           -5.67929807973498       -0.69619639428435        1.04301666067831
H           -5.57598832326623       -1.42383358739762        2.57928294206544
H           -6.13050215934830        3.76035386975488       -2.23272855695873
H           -5.86615610071888        3.45938329385866       -4.02668959924245
H           -5.13479557532099        4.87790991548477       -2.98314551356402
C           -1.38192942069774        3.73616555005018        2.91232598411686
C           -1.84821468128685        2.59982427735607        3.49755545445181
C           -1.05946531454833        2.05730632010638        4.60922730982276
C            0.19893954712228        2.69376791964407        4.86302140881997
C            0.50425395911860        3.94630308659851        4.28768785650746
C           -0.26031777722226        4.46998310053134        3.25072669343212
C           -1.20488993561782        0.74454293276906        5.14851520323437
C           -0.06287609782692        0.02744069315890        5.60930570802864
C            1.19208754369866        0.71421540266195        5.78882868583885
N            1.19428660993148        2.06344359410476        5.62744624321596
C           -2.41361422770794        0.07928500213936        5.25249410304426
C           -2.45851584031083       -1.32662100968547        5.60237876023992
N           -1.29466212405906       -1.98318595734370        5.89916817085159
C           -0.14475655767527       -1.32117560077092        5.98824682881008
C            0.97209270935794       -1.98958449505532        6.53157704134458
C            2.21982707914082       -1.36973967291181        6.68703967237737
C            2.30561929262884       -0.09745313075593        6.26436900324455
C           -3.73018485967715        0.71367583494582        5.25810242262992
C           -4.89964478833448       -0.06184623426677        5.21204641615509
C           -4.82617965800088       -1.39228978090841        5.46901303780036
C           -3.67144193418464       -1.98914944386360        5.67265433266067
O           -3.75568638935321        2.07705011038914        5.52067969627343
O           -2.94192434743730        1.91263938797883        3.01658762327703
C            0.21273512614467        5.50086066357994        2.34765104514621
C           -6.06660304520411       -2.17604633098929        5.80641622556876
H            1.41756699010566        4.38133362238595        4.66974005703471
H           -1.82880610647429        4.11982501512100        2.06992133318584
H            3.26888037378556        0.32655662585251        6.31721410015598
H            0.87146188387207       -3.08471526305024        6.57830423410869
H           -3.67716811065157       -3.05999292755990        5.83019634570050
H           -5.77379677507622        0.43595144608221        4.71017130754348
O            1.34459852619901        5.82615848916894        2.44941456579099
O           -0.74718748219123        6.07961784856304        1.59848183464284
C           -0.21473095568964        7.24015934882472        1.05753806029483
C            3.53228080814219       -2.00967610361154        7.02506769044485
O            3.64093082622715       -3.14437803815732        7.50071391725347
O            4.56565258381079       -1.22937033368332        6.69086985080897
C            5.72579357310716       -1.80692399125161        7.22246151275881
O           -7.04801223588612       -1.95726935745904        5.14194115322235
O           -6.01514389321278       -2.93743591896022        6.94765316328794
C           -7.21292732384718       -3.62681918543340        7.15115816329978
C           -4.95459780685163        2.65960679932188        5.86868674392943
C           -3.68284113682406        2.59129188358641        2.05479246020704
H           -7.43119628931628       -4.22607794725959        6.20622607140901
H           -8.06548455146707       -2.91765848248592        7.29781126410398
H           -7.07314693247270       -4.33087306029711        7.91223421050944
H            6.57332189837178       -1.29353136199234        6.78341268688262
H            5.74663761932316       -2.84282155125561        6.88089468184451
H            5.69426191474290       -1.72781984964892        8.29460302186842
H           -4.10481209541493        3.44288266176275        2.60483747673152
H           -4.49244774344916        1.87419893016926        1.82433103764650
H           -3.18901540870812        2.85154642679373        1.06781919454921
H           -5.55414326821421        2.76698137191684        4.93950725322359
H           -4.78658370641210        3.62090640967288        6.25983200635257
H           -5.43485580473958        1.97242995129449        6.65265772412460
H            0.89164886030839        7.38838561720231        1.13776105146914
H           -0.62894889903848        8.04195665205089        1.64837664327952
H           -0.59282546386754        7.45699159724320        0.03719083132488
116
 energy: -22.854674839954 gnorm: 0.439352803323 xtb: 6.6.1 (8d0f1dd)
C           -3.37475181189652        0.86987468169705       -0.90523955789212
C           -2.65711162702009       -0.09984254827553       -0.16700622611952
C           -1.55674217113687        0.26916791031916        0.68312449459183
C           -1.11768576623286        1.60871849891181        0.61289166209702
C           -1.77383062537706        2.54139096210344       -0.25159045100185
C           -2.88824112539512        2.14597012326135       -0.99784671099077
C           -0.96546187564110       -0.51476157042933        1.72984821517451
C            0.33193276862951       -0.16289692913931        2.09713605357764
C            0.79418055973532        1.11081286145488        1.85632298061502
N            0.00995203369697        2.10232360443403        1.29854827879305
C           -1.55471076942555       -1.70267159665781        2.34627418821678
C           -0.65781891604895       -2.64605504527742        2.99542294325552
N            0.66405105957902       -2.27596234540831        3.12512500127408
C            1.16885500093871       -1.12966604288544        2.71121644071660
C            2.48645976887215       -0.74527451142197        3.00371259958551
C            2.95802566727050        0.50660645191376        2.89241711521084
C            2.08773120968376        1.38247483340007        2.34846954143060
C           -2.93207088478442       -2.00871524950515        2.31298379914895
C           -3.33816165723469       -3.26628219301010        2.86097429087909
C           -2.42307324684018       -4.10773507725677        3.41109325094407
C           -1.07068672826336       -3.84811855999903        3.43623785646485
O           -3.78889061341712       -0.96506551015493        2.03239367482161
O           -2.84131226798877       -1.50771736444918       -0.54212543825886
C           -3.55941588050478        3.32447294785135       -1.63093201365897
C           -2.75771381493237       -5.33151712313315        4.20692194193937
H           -1.42684898881644        3.50178363318087       -0.36786773870662
H           -4.27663407332555        0.53044429260402       -1.35645308880263
H            2.36311167050216        2.41391474247820        2.22282820171955
H            3.06077157896062       -1.41030402848317        3.64499054885222
H           -0.46931746232364       -4.39735905607523        3.97988302828708
H           -4.39627260139603       -3.41447822771206        3.01964829318654
O           -2.93749712540170        4.25356314228513       -2.10042430737244
O           -4.90899573636702        3.09878666245781       -1.75755472258149
C           -5.44023174669569        4.23407869398902       -2.43067588935545
C            4.27919585211008        0.84428328739761        3.43974085398558
O            4.88748986326334       -0.03463797094984        4.13756006876177
O            4.64425933510442        2.17563910250896        3.36220560333059
C            5.88864265516523        2.46316543381752        3.98750644142780
O           -3.87387985288155       -5.89646300206593        4.05529538139061
O           -1.91955805345418       -5.55410899941367        5.20688605980112
C           -2.33248664868738       -6.53496663763285        6.15237392488512
C           -5.05337085588181       -1.40647928637052        1.56095113260296
C           -2.57271821771166       -1.85002146383995       -1.83361020071473
H           -1.86365295617095       -7.48986108130587        6.01289651512953
H           -3.33461711993027       -6.71897149744349        5.92958988430349
H           -2.36478300775711       -6.18276516580793        7.13544694625287
H            6.54388370133374        1.81686289879604        3.37206369904913
H            6.11763696512505        1.99646348879372        4.91705897182179
H            5.97669818212970        3.57529789905268        3.96893452025099
H           -2.04796836981050       -2.81095567268646       -1.88784631413635
H           -1.98390144653024       -0.95176921424797       -2.35570861819276
H           -3.48098542680431       -2.09982972259078       -2.34456489032396
H           -4.66730446445392       -2.16876924045920        0.79834611383667
H           -5.58403897099763       -0.60556605335322        0.98802019908395
H           -5.56495301972413       -1.81445845394735        2.42173810546128
H           -6.24933318864458        4.64883343522349       -1.81271011495184
H           -5.66409490383060        3.86886665102095       -3.41298487898292
H           -4.76493451866745        4.98069194412688       -2.46668355477221
C           -1.71191059729921        3.85794408530030        3.11038720082351
C           -2.00421042441850        2.78058601362181        3.94985935010371
C           -0.93027082208361        2.39697668483631        4.80028164863295
C            0.34150918420363        3.03254864142220        4.80006906066214
C            0.57486268290347        4.10690195098387        3.99089964247717
C           -0.46174399415659        4.49776754407579        3.10743160417948
C           -1.04640477598247        1.17397627426457        5.53090028913120
C            0.13528831624855        0.43109633154387        5.75313919330129
C            1.27885538807132        1.23983215249258        5.82476295625629
N            1.37773112527080        2.56720379268557        5.54389569446512
C           -2.24869440404639        0.40080942365114        5.84128288669338
C           -2.04356240605394       -0.96382402788582        5.65698647215162
N           -0.89364314951020       -1.69462002247445        5.85093308008832
C            0.21194075110893       -0.97911746530628        5.93050050092589
C            1.41827086174458       -1.51160580814070        6.36318227186758
C            2.56039217421712       -0.79794630130025        6.52316508559373
C            2.49213267067676        0.60926684451853        6.31627821216241
C           -3.58374009474535        0.91957878509158        6.23988640577319
C           -4.65101123764960        0.10207629010066        5.93576110111485
C           -4.46709526927616       -1.16119252474701        5.39808134166530
C           -3.16291998380318       -1.73156213324418        5.44552174015782
O           -3.68477009765844        2.30270495896701        6.65353908054589
O           -3.31843194354485        2.30364951141178        3.72965742604451
C           -0.12678819898319        5.47021468223888        2.12990319292564
C           -5.58403015651536       -2.05594405914681        5.17328620446907
H            1.54865775837116        4.55130065958786        3.92266653817859
H           -2.44540817401855        4.19008625981622        2.42744604259040
H            3.36921985597158        1.19272089219217        6.38528582998757
H            1.40560217374155       -2.52871561440152        6.61857994263898
H           -3.02841453465692       -2.79603927005359        5.34392889876151
H           -5.68226000568875        0.53056727116784        5.84346968607191
O            0.94380034158806        6.06182091417394        2.23869999856548
O           -1.05278505330185        5.65544694439446        1.15535773476449
C           -0.48135773046925        6.39852998090630        0.16594548047410
C            3.77701228851489       -1.52983041283389        7.12891355938921
O            3.59876655564636       -2.72468939553442        7.28334954861125
O            4.82202301152112       -0.70243390415847        7.56635161032870
C            5.60817526786000       -1.51138413108058        8.29216899639288
O           -6.73969335564983       -1.56126632530290        5.42477275103921
O           -5.34201837463823       -3.32035298218068        4.82954956378767
C           -6.49106945192319       -4.09262883539028        4.86206901569485
C           -4.95251553579141        2.92699497632869        6.53029849771733
C           -4.02727774131912        2.10206749126080        2.41658727262199
H           -6.74694406652697       -4.51623710067826        3.86660448950990
H           -7.32714169382058       -3.55873937758149        5.14811862392430
H           -6.22065879224331       -4.96102370055001        5.53250941221083
H            6.45363072878132       -0.91742193359666        8.53193321572068
H            6.05089393111196       -2.31499034879251        7.72342679364978
H            5.03970945815963       -1.93149158855600        9.22311368210319
H           -4.35838582811972        2.89678956007769        1.68179799259934
H           -4.95433188607705        1.50018485415053        2.67311082811959
H           -3.36536606669943        1.32438115804818        2.01592558921702
H           -5.30237037991796        2.85240827471540        5.57228330809400
H           -4.88777577545529        4.03760670382405        6.77445799777281
H           -5.59970111679687        2.60264507091822        7.23325396085190
H            0.08146957682716        5.72117045828895       -0.52976934679757
H            0.39593943893740        7.10197932275050        0.59957970799023
H           -1.30763206215323        7.08120703050787       -0.27967353264365
116
 energy: -22.837737082645 gnorm: 0.431739870239 xtb: 6.6.1 (8d0f1dd)
C           -3.31666123149671        0.92873135116594       -0.60414377778745
C           -2.56778390175619       -0.06809119039219        0.03348308923719
C           -1.36474209101957        0.26890207734768        0.77527905508751
C           -0.69250211422999        1.43442616018511        0.33465393758586
C           -1.44747063162245        2.41324065860172       -0.28699201708024
C           -2.77033686862740        2.28871809461070       -0.65783439431480
C           -0.75219376336453       -0.49466288794687        1.79606343843757
C            0.64837918431341       -0.32721154811285        1.94309269526823
C            1.25947371098659        0.90360763701598        1.48410317543582
N            0.62027165373407        1.79912961399640        0.69957757278840
C           -1.26338019220432       -1.62934322020296        2.52969688502211
C           -0.38120930749430       -2.61743923286297        3.11332350380827
N            0.99056013683542       -2.44422128495050        3.22970802758729
C            1.43008234555206       -1.25896644046353        2.78447138361356
C            2.68610871812197       -0.76972833234900        3.18420747547583
C            3.30614150651463        0.38338662905821        2.71708175385315
C            2.62062545054967        1.14202615546443        1.79343313639921
C           -2.69147048895350       -1.77537667639019        2.53627872446596
C           -3.18546674079880       -3.05047107694222        2.81613890891011
C           -2.34429845078327       -4.00392147546339        3.33683947717909
C           -0.98647051880421       -3.87567064427337        3.43923926057064
O           -3.51918266074646       -0.70891412106940        2.26570062852532
O           -3.01880461389398       -1.41979951160489       -0.23557148877692
C           -3.49386170732183        3.40607055563908       -1.30418185344146
C           -2.89036283206549       -5.36901373006320        3.70150723669546
H           -1.03900023963389        3.35589031681692       -0.44098360248355
H           -4.28989320425015        0.77736653806814       -0.99424854809207
H            2.98733849266577        2.10826821181720        1.48676291047852
H            3.26074224215604       -1.39065043603500        3.94790087028616
H           -0.22267125966931       -4.60295145494683        3.61122374425653
H           -4.19900055306934       -3.29046546536444        2.60317564113668
O           -3.05662648420933        4.54156628301697       -1.35638376900449
O           -4.73770716611523        3.07083030257152       -1.64472880540376
C           -5.47986055954406        4.14044049573445       -2.20555167435138
C            4.80886484104098        0.57841679827631        3.09525023780574
O            5.17139719954756        0.13273702514203        4.13332972257793
O            5.47597472243570        1.16169991385952        2.03926304226562
C            6.82859292239882        1.47781139414531        2.39832934942097
O           -4.07705375012307       -5.56342970773160        3.66356461958913
O           -1.90720881878086       -6.34578490447069        3.69772722949247
C           -2.62807346887619       -7.55092793074199        3.70048565075384
C           -4.91485617194379       -0.99707936008946        2.22972246860022
C           -2.06354308978931       -2.23167166056054       -0.75688879988689
H           -3.03936007192532       -7.90309722719205        4.67995982768073
H           -1.94037787883609       -8.27804169972550        3.20597223383730
H           -3.46987119529744       -7.30942106517397        2.94140972265829
H            7.68625591564291        0.80596976718742        2.01017596407911
H            6.86583776679868        1.33684372688096        3.51663848043619
H            7.02025428748024        2.53105812527610        2.20856785012822
H           -1.19533544547756       -1.49284592367072       -1.08883091285456
H           -2.51009268062497       -2.69979119643955       -1.69802034407108
H           -1.73023285385296       -3.06978869366758       -0.20668844631384
H           -5.13694764319971       -1.68545201673358        1.35257488968332
H           -5.43931954712144        0.01799292478435        2.22984600092878
H           -5.03835249402502       -1.36918333833249        3.30782916982317
H           -6.34594793533856        3.78038397773378       -2.64810448653841
H           -4.82671089771681        4.62184984373522       -2.77931928685258
H           -5.88944738749483        4.60852179143577       -1.31373607530876
C           -1.75084542432352        3.90936788292399        2.90791521981727
C           -2.07371191704031        2.81655217859561        3.65703610399576
C           -1.08163625996477        2.30189321880073        4.59459427855214
C            0.18348864452335        2.93554006631703        4.72747712735613
C            0.32756660182714        4.07553977421922        3.91258409949661
C           -0.60676374185294        4.58039814757373        3.02741780605652
C           -1.26962187131636        1.20543732571552        5.50599388037846
C           -0.04441754979137        0.74901922091847        6.02445841076526
C            1.17150002642515        1.57835006798973        6.20246143473591
N            1.29139435372469        2.64721589191416        5.41357380080515
C           -2.47633639133146        0.50592418508600        5.97408958787582
C           -2.37303871463037       -0.78954779352044        6.44455238376394
N           -1.21041345856377       -1.34996668519227        6.65969739888718
C           -0.10329654080391       -0.58302308276686        6.48298315197586
C            1.15942219577161       -1.05012806359059        6.91209088698005
C            2.34442515309903       -0.26285417143026        7.01762988310411
C            2.33879062417722        1.04419951227689        6.79620169078554
C           -3.85881596895329        1.03634625490295        6.05403579339444
C           -4.95268142484491        0.18188003543612        6.16116068314496
C           -4.84015903185258       -1.19432570863953        6.19858450734666
C           -3.53499027223574       -1.63640172449283        6.46171723651418
O           -4.10708754861979        2.38150080143165        6.10291973395734
O           -3.26832166750114        2.08532876884038        3.55710177420402
C           -0.44336168644777        5.81217566909644        2.20694871753050
C           -5.87754258429007       -2.12802074829705        5.67278340865345
H            1.22525247269432        4.59742692073552        4.10266575060189
H           -2.33652596049347        4.17935852513558        2.01685033169727
H            3.21049508800362        1.63762797481363        6.90036687037868
H            1.23189617767416       -2.06581630596339        7.27736624518843
H           -3.26309427120492       -2.65418835378979        6.60575580917277
H           -5.99267220222919        0.52015974802650        5.79225711861429
O            0.08127033606464        6.84447040235951        2.58114404009970
O           -1.00060844695733        5.58611818373417        0.94484570456125
C           -0.88605555261302        6.62354779653772       -0.03361684877240
C            3.38148606629804       -1.03951621284629        7.69602810559483
O            3.14177606894647       -2.05385018997861        8.40204111217007
O            4.65625973725931       -0.54691434712653        7.56676983487751
C            5.58204572139022       -1.46748112060618        7.99627825176023
O           -6.62567138986784       -1.80583136110746        4.84979757428500
O           -5.68127940816602       -3.53063880820936        6.09208844136942
C           -6.38185007869756       -4.52550767265308        5.35184649920304
C           -5.37230480330289        2.77914945643438        5.83863988821668
C           -4.21770924941694        2.47974795286261        2.66326699930114
H           -7.23471524526710       -4.10904382821760        4.83328528366132
H           -6.70633304663046       -5.30957892216234        6.05020278270799
H           -5.78476229545371       -4.89461528869673        4.47082766917540
H            6.60618352390182       -1.01888828481309        7.94628346016134
H            5.69221307173457       -2.33539154913274        7.29592212739994
H            5.45161363422884       -1.81413988297900        9.01480402254506
H           -4.73642635404674        3.31529772760720        3.13668751307984
H           -5.13878091231087        1.88164095401602        2.88548300798326
H           -3.99492369063417        2.51904006625537        1.57516303675761
H           -5.79844051766394        2.19866967069217        5.09579542759003
H           -5.29491962765113        3.87614641571500        5.34453468680057
H           -5.92361140528608        2.97878289729398        6.76659079536178
H           -1.75025763049868        6.48351930101966       -0.60469214082298
H           -0.10568192663505        6.44449590952852       -0.64695368171606
H           -0.76174501642540        7.54826828738975        0.52711838550022
116
 energy: -22.860696083253 gnorm: 0.416735987378 xtb: 6.6.1 (8d0f1dd)
C           -3.04939092064678        0.81405592271691       -1.02080904497540
C           -2.46220123046384       -0.27519756445592       -0.28540290238517
C           -1.38695701111064        0.07714137111614        0.72897092108618
C           -0.82526222087351        1.36431381372044        0.63643886767924
C           -1.32389604714132        2.38319831128643       -0.13488139667879
C           -2.55546009421061        2.13133890360471       -0.70635342225859
C           -0.64158336747599       -0.90998885369279        1.46395820817122
C            0.63573545378492       -0.60602418974208        1.85362631832796
C            1.15224975496321        0.73321638664354        1.67767197100152
N            0.32044729567825        1.70202897620190        1.24487039802284
C           -1.29564190814643       -2.05636980943036        2.05485180218907
C           -0.39744028741924       -2.98429089401199        2.63866603992697
N            0.91138433372324       -2.80093776535982        2.86905732452185
C            1.43798945808617       -1.52530918307257        2.62314949994072
C            2.67671072987861       -1.12860630486413        2.98317005067702
C            3.21808558985365        0.13378640819333        2.78045650140945
C            2.43154592233594        1.07760641947469        2.13997987472564
C           -2.71433500774205       -2.24048607338458        2.16520000209107
C           -3.26564401608045       -3.37259774909905        2.70018357807003
C           -2.38273461436782       -4.36069896959594        3.17830787605978
C           -1.02499329690638       -4.18754535957457        3.04495559351597
O           -3.49756870386641       -1.08919525573617        1.84440319889725
O           -2.91321930602850       -1.59395039372616       -0.58916992264365
C           -3.03090170076941        3.26098638633128       -1.53099751654896
C           -3.13558174136603       -5.56260097386375        3.74327733338371
H           -0.81095963256977        3.36651127170432       -0.13529589081631
H           -3.75334024376693        0.64950542259627       -1.75334369010078
H            2.83181360192796        2.06497956100170        2.16838021805240
H            3.26567495597399       -1.75561165233820        3.69017263183012
H           -0.41199943747510       -4.94156167163247        3.50882910568108
H           -4.24162903129497       -3.32214554720667        2.93546135445667
O           -2.33495393520892        4.31687896314348       -1.59783225083383