156
 energy: -253.996375999501 gnorm: 0.140678368197 xtb: 6.7.1 (edcfbbe)
C            0.85560000000000        3.13050000000000       -2.88250000000000
C            1.61910000000000       -2.63000000000000        1.74530000000000
C           -3.86060000000000        2.20330000000000       -1.31150000000000
C           -3.10220000000000        1.19440000000000       -0.73140000000000
C           -1.67390000000000        1.34770000000000       -0.70280000000000
C           -1.07780000000000        2.32900000000000       -1.54140000000000
C           -1.89220000000000        3.32320000000000       -2.08020000000000
C           -3.26370000000000        3.28400000000000       -1.94040000000000
C           -0.81880000000000        0.48770000000000        0.07040000000000
C            0.51250000000000        0.30080000000000       -0.38230000000000
C            1.05510000000000        1.16470000000000       -1.37310000000000
N            0.27820000000000        2.21530000000000       -1.87750000000000
C           -1.22090000000000       -0.15850000000000        1.28960000000000
C           -0.45010000000000       -1.25020000000000        1.77060000000000
N            0.78560000000000       -1.54940000000000        1.17970000000000
C            1.29960000000000       -0.75780000000000        0.14580000000000
C            2.56690000000000       -0.96890000000000       -0.38560000000000
C            3.10250000000000       -0.12390000000000       -1.33840000000000
C            2.35700000000000        0.94100000000000       -1.80490000000000
C           -2.27190000000000        0.36390000000000        2.12040000000000
C           -2.66310000000000       -0.36090000000000        3.23910000000000
C           -1.99140000000000       -1.51050000000000        3.61930000000000
C           -0.89360000000000       -1.93110000000000        2.90050000000000
O           -2.76510000000000        1.63900000000000        1.84350000000000
O           -3.65300000000000        0.01730000000000       -0.23280000000000
C           -4.08420000000000        4.36580000000000       -2.52470000000000
C           -2.34370000000000       -2.21800000000000        4.86800000000000
C            4.46480000000000       -0.34780000000000       -1.86990000000000
O            4.91000000000000        0.41250000000000       -2.71010000000000
O            5.14890000000000       -1.42800000000000       -1.38220000000000
C            6.39320000000000       -1.49870000000000       -2.00080000000000
O           -3.53820000000000        5.29130000000000       -3.09670000000000
O           -5.43910000000000        4.24960000000000       -2.38060000000000
C           -6.06330000000000        5.33830000000000       -2.98010000000000
O           -3.35590000000000       -1.92340000000000        5.47570000000000
O           -1.44590000000000       -3.17140000000000        5.27400000000000
C           -1.78420000000000       -3.62540000000000        6.54300000000000
H           -4.93260000000000        2.16470000000000       -1.29030000000000
H           -1.47450000000000        4.15750000000000       -2.61100000000000
H           -3.44620000000000       -0.00240000000000        3.87940000000000
H           -0.37320000000000       -2.79500000000000        3.26530000000000
H            3.16830000000000       -1.79710000000000       -0.06820000000000
H            2.82510000000000        1.58530000000000       -2.52370000000000
C            1.36250000000000       -3.96840000000000        1.07600000000000
C            2.25260000000000       -5.07060000000000        1.62360000000000
C            1.57180000000000        4.30510000000000       -2.23510000000000
C            2.17990000000000        5.25680000000000       -3.25090000000000
C           -3.91980000000000        2.02170000000000        2.55000000000000
C           -5.04830000000000       -0.09510000000000       -0.36590000000000
H           -7.14430000000000        5.24740000000000       -2.85620000000000
H           -5.80630000000000        5.35280000000000       -4.04190000000000
H           -5.70650000000000        6.25580000000000       -2.50590000000000
H           -1.12330000000000       -4.44780000000000        6.82260000000000
H           -2.82390000000000       -3.95990000000000        6.53840000000000
H           -1.66210000000000       -2.79600000000000        7.24280000000000
H            6.94010000000000       -2.36460000000000       -1.62240000000000
H            6.94650000000000       -0.58120000000000       -1.78670000000000
H            6.24650000000000       -1.59070000000000       -3.07950000000000
H            1.45850000000000       -2.69420000000000        2.82330000000000
H            2.67220000000000       -2.35830000000000        1.66120000000000
H            1.50920000000000       -3.86040000000000       -0.00620000000000
H            0.30420000000000       -4.23320000000000        1.19290000000000
H            3.30760000000000       -4.82550000000000        1.49060000000000
H            2.07100000000000       -6.02750000000000        1.13050000000000
H            2.08860000000000       -5.21420000000000        2.69250000000000
H           -4.33130000000000        2.91370000000000        2.07640000000000
H           -3.65310000000000        2.26710000000000        3.57630000000000
H           -4.66330000000000        1.22490000000000        2.51940000000000
H           -5.35430000000000       -1.05950000000000        0.04110000000000
H           -5.32420000000000       -0.04950000000000       -1.42020000000000
H           -5.54070000000000        0.69880000000000        0.19660000000000
H            2.69050000000000        6.09490000000000       -2.77270000000000
H            1.41500000000000        5.67050000000000       -3.91000000000000
H            2.90810000000000        4.74550000000000       -3.88250000000000
H            2.34670000000000        3.92350000000000       -1.55820000000000
H            0.86730000000000        4.83910000000000       -1.58510000000000
H            0.06980000000000        3.47770000000000       -3.55680000000000
H            1.52930000000000        2.57330000000000       -3.53720000000000
C            0.02640000000000        1.99250000000000        3.40960000000000
C            3.11960000000000       -3.73450000000000        6.87280000000000
C           -3.08810000000000        0.99050000000000        7.23220000000000
C           -2.02820000000000        0.11680000000000        7.43370000000000
C           -0.80560000000000        0.34580000000000        6.71310000000000
C           -0.80890000000000        1.28850000000000        5.64810000000000
C           -1.89390000000000        2.15300000000000        5.52270000000000
C           -3.02000000000000        2.01560000000000        6.30610000000000
C            0.37070000000000       -0.45130000000000        6.92470000000000
C            1.29990000000000       -0.57630000000000        5.86160000000000
C            1.24000000000000        0.31820000000000        4.76010000000000
N            0.20470000000000        1.25450000000000        4.67840000000000
C            0.65500000000000       -1.15460000000000        8.14570000000000
C            1.49500000000000       -2.29970000000000        8.09470000000000
N            2.28670000000000       -2.51890000000000        6.95750000000000
C            2.28430000000000       -1.60250000000000        5.89480000000000
C            3.19940000000000       -1.67300000000000        4.84970000000000
C            3.18780000000000       -0.75350000000000        3.81740000000000
C            2.21560000000000        0.22510000000000        3.77710000000000
C            0.18170000000000       -0.69690000000000        9.42160000000000
C            0.29550000000000       -1.55200000000000       10.50930000000000
C            0.94070000000000       -2.77280000000000       10.40220000000000
C            1.55880000000000       -3.12190000000000        9.21860000000000
O           -0.30950000000000        0.60230000000000        9.51900000000000
O           -2.15140000000000       -1.00940000000000        8.24650000000000
C           -4.19120000000000        2.88940000000000        6.07960000000000
C            1.02340000000000       -3.66890000000000       11.57480000000000
C            4.18890000000000       -0.81730000000000        2.73250000000000
O            4.27730000000000        0.10740000000000        1.94540000000000
O            4.94640000000000       -1.95460000000000        2.66350000000000
C            5.83380000000000       -1.85130000000000        1.59770000000000
O           -4.23790000000000        3.58310000000000        5.08070000000000
O           -5.17950000000000        2.83820000000000        7.02340000000000
C           -6.21130000000000        3.69900000000000        6.66480000000000
O            0.50270000000000       -3.34090000000000       12.62470000000000
O            1.70170000000000       -4.84290000000000       11.39230000000000
C            1.70060000000000       -5.56680000000000       12.58000000000000
H           -4.00180000000000        0.87670000000000        7.78280000000000
H           -1.87870000000000        2.94990000000000        4.80380000000000
H           -0.10080000000000       -1.27930000000000       11.46880000000000
H            2.08790000000000       -4.05470000000000        9.19610000000000
H            3.95420000000000       -2.43350000000000        4.81920000000000
H            2.24530000000000        0.91500000000000        2.95560000000000
C            2.36990000000000       -4.86810000000000        6.19120000000000
C            3.20450000000000       -6.12820000000000        6.04640000000000
C            0.76670000000000        3.31600000000000        3.35720000000000
C            0.62360000000000        3.98830000000000        2.00070000000000
C           -0.87900000000000        0.93370000000000       10.76080000000000
C           -3.47310000000000       -1.35850000000000        8.58120000000000
H           -6.98180000000000        3.67850000000000        7.43810000000000
H           -6.62970000000000        3.37310000000000        5.70990000000000
H           -5.80950000000000        4.70970000000000        6.56200000000000
H            2.23910000000000       -6.50490000000000       12.43170000000000
H            0.66710000000000       -5.76850000000000       12.87120000000000
H            2.18840000000000       -4.97270000000000       13.35650000000000
H            6.36740000000000       -2.79580000000000        1.47510000000000
H            6.53860000000000       -1.04210000000000        1.80080000000000
H            5.26820000000000       -1.61860000000000        0.69280000000000
H            3.45100000000000       -4.02790000000000        7.87070000000000
H            4.04920000000000       -3.51170000000000        6.34690000000000
H            2.02150000000000       -4.52360000000000        5.20940000000000
H            1.45270000000000       -5.07930000000000        6.75520000000000
H            4.10280000000000       -5.93990000000000        5.45640000000000
H            2.65110000000000       -6.93170000000000        5.55650000000000
H            3.52960000000000       -6.49870000000000        7.01980000000000
H           -1.29650000000000        1.93860000000000       10.68820000000000
H           -0.11180000000000        0.92100000000000       11.53600000000000
H           -1.68070000000000        0.23210000000000       10.99530000000000
H           -3.45870000000000       -2.32070000000000        9.09420000000000
H           -4.05970000000000       -1.44930000000000        7.66400000000000
H           -3.89980000000000       -0.61030000000000        9.24960000000000
H            1.14770000000000        4.94470000000000        1.95800000000000
H           -0.42540000000000        4.17350000000000        1.76310000000000
H            1.02320000000000        3.35660000000000        1.20540000000000
H            1.82510000000000        3.15110000000000        3.59390000000000
H            0.39600000000000        3.97130000000000        4.15530000000000
H           -1.03820000000000        2.14710000000000        3.22450000000000
H            0.34400000000000        1.34850000000000        2.58620000000000
156
 energy: -254.026058314017 gnorm: 0.063412974817 xtb: 6.7.1 (edcfbbe)
C            0.85056717851129        3.12159043966582       -2.87081226177337
C            1.60800354111968       -2.62311168476744        1.73661413953138
C           -3.86343078160616        2.19352047140696       -1.30869242050120
C           -3.09678314827231        1.20169899195930       -0.72584322428593
C           -1.67443646930455        1.33466630479536       -0.71131988931800
C           -1.07727927294560        2.30941852372633       -1.55624021970572
C           -1.88095690632794        3.31712818954995       -2.08294825421095
C           -3.25891984007332        3.27967438199278       -1.93252650821110
C           -0.82306867243494        0.48762962763067        0.07020587377968
C            0.50998445777830        0.30247318273416       -0.37943101467662
C            1.04901988897721        1.16520981751278       -1.37490639068227
N            0.27580600896784        2.21083449480287       -1.87462305302542
C           -1.21414731334070       -0.15256603387249        1.29011651623192
C           -0.43352314105847       -1.23705886035938        1.77591383457266
N            0.78450951609075       -1.54823894953380        1.17609841002350
C            1.29820063915905       -0.75569241023866        0.15334313236392
C            2.55986101160674       -0.98037955627597       -0.37964626022643
C            3.09200110166325       -0.12639163049079       -1.33587094856764
C            2.35101765546132        0.94961112126504       -1.80537529381869
C           -2.27544033762396        0.34481044443468        2.11002709793816
C           -2.65902639475303       -0.35702917597069        3.23767847075141
C           -1.98139334024488       -1.51155863116824        3.61294654497104
C           -0.87368480213603       -1.93325103618779        2.89513933099505
O           -2.77514304301487        1.59503096473056        1.81643021248751
O           -3.64061067263922        0.03869338509256       -0.22809736091679
C           -4.05655143827281        4.36939147982183       -2.52093184081471
C           -2.35744848082525       -2.20216816406067        4.85560336180846
C            4.44531898028632       -0.32612535382796       -1.88514096404715
O            4.91112772334193        0.42128876364123       -2.71765821331755
O            5.12500056695607       -1.40255160152298       -1.41180524366328
C            6.39657629921662       -1.49953889869581       -2.00660697287233
O           -3.53565107343961        5.29860983863289       -3.10080152402668
O           -5.40149350336976        4.25437432173110       -2.38246876248427
C           -6.06583812133193        5.34065051711194       -2.98081290850183
O           -3.36045505944326       -1.92097583365926        5.47753514957848
O           -1.46822787172647       -3.14445208236539        5.26449237063274
C           -1.78418538312677       -3.63206064038287        6.54596292448890
H           -4.93809166328374        2.15802028442109       -1.29231349621770
H           -1.46773041854027        4.15776820861879       -2.61220421085137
H           -3.44771444050784       -0.00335864681231        3.87969720219105
H           -0.36180500594176       -2.80479953257669        3.25689489671352
H            3.16261126832957       -1.81223512464483       -0.06860283569146
H            2.82740758870478        1.59151643760905       -2.52435737377235
C            1.35257463723968       -3.96862860751184        1.06654243395684
C            2.25139155206760       -5.06309847855927        1.62529953447112
C            1.56996724962800        4.30287424032777       -2.22362467574592
C            2.17473410374013        5.24872874025838       -3.25204646515243
C           -3.91850940693474        2.00773801884933        2.53418476691347
C           -5.03742081854859       -0.09152076116140       -0.36245271587509
H           -7.14014266136430        5.22384332076628       -2.84302376743905
H           -5.82451439046243        5.37319557705280       -4.04691450792167
H           -5.72651618923049        6.27239460601261       -2.51976546667009
H           -1.11132635896903       -4.45117162268633        6.79533869845097
H           -2.82140449570389       -3.97718664368502        6.56244002802159
H           -1.66264815719269       -2.82280920422478        7.26921555017150
H            6.91645968894997       -2.37003364620267       -1.60750204828021
H            6.96820087819607       -0.59162915042825       -1.79645450375840
H            6.27855524353726       -1.59450487953219       -3.08908568046749
H            1.43670350661898       -2.68810794176026        2.81343001071942
H            2.65928386991611       -2.35346020152856        1.63994290951257
H            1.51669941996040       -3.86421150742850       -0.01072848672154
H            0.30071666793786       -4.24003644235183        1.19922807550386
H            3.30330737562630       -4.81468548830737        1.48736018111498
H            2.06437908275360       -6.01388338286710        1.12810021511462
H            2.08109484703192       -5.20520604082776        2.69198663006517
H           -4.30841254639535        2.90363760575730        2.05041683174174
H           -3.66287941269769        2.26306226388590        3.56235409373266
H           -4.68257193979825        1.22848647239435        2.52163533065283
H           -5.32012773424725       -1.06132604603089        0.04769461950596
H           -5.33077940726367       -0.05226913275812       -1.41582280347024
H           -5.55511255343847        0.69322023237957        0.19553503084566
H            2.68152629354860        6.08082511960534       -2.76524588669934
H            1.40700796028255        5.66295735111567       -3.90480194907814
H            2.90472877022786        4.73512719002045       -3.87684751231379
H            2.35482914898318        3.92186827485803       -1.56251249832359
H            0.86143684496704        4.84498070689119       -1.58932491693571
H            0.05827306336703        3.47442254072236       -3.53489120767316
H            1.53440447118696        2.56364167858374       -3.51570000189331
C            0.03529417044919        1.98962137170792        3.42598025678441
C            3.10969099490324       -3.72323295024646        6.87208177334513
C           -3.08821533457825        0.98492207434327        7.24004794780655
C           -2.02479245973147        0.12518724239726        7.43376106198205
C           -0.81178039930866        0.32923129966040        6.70487210134310
C           -0.81735637399305        1.26439594452282        5.63281698351895
C           -1.88532027744895        2.14975070876162        5.51556877234999
C           -3.01061946946909        2.01920069527982        6.31700833288954
C            0.36513038039129       -0.45546490315452        6.92627464798989
C            1.29255914929361       -0.58164403065089        5.86230119690472
C            1.22808831309420        0.31205253019121        4.75873088189291
N            0.20346083543951        1.24826144312703        4.68220325574545
C            0.66094529409659       -1.14801195143338        8.14483780964057
C            1.50868065148788       -2.28793266295447        8.09201499336712
N            2.28124519288980       -2.51774594046491        6.95506394849923
C            2.27988456433473       -1.60672319936702        5.89970650406924
C            3.19658227789794       -1.68531697118111        4.85961165115243
C            3.18151879616987       -0.75586842108910        3.82672143884881
C            2.20727313635902        0.23110261154854        3.77870479123245
C            0.17958513554140       -0.70908033761768        9.41518365433638
C            0.29822034648398       -1.54817215510627       10.50644047209499
C            0.94116438146684       -2.77570870512959       10.38927250404567
C            1.56936282085362       -3.12470970607247        9.20273326707396
O           -0.31483970155038        0.57166000952025        9.50792988577011
O           -2.14298707951558       -0.98559946996781        8.24175778485665
C           -4.16572159889104        2.90117906253840        6.07931861374304
C            1.00713886182682       -3.64943643284577       11.57265989170347
C            4.17538613900415       -0.79374720845890        2.74017704384046
O            4.28349448272366        0.11596516249246        1.94540587400862
O            4.93203018996518       -1.91989837418786        2.67553955354969
C            5.84287756415893       -1.85210142562516        1.60395229510720
O           -4.23492104293845        3.60802372563033        5.09424687798733
O           -5.15339716353399        2.84182070657980        7.00484253998846
C           -6.21536343946092        3.70035635049092        6.66702374111849
O            0.49904059230003       -3.33973535646309       12.62925961737572
O            1.68328427103490       -4.81396384380059       11.39793629644377
C            1.70141489351096       -5.57050668830808       12.58364312128569
H           -4.00693440116486        0.86990622823164        7.78576194531040
H           -1.86905830731442        2.95480701401046        4.80156743834681
H           -0.09682310197406       -1.28108048775173       11.47152409379437
H            2.09709257612065       -4.06032182591515        9.18338765186659
H            3.95603229411889       -2.44454264369118        4.82529410865822
H            2.24566781654169        0.92022014518747        2.95409295129380
C            2.36029379864174       -4.86445529891493        6.18877579129124
C            3.20685912454433       -6.12136233395301        6.04931411576781
C            0.77553147007899        3.32007954866561        3.37077233802606
C            0.62079508414399        3.98040513278738        2.00581293171034
C           -0.87767501392824        0.92640268513531       10.75053611556327
C           -3.46479023153931       -1.34994036245014        8.58335132115016
H           -6.96972599432313        3.65985472046358        7.45146819257585
H           -6.64846303124050        3.38965900644931        5.71211370444315
H           -5.83746837223074        4.72104343187602        6.56091026650338
H            2.24400468277965       -6.49847828321289       12.40728825511373
H            0.67520727826542       -5.78711794134981       12.89277430637515
H            2.18826291431498       -4.99449015956770       13.37540574491970
H            6.35950829488696       -2.80612088705557        1.50686964103825
H            6.56094868214280       -1.04874391697957        1.78578112965093
H            5.30049581179679       -1.62494099932212        0.68396827826130
H            3.42917659135257       -4.01752726456778        7.87386676969318
H            4.03302373856961       -3.49870857445228        6.33465095298891
H            2.02825717743190       -4.52424045311426        5.20243098637301
H            1.45484699755456       -5.08539141471963        6.76289355850316
H            4.10018798554150       -5.92927358766442        5.45589266824220
H            2.64672899537286       -6.91710355152685        5.55997877805214
H            3.52550484567281       -6.48959052789863        7.02387277541525
H           -1.28488632504353        1.93343782790342       10.65502772885665
H           -0.11871934969246        0.92511462474729       11.53832672616284
H           -1.68621164683248        0.23819477733141       11.01036177446789
H           -3.42248202900818       -2.31374249138327        9.09208941995490
H           -4.06707971921942       -1.44999427756996        7.67572552537282
H           -3.91020357881666       -0.61614051126584        9.25936802743640
H            1.14573659127727        4.93405344640833        1.97128732019609
H           -0.42805380467007        4.16441336292690        1.77435283001031
H            1.02593088370453        3.34700343425452        1.21662022360308
H            1.83481471268291        3.15469560858260        3.58851134733551
H            0.39164829328283        3.98027278231772        4.15454273454225
H           -1.02626537678074        2.15738506085977        3.25009196596901
H            0.36265911359532        1.34862764441838        2.60348431251745
156
 energy: -254.038468851251 gnorm: 0.016647102409 xtb: 6.7.1 (edcfbbe)
C            0.84531871241967        3.11053021163177       -2.85862318022974
C            1.59975513799881       -2.61464972582536        1.72552738145070
C           -3.86664656621634        2.19073578321029       -1.31257554399391
C           -3.09457903014385        1.20589543500979       -0.73226071990190
C           -1.67551863412681        1.32365226248595       -0.71949594080128
C           -1.07608758786485        2.29548229897814       -1.56488092963797
C           -1.87180000762406        3.31243255600920       -2.08363294329060
C           -3.25365841985996        3.27988779343037       -1.92906504098862
C           -0.82778694601208        0.48548608962816        0.06926232169216
C            0.50842430102314        0.30286580122597       -0.37773608983882
C            1.04463635770743        1.16570339302606       -1.37385248838093
N            0.27369160901711        2.20707033886367       -1.86829636166688
C           -1.20926016060131       -0.14934446563324        1.29076988579781
C           -0.42228534440336       -1.22903725957022        1.78027998681742
N            0.78191215022932       -1.54788741460958        1.16981921305189
C            1.29750920703695       -0.75508223416867        0.15473871687111
C            2.55535284265004       -0.99043255620169       -0.38348844122611
C            3.08336179771243       -0.12817598267353       -1.33790345021978
C            2.34688429442210        0.95655007319279       -1.80348695845953
C           -2.27460068165247        0.33272056271016        2.10656591968409
C           -2.65714445875003       -0.35729522605821        3.23689947534722
C           -1.97454394926403       -1.51304038821207        3.61089238602945
C           -0.86118540566957       -1.93506307966606        2.89394509018113
O           -2.78737499194667        1.55554313184804        1.79201546632845
O           -3.63185843181785        0.05659787640263       -0.22984564671537
C           -4.02563640278375        4.37869751603863       -2.52433614020931
C           -2.37060910141058       -2.18199331944404        4.85268884462354
C            4.42814273975116       -0.30197696488143       -1.90638500777296
O            4.90949695745908        0.44000087085888       -2.73167960446111
O            5.10522695704838       -1.37684547465467       -1.44609496873277
C            6.40031636655186       -1.50130913129735       -2.01463768925275
O           -3.52100033616504        5.31386985600774       -3.10588018858698
O           -5.36333343174468        4.26749633354851       -2.38710560527873
C           -6.06949573029820        5.34555119063781       -2.98148380392003
O           -3.37221637232191       -1.91393231839516        5.48096741225388
O           -1.49029787890254       -3.11727136296473        5.26518073512700
C           -1.78327564598211       -3.64486736455456        6.55104871997337
H           -4.94192589842804        2.16140078285369       -1.29931771904720
H           -1.46667227795680        4.16048473207056       -2.60783570756998
H           -3.44970648602778       -0.01174537674331        3.87954444303096
H           -0.36467406678472       -2.81653775718252        3.25285657741433
H            3.15973507372512       -1.82689286517552       -0.08682918966959
H            2.83621526357842        1.59514598092789       -2.51731494387816
C            1.34202262316574       -3.96682871951540        1.05684176141265
C            2.24784509322506       -5.05439189247564        1.62539507527831
C            1.56684823608553        4.29745647137042       -2.21133932247902
C            2.16814885447213        5.23818333173354       -3.25058183284474
C           -3.92115631999569        1.99734462541180        2.51208942839738
C           -5.02749384883501       -0.09648675969478       -0.35563680846457
H           -7.13418346223705        5.18677515735355       -2.82051830071374
H           -5.84598028726440        5.38826659718740       -4.05138987913810
H           -5.74934128925973        6.28853365839189       -2.52912813952196
H           -1.09193387826431       -4.46143089189132        6.75102439708175
H           -2.81676833067245       -4.00011017690785        6.58053148936647
H           -1.65645746123449       -2.85656905919981        7.29656318054914
H            6.87979013519092       -2.37962685931225       -1.58521759411987
H            6.98673795138770       -0.60377816092494       -1.80090957773076
H            6.31090449281174       -1.60277521517764       -3.09967362445375
H            1.42591990152611       -2.68238768834767        2.80016046929749
H            2.64985335387515       -2.35161414188485        1.62141538813844
H            1.51722926807367       -3.86837469401986       -0.01629581272266
H            0.29607312941375       -4.24444458415574        1.20015899722933
H            3.29613166911401       -4.79911699172956        1.48494312641525
H            2.05894337166919       -6.00215005351041        1.12669922638832
H            2.07177121329436       -5.19101736570999        2.69037583972909
H           -4.28279289499182        2.89450793837738        2.00932604458625
H           -3.67025782022196        2.26200220744553        3.54025851129988
H           -4.70539848780993        1.23545528338159        2.51564170570644
H           -5.27660250522649       -1.07255401615038        0.06079643274533