Optimization of monomers started
      -----------------------------------------------------------      
     |                   =====================                   |     
     |                           x T B                           |     
     |                   =====================                   |     
     |                         S. Grimme                         |     
     |          Mulliken Center for Theoretical Chemistry        |     
     |                    University of Bonn                     |     
      -----------------------------------------------------------      

   * xtb version 6.7.1 (edcfbbe) compiled by 'runner@Mac-1732539442253.local' on 2024-11-25

   xtb is free software: you can redistribute it and/or modify it under
   the terms of the GNU Lesser General Public License as published by
   the Free Software Foundation, either version 3 of the License, or
   (at your option) any later version.
   
   xtb is distributed in the hope that it will be useful,
   but WITHOUT ANY WARRANTY; without even the implied warranty of
   MERCHANTABILITY or FITNESS FOR A PARTICULAR PURPOSE.  See the
   GNU Lesser General Public License for more details.
   
   Cite this work as:
   * C. Bannwarth, E. Caldeweyher, S. Ehlert, A. Hansen, P. Pracht,
     J. Seibert, S. Spicher, S. Grimme, WIREs Comput. Mol. Sci., 2020, 11,
     e01493. DOI: 10.1002/wcms.1493
   
   for GFN2-xTB:
   * C. Bannwarth, S. Ehlert and S. Grimme., J. Chem. Theory Comput., 2019,
     15, 1652-1671. DOI: 10.1021/acs.jctc.8b01176
   for GFN1-xTB:
   * S. Grimme, C. Bannwarth, P. Shushkov, J. Chem. Theory Comput., 2017,
     13, 1989-2009. DOI: 10.1021/acs.jctc.7b00118
   for GFN0-xTB:
   * P. Pracht, E. Caldeweyher, S. Ehlert, S. Grimme, ChemRxiv, 2019, preprint.
     DOI: 10.26434/chemrxiv.8326202.v1
   for GFN-FF:
   * S. Spicher and S. Grimme, Angew. Chem. Int. Ed., 2020, 59, 15665-15673.
     DOI: 10.1002/anie.202004239
   
   for ALPB and GBSA implicit solvation:
   * S. Ehlert, M. Stahn, S. Spicher, S. Grimme, J. Chem. Theory Comput.,
     2021, 17, 4250-4261. DOI: 10.1021/acs.jctc.1c00471
   
   for ddCOSMO and CPCM-X implicit solvation:
   * M. Stahn, S. Ehlert, S. Grimme, J. Phys. Chem. A,
     2023, XX, XXXX-XXXX. DOI: 10.1021/acs.jpca.3c04382
   
   for DFT-D4:
   * E. Caldeweyher, C. Bannwarth and S. Grimme, J. Chem. Phys., 2017,
     147, 034112. DOI: 10.1063/1.4993215
   * E. Caldeweyher, S. Ehlert, A. Hansen, H. Neugebauer, S. Spicher,
     C. Bannwarth and S. Grimme, J. Chem. Phys., 2019, 150, 154122.
     DOI: 10.1063/1.5090222
   * E. Caldeweyher, J.-M. Mewes, S. Ehlert and S. Grimme, Phys. Chem. Chem. Phys.
     2020, 22, 8499-8512. DOI: 10.1039/D0CP00502A
   
   for sTDA-xTB:
   * S. Grimme and C. Bannwarth, J. Chem. Phys., 2016, 145, 054103.
     DOI: 10.1063/1.4959605
   
   in the mass-spec context:
   * V. Asgeirsson, C. Bauer and S. Grimme, Chem. Sci., 2017, 8, 4879.
     DOI: 10.1039/c7sc00601b
   * J. Koopman and S. Grimme, ACS Omega 2019, 4, 12, 15120-15133.
     DOI: 10.1021/acsomega.9b02011
   
   for metadynamics refer to:
   * S. Grimme, J. Chem. Theory Comput., 2019, 155, 2847-2862
     DOI: 10.1021/acs.jctc.9b00143
   
   for SPH calculations refer to:
   * S. Spicher and S. Grimme, J. Chem. Theory Comput., 2021, 17, 1701-1714
     DOI: 10.1021/acs.jctc.0c01306
   
   for ONIOM refer to:
   * C. Plett, A. Katbashev, S. Ehlert, S. Grimme, M. Bursch,
     Phys. Chem. Chem. Phys., 2023, 25, 17860-17868. DOI: 10.1039/D3CP02178E
   
   for DIPRO refer to:
   * J. Kohn, N. Gildemeister, S. Grimme, D. Fazzi, A. Hansen,
     J. Chem. Phys., 2023, just accepted.
   
   for PTB refer to:
   * S. Grimme, M. Mueller, A. Hansen, J. Chem. Phys., 2023, 158, 124111.
     DOI: 10.1063/5.0137838
   
   with help from (in alphabetical order)
   P. Atkinson, C. Bannwarth, F. Bohle, G. Brandenburg, E. Caldeweyher
   M. Checinski, S. Dohm, S. Ehlert, S. Ehrlich, I. Gerasimov, C. Hölzer
   A. Katbashev, J. Kohn, J. Koopman, C. Lavigne, S. Lehtola, F. März, M. Müller,
   F. Musil, H. Neugebauer, J. Pisarek, C. Plett, P. Pracht, F. Pultar,
   J. Seibert, P. Shushkov, S. Spicher, M. Stahn, M. Steiner, T. Strunk,
   J. Stückrath, T. Rose, and J. Unsleber
   
 * started run on 2025/03/21 at 10:37:33.714     
   ID    Z sym.   atoms
    1    6 C      1-9, 11, 12, 14-21, 25-33, 35, 36, 38-45, 48-71
    2    7 N      10, 13, 34, 37
    3    8 O      22, 23, 46, 47
    4    5 B      24
    5    1 H      72-137

           -------------------------------------------------
          |                Calculation Setup                |
           -------------------------------------------------

          program call               : xtb Base1tBu.mol --opt --chrg 0 --uhf 1 --tight --spinpol --tblite
          coordinate file            : Base1tBu.mol
          omp threads                :                     8

########################################################################
[WARNING] Please study the warnings concerning your input carefully
-2- prog_main: Charge in sdf/mol input was overwritten
-1- prog_main_parseArguments: Unknown option '--tight' provided
########################################################################
repulsion energy          3.2090722321784E+00 Eh
dispersion energy         3.5956337761325E-03 Eh
interaction energy        0.0000000000000E+00 Eh
number of electrons       3.6100000000000E+02 e
integral cutoff           1.9311100799991E+01 bohr

------------------------------------------------------------
  cycle        total energy    energy error   density error
------------------------------------------------------------
      1     -194.1166666330  -1.9732933E+02   1.0151847E-01
      2     -191.9702656157   2.1464010E+00   7.6509153E-02
      3     -183.2465914748   8.7236741E+00   9.6160515E-02
      4     -187.5389681637  -4.2923767E+00   8.2993526E-02
      5     -194.3789747086  -6.8400065E+00   4.0672749E-02
      6     -194.8602747524  -4.8130004E-01   2.2051328E-02
      7     -194.7777188246   8.2555928E-02   2.3266824E-02
      8     -194.9051969849  -1.2747816E-01   1.5686825E-02
      9     -194.9503535852  -4.5156600E-02   1.1195889E-02
     10     -194.9490306811   1.3229041E-03   7.0118803E-03
     11     -194.9580932862  -9.0626051E-03   4.5528831E-03
     12     -194.9579370827   1.5620343E-04   5.5374407E-03
     13     -194.9611052353  -3.1681526E-03   4.2897596E-03
     14     -194.9639854276  -2.8801923E-03   2.8755858E-03
     15     -194.9654343746  -1.4489470E-03   1.6308700E-03
     16     -194.9657449243  -3.1054977E-04   1.1811120E-03
     17     -194.9656041242   1.4080017E-04   1.2375549E-03
     18     -194.9658439399  -2.3981575E-04   7.0271926E-04
     19     -194.9659752183  -1.3127838E-04   2.0507855E-04
     20     -194.9659658298   9.3884774E-06   2.1142731E-04
     21     -194.9659701855  -4.3556704E-06   1.9306662E-04
     22     -194.9659824282  -1.2242757E-05   4.7745732E-05
     23     -194.9659826163  -1.8810115E-07   3.4914744E-05
     24     -194.9659828491  -2.3278071E-07   1.8536130E-05
------------------------------------------------------------

electronic energy        -1.9817865071507E+02 Eh
total energy             -1.9496598284912E+02 Eh

 total:                                  10.274 sec
 - repulsion                              0.000 sec (  0%)
 - dispersion                             0.041 sec (  0%)
 - coulomb                                0.006 sec (  0%)
 - hamiltonian                            0.053 sec (  0%)
 - scc                                   10.173 sec ( 99%)

      ----------------------------------------------------------- 
     |                   =====================                   |
     |                        A N C O P T                        |
     |                   =====================                   |
     |               Approximate Normal Coordinate               |
     |                Rational Function Optimizer                |
      ----------------------------------------------------------- 
      ----------------------------------------------------------- 
     |                   =====================                   |
     |                        A N C O P T                        |
     |                   =====================                   |
     |               Approximate Normal Coordinate               |
     |                Rational Function Optimizer                |
      ----------------------------------------------------------- 

          ...................................................
          :                      SETUP                      :
          :.................................................:
          :   optimization level            normal          :
          :   max. optcycles                   411          :
          :   ANC micro-cycles                  20          :
          :   degrees of freedom               405          :
          :.................................................:
          :   RF solver                   davidson          :
          :   write xtbopt.log                true          :
          :   linear?                        false          :
          :   energy convergence         0.5000000E-05 Eh   :
          :   grad. convergence          0.1000000E-02 Eh/α :
          :   maxmium RF displ.          1.0000000          :
          :   Hlow (freq-cutoff)         0.1000000E-01      :
          :   Hmax (freq-cutoff)         5.0000000          :
          :   S6 in model hess.         20.0000000          :
          ...................................................

generating ANC from exact Hessian ...
Using Lindh-Hessian (1995)
 Shifting diagonal of input Hessian by    1.1664657831475000E-002
 Lowest  eigenvalues of input Hessian
    0.010000    0.010251    0.010624    0.011290    0.011469    0.000000
    0.000000    0.000000    0.000000    0.000000    0.000000    0.011707
    0.011746    0.011811    0.011912    0.011972    0.012037    0.012230
 Highest eigenvalues
    2.329077    2.462783    2.516340    2.516772    2.690956    2.703279


........................................................................
.............................. CYCLE    1 ..............................
........................................................................
------------------------------------------------------------
  cycle        total energy    energy error   density error
------------------------------------------------------------
      1     -194.9659541964  -1.9817862E+02   2.2950643E-04
      2     -194.9642253066   1.7288898E-03   1.8803487E-03
      3     -194.9657360505  -1.5107439E-03   7.1017762E-04
      4     -194.9659826585  -2.4660804E-04   2.9115298E-05
      5     -194.9659827591  -1.0061922E-07   2.2997010E-05
      6     -194.9659829311  -1.7203885E-07   9.8264280E-06
------------------------------------------------------------

 total:                                   2.406 sec
 * total energy  :  -194.9659829 Eh     change       -0.8203040E-07 Eh
   gradient norm :     0.6936680 Eh/α   predicted     0.0000000E+00 (-100.00%)
   displ. norm   :     0.6091860 α      lambda       -0.3478815E+00
   maximum displ.:     0.1518396 α      in ANC's #260, #285, #264, ...

........................................................................
.............................. CYCLE    2 ..............................
........................................................................
------------------------------------------------------------
  cycle        total energy    energy error   density error
------------------------------------------------------------
      1     -195.2133136930  -1.9835531E+02   9.2276235E-03
      2     -194.8565258774   3.5678782E-01   2.3776842E-02
      3     -195.2250189058  -3.6849303E-01   6.4444628E-03
      4     -195.1639560038   6.1062902E-02   1.1861970E-02
      5     -195.2056906982  -4.1734694E-02   8.3704434E-03
      6     -195.2273701110  -2.1679413E-02   4.2950186E-03
      7     -195.2277502015  -3.8009046E-04   3.3983948E-03
      8     -195.2306864011  -2.9361997E-03   2.5831548E-03
      9     -195.2308685532  -1.8215205E-04   2.4007652E-03
     10     -195.2316519546  -7.8340140E-04   1.7145445E-03
     11     -195.2317830670  -1.3111237E-04   1.3872560E-03
     12     -195.2318366012  -5.3534205E-05   1.2140680E-03
     13     -195.2321193491  -2.8274795E-04   6.8228025E-04
     14     -195.2322042451  -8.4895980E-05   2.4115145E-04
     15     -195.2322012512   2.9939003E-06   1.7827539E-04
     16     -195.2322090490  -7.7977758E-06   1.2049602E-04
     17     -195.2322095775  -5.2855506E-07   5.1652110E-05
     18     -195.2322098953  -3.1778853E-07   4.5820519E-05
     19     -195.2322105809  -6.8561644E-07   1.1734550E-05
------------------------------------------------------------

 total:                                   7.508 sec
 * total energy  :  -195.2322106 Eh     change       -0.2662276E+00 Eh
   gradient norm :     0.3457762 Eh/α   predicted    -0.2386278E+00 ( -10.37%)
   displ. norm   :     0.6757914 α      lambda       -0.2002623E+00
   maximum displ.:     0.1732634 α      in ANC's #260, #257, #285, ...

........................................................................
.............................. CYCLE    3 ..............................
........................................................................
------------------------------------------------------------
  cycle        total energy    energy error   density error
------------------------------------------------------------
      1     -195.3606168000  -1.9855720E+02   1.0176607E-02
      2     -195.0328371002   3.2777970E-01   2.3192995E-02
      3     -195.3789319374  -3.4609484E-01   5.8664066E-03
      4     -195.3335905414   4.5341396E-02   1.0088225E-02
      5     -195.3513607446  -1.7770203E-02   9.1357902E-03
      6     -195.3719665301  -2.0605785E-02   6.1930883E-03
      7     -195.3773131903  -5.3466602E-03   4.1553328E-03
      8     -195.3811839363  -3.8707460E-03   2.8038789E-03
      9     -195.3819440624  -7.6012608E-04   2.2159539E-03
     10     -195.3827095354  -7.6547301E-04   1.4619859E-03
     11     -195.3828200148  -1.1047940E-04   1.2381910E-03
     12     -195.3829247354  -1.0472067E-04   9.5504514E-04
     13     -195.3830481119  -1.2337650E-04   6.3451281E-04
     14     -195.3831226422  -7.4530259E-05   2.3915730E-04
     15     -195.3831327834  -1.0141217E-05   6.6495302E-05
     16     -195.3831320345   7.4890920E-07   8.8586250E-05
     17     -195.3831326137  -5.7923418E-07   4.7277227E-05
     18     -195.3831330985  -4.8472114E-07   7.0641330E-06
------------------------------------------------------------

 total:                                   4.140 sec
 * total energy  :  -195.3831331 Eh     change       -0.1509225E+00 Eh
   gradient norm :     0.1601044 Eh/α   predicted    -0.1458605E+00 (  -3.35%)
   displ. norm   :     0.7329722 α      lambda       -0.1019341E+00
   maximum displ.:     0.1651365 α      in ANC's #82, #85, #94, ...

........................................................................
.............................. CYCLE    4 ..............................
........................................................................
------------------------------------------------------------
  cycle        total energy    energy error   density error
------------------------------------------------------------
      1     -195.4599153832  -1.9866844E+02   7.9282900E-03
      2     -195.4149308648   4.4984518E-02   1.0285352E-02
      3     -195.4013361319   1.3594733E-02   1.2454418E-02
      4     -195.4411859269  -3.9849795E-02   7.4844575E-03
      5     -195.4549257667  -1.3739840E-02   4.2702046E-03
      6     -195.4597313609  -4.8055942E-03   4.0694634E-03
      7     -195.4596181887   1.1317221E-04   4.0456183E-03
      8     -195.4602097930  -5.9160426E-04   3.7009709E-03
      9     -195.4648248267  -4.6150337E-03   4.6785336E-04
     10     -195.4649120174  -8.7190773E-05   2.6909801E-04
     11     -195.4649342914  -2.2274013E-05   1.6049504E-04
     12     -195.4649320016   2.2898428E-06   1.4339880E-04
     13     -195.4649262799   5.7216992E-06   1.5512569E-04
     14     -195.4649334972  -7.2172779E-06   8.4644605E-05
     15     -195.4649353853  -1.8881424E-06   3.9195531E-05
     16     -195.4649357553  -3.6998330E-07   1.5846644E-05
------------------------------------------------------------

 total:                                   5.543 sec
 * total energy  :  -195.4649358 Eh     change       -0.8180266E-01 Eh
   gradient norm :     0.1047509 Eh/α   predicted    -0.7834922E-01 (  -4.22%)
   displ. norm   :     0.7744659 α      lambda       -0.6567612E-01
   maximum displ.:     0.1946128 α      in ANC's #82, #30, #22, ...

........................................................................
.............................. CYCLE    5 ..............................
........................................................................
------------------------------------------------------------
  cycle        total energy    energy error   density error
------------------------------------------------------------
      1     -195.5172413131  -1.9871152E+02   6.7550611E-03
      2     -195.4930433525   2.4197961E-02   8.6533515E-03
      3     -195.4643985354   2.8644817E-02   1.1956587E-02
      4     -195.5061342403  -4.1735705E-02   5.6809247E-03
      5     -195.5175251204  -1.1390880E-02   2.1824113E-03
      6     -195.5186743086  -1.1491882E-03   1.4143623E-03
      7     -195.5196021717  -9.2786315E-04   5.5751936E-04
      8     -195.5194722815   1.2989021E-04   7.8401052E-04
      9     -195.5196233523  -1.5107083E-04   3.7930823E-04
     10     -195.5196565063  -3.3154000E-05   2.5217576E-04
     11     -195.5196810021  -2.4495734E-05   5.4725028E-05
     12     -195.5196811338  -1.3173468E-07   5.3662370E-05
     13     -195.5196819547  -8.2093931E-07   1.5994975E-05
------------------------------------------------------------

 total:                                   4.688 sec
 * total energy  :  -195.5196820 Eh     change       -0.5474620E-01 Eh
   gradient norm :     0.0795115 Eh/α   predicted    -0.5253427E-01 (  -4.04%)
   displ. norm   :     0.8106878 α      lambda       -0.4737337E-01
   maximum displ.:     0.2286354 α      in ANC's #30, #22, #82, ...

........................................................................
.............................. CYCLE    6 ..............................
........................................................................
------------------------------------------------------------
  cycle        total energy    energy error   density error
------------------------------------------------------------
      1     -195.5593669722  -1.9873728E+02   5.5938045E-03
      2     -195.5393731227   1.9993849E-02   7.6469510E-03
      3     -195.5111382569   2.8234866E-02   1.1316095E-02
      4     -195.5456016595  -3.4463403E-02   5.3362891E-03
      5     -195.5565877779  -1.0986118E-02   2.5884232E-03
      6     -195.5603114233  -3.7236453E-03   5.8715616E-04
      7     -195.5604359620  -1.2453878E-04   2.8524200E-04
      8     -195.5604544646  -1.8502586E-05   1.9465524E-04
      9     -195.5604603935  -5.9288500E-06   1.0903504E-04
     10     -195.5604566769   3.7165665E-06   1.3607590E-04
     11     -195.5604638832  -7.2063180E-06   2.6512060E-05
     12     -195.5604639438  -6.0605942E-08   1.6808734E-05
------------------------------------------------------------

 total:                                   3.283 sec
 * total energy  :  -195.5604639 Eh     change       -0.4078199E-01 Eh
   gradient norm :     0.0619162 Eh/α   predicted    -0.3925397E-01 (  -3.75%)
   displ. norm   :     0.8438352 α      lambda       -0.3719719E-01
   maximum displ.:     0.2536697 α      in ANC's #22, #30, #24, ...

........................................................................
.............................. CYCLE    7 ..............................
........................................................................
------------------------------------------------------------
  cycle        total energy    energy error   density error
------------------------------------------------------------
      1     -195.5928927445  -1.9875125E+02   4.5216911E-03
      2     -195.5851013747   7.7913697E-03   5.0532305E-03
      3     -195.5679172061   1.7184169E-02   7.9354864E-03
      4     -195.5850463576  -1.7129151E-02   3.8611433E-03
      5     -195.5876128835  -2.5665260E-03   3.6140225E-03
      6     -195.5928986456  -5.2857621E-03   1.0444689E-03
      7     -195.5932899387  -3.9129308E-04   3.9232480E-04
      8     -195.5933364444  -4.6505679E-05   1.3533451E-04
      9     -195.5933390681  -2.6237148E-06   8.7584525E-05
     10     -195.5933414803  -2.4121966E-06   4.2011324E-05
     11     -195.5933415552  -7.4944978E-08   3.1615843E-05
     12     -195.5933417704  -2.1512540E-07   1.8294847E-05
------------------------------------------------------------

 total:                                   4.432 sec
 * total energy  :  -195.5933418 Eh     change       -0.3287783E-01 Eh
   gradient norm :     0.0495287 Eh/α   predicted    -0.3184191E-01 (  -3.15%)
   displ. norm   :     0.8687056 α      lambda       -0.3126072E-01
   maximum displ.:     0.2835158 α      in ANC's #22, #30, #24, ...

........................................................................
.............................. CYCLE    8 ..............................
........................................................................
------------------------------------------------------------
  cycle        total energy    energy error   density error
------------------------------------------------------------
      1     -195.6205479054  -1.9876329E+02   3.9785972E-03
      2     -195.6157038806   4.8440248E-03   4.1382028E-03
      3     -195.5778043970   3.7899484E-02   1.0541455E-02
      4     -195.6140074624  -3.6203065E-02   3.6033547E-03
      5     -195.6187673435  -4.7598811E-03   2.0686927E-03
      6     -195.6202544260  -1.4870825E-03   1.2377439E-03
      7     -195.6207465196  -4.9209359E-04   5.5865133E-04
      8     -195.6208558072  -1.0928754E-04   1.3866267E-04
      9     -195.6208588543  -3.0471521E-06   7.6828384E-05
     10     -195.6208584812   3.7313367E-07   7.8083169E-05
     11     -195.6208600999  -1.6187680E-06   3.9468199E-05
     12     -195.6208605228  -4.2280999E-07   1.4774391E-05
------------------------------------------------------------

 total:                                   4.123 sec
 * total energy  :  -195.6208605 Eh     change       -0.2751875E-01 Eh
   gradient norm :     0.0431359 Eh/α   predicted    -0.2742586E-01 (  -0.34%)
   displ. norm   :     0.8929938 α      lambda       -0.2766165E-01
   maximum displ.:     0.2863401 α      in ANC's #22, #30, #24, ...

........................................................................
.............................. CYCLE    9 ..............................
........................................................................
------------------------------------------------------------
  cycle        total energy    energy error   density error
------------------------------------------------------------
      1     -195.6423610394  -1.9876641E+02   3.8324625E-03
      2     -195.6044348660   3.7926173E-02   9.9306655E-03
      3     -195.6337715332  -2.9336667E-02   5.1122434E-03
      4     -195.6327868740   9.8465918E-04   4.6117528E-03
      5     -195.6427336900  -9.9468161E-03   1.1800365E-03
      6     -195.6431955698  -4.6187973E-04   5.0328496E-04
      7     -195.6432953146  -9.9744808E-05   2.3661050E-04
      8     -195.6433025215  -7.2069421E-06   1.6526102E-04
      9     -195.6433085418  -6.0202409E-06   8.3691122E-05
     10     -195.6433105062  -1.9644592E-06   2.9322803E-05
     11     -195.6433105070  -7.6872197E-10   2.8720043E-05
     12     -195.6433106958  -1.8886112E-07   1.6934281E-05
------------------------------------------------------------

 total:                                   2.994 sec
 * total energy  :  -195.6433107 Eh     change       -0.2245017E-01 Eh
   gradient norm :     0.0537756 Eh/α   predicted    -0.2486005E-01 (  10.73%)
   displ. norm   :     0.8567778 α      lambda       -0.2414371E-01
   maximum displ.:     0.3056931 α      in ANC's #22, #30, #24, ...

........................................................................
.............................. CYCLE   10 ..............................
........................................................................
------------------------------------------------------------
  cycle        total energy    energy error   density error
------------------------------------------------------------
      1     -195.6624022824  -1.9877354E+02   2.9828375E-03
      2     -195.6595924011   2.8098813E-03   3.2188688E-03
      3     -195.6418899374   1.7702464E-02   7.1395271E-03
      4     -195.6610127178  -1.9122780E-02   1.8360062E-03
      5     -195.6618296022  -8.1688442E-04   1.2705608E-03
      6     -195.6624662356  -6.3663339E-04   4.4747072E-04
      7     -195.6625610769  -9.4841368E-05   1.2922322E-04
      8     -195.6625664724  -5.3955026E-06   6.4064041E-05
      9     -195.6625671503  -6.7781960E-07   2.7801524E-05
     10     -195.6625671213   2.8978917E-08   2.6420441E-05
     11     -195.6625672947  -1.7347486E-07   1.2678529E-05
------------------------------------------------------------

 total:                                   4.256 sec
 * total energy  :  -195.6625673 Eh     change       -0.1925660E-01 Eh
   gradient norm :     0.0476408 Eh/α   predicted    -0.2093342E-01 (   8.71%)
   displ. norm   :     0.8486226 α      lambda       -0.2084531E-01
   maximum displ.:     0.2983693 α      in ANC's #22, #24, #30, ...

........................................................................
.............................. CYCLE   11 ..............................
........................................................................
------------------------------------------------------------
  cycle        total energy    energy error   density error
------------------------------------------------------------
      1     -195.6776357640  -1.9876734E+02   3.1212396E-03
      2     -195.6769117932   7.2397076E-04   2.4225525E-03
      3     -195.6588650526   1.8046741E-02   6.7593716E-03
      4     -195.6661614447  -7.2963921E-03   5.5082711E-03
      5     -195.6765638305  -1.0402386E-02   1.7346792E-03
      6     -195.6776645916  -1.1007611E-03   7.8187502E-04
      7     -195.6779715388  -3.0694724E-04   2.0686799E-04
      8     -195.6779800015  -8.4626825E-06   1.1964767E-04
      9     -195.6779849520  -4.9505182E-06   3.7037263E-05
     10     -195.6779849587  -6.6720247E-09   3.0514263E-05
     11     -195.6779852482  -2.8950396E-07   1.4621450E-05
------------------------------------------------------------

 total:                                   3.252 sec
 * total energy  :  -195.6779852 Eh     change       -0.1541795E-01 Eh
   gradient norm :     0.0549402 Eh/α   predicted    -0.1792866E-01 (  16.28%)
   displ. norm   :     0.8160959 α      lambda       -0.1743704E-01
   maximum displ.:     0.2881173 α      in ANC's #22, #24, #34, ...

........................................................................
.............................. CYCLE   12 ..............................
........................................................................
------------------------------------------------------------
  cycle        total energy    energy error   density error
------------------------------------------------------------
      1     -195.6920314871  -1.9877257E+02   2.4845320E-03
      2     -195.6892950729   2.7364142E-03   2.8540170E-03
      3     -195.6786947109   1.0600362E-02   5.8245000E-03
      4     -195.6819674787  -3.2727677E-03   4.9386735E-03
      5     -195.6918724790  -9.9050004E-03   9.8268884E-04
      6     -195.6922452310  -3.7275194E-04   3.4245306E-04
      7     -195.6922971323  -5.1901304E-05   1.5329256E-04
      8     -195.6923042704  -7.1381383E-06   7.0016129E-05
      9     -195.6923033214   9.4904274E-07   7.8202783E-05
     10     -195.6923056120  -2.2906585E-06   2.0058437E-05
     11     -195.6923056520  -3.9944780E-08   1.3837795E-05
------------------------------------------------------------

 total:                                   2.588 sec
 * total energy  :  -195.6923057 Eh     change       -0.1432040E-01 Eh
   gradient norm :     0.0320184 Eh/α   predicted    -0.1452517E-01 (   1.43%)
   displ. norm   :     0.8471828 α      lambda       -0.1443721E-01
   maximum displ.:     0.3144500 α      in ANC's #22, #24, #18, ...

........................................................................
.............................. CYCLE   13 ..............................
........................................................................
------------------------------------------------------------
  cycle        total energy    energy error   density error
------------------------------------------------------------
      1     -195.7042502446  -1.9877022E+02   2.5302968E-03
      2     -195.7013318593   2.9183853E-03   3.1277345E-03
      3     -195.6889789757   1.2352884E-02   6.2265803E-03
      4     -195.7012454530  -1.2266477E-02   2.3522645E-03
      5     -195.7032860587  -2.0406057E-03   1.5274763E-03
      6     -195.7043353225  -1.0492638E-03   2.4696987E-04
      7     -195.7043565103  -2.1187744E-05   8.1019057E-05
      8     -195.7043571863  -6.7604108E-07   6.2963860E-05
      9     -195.7043577803  -5.9401660E-07   4.6048797E-05
     10     -195.7043582509  -4.7063133E-07   2.3414134E-05
     11     -195.7043584026  -1.5169277E-07   1.0972620E-05
------------------------------------------------------------

 total:                                   2.538 sec
 * total energy  :  -195.7043584 Eh     change       -0.1205275E-01 Eh
   gradient norm :     0.0294281 Eh/α   predicted    -0.1239955E-01 (   2.88%)
   displ. norm   :     0.8568541 α      lambda       -0.1205782E-01
   maximum displ.:     0.3043042 α      in ANC's #22, #24, #18, ...

........................................................................
.............................. CYCLE   14 ..............................
........................................................................
------------------------------------------------------------
  cycle        total energy    energy error   density error
------------------------------------------------------------
      1     -195.7146400144  -1.9877137E+02   2.4645373E-03
      2     -195.7005935496   1.4046465E-02   6.1954181E-03
      3     -195.7102769735  -9.6834240E-03   3.5416243E-03
      4     -195.7108041878  -5.2721425E-04   2.9848503E-03
      5     -195.7141460357  -3.3418479E-03   1.2424128E-03
      6     -195.7148425759  -6.9654018E-04   4.1239887E-04
      7     -195.7148885818  -4.6005924E-05   2.4180028E-04
      8     -195.7149049773  -1.6395538E-05   1.2386172E-04
      9     -195.7149102434  -5.2660216E-06   3.5702769E-05
     10     -195.7149104677  -2.2438567E-07   1.6768514E-05
------------------------------------------------------------

 total:                                   2.567 sec
 * total energy  :  -195.7149105 Eh     change       -0.1055207E-01 Eh
   gradient norm :     0.0225245 Eh/α   predicted    -0.1045533E-01 (  -0.92%)
   displ. norm   :     0.8656870 α      lambda       -0.1005586E-01
   maximum displ.:     0.3001000 α      in ANC's #22, #19, #18, ...

........................................................................
.............................. CYCLE   15 ..............................
........................................................................
------------------------------------------------------------
  cycle        total energy    energy error   density error
------------------------------------------------------------
      1     -195.7236014438  -1.9876702E+02   2.5866350E-03
      2     -195.7124155059   1.1185938E-02   5.4323337E-03
      3     -195.7147118395  -2.2963336E-03   4.9526224E-03
      4     -195.7179001038  -3.1882643E-03   3.3700518E-03
      5     -195.7229284814  -5.0283776E-03   1.3738742E-03
      6     -195.7237718088  -8.4332737E-04   2.7326571E-04
      7     -195.7237993676  -2.7558800E-05   9.9500781E-05
      8     -195.7238013616  -1.9939965E-06   6.4343931E-05
      9     -195.7238015143  -1.5275802E-07   4.9649141E-05
     10     -195.7238016987  -1.8435821E-07   3.1184188E-05
     11     -195.7238019770  -2.7833590E-07   1.2530360E-05
------------------------------------------------------------

 total:                                   3.950 sec
 * total energy  :  -195.7238020 Eh     change       -0.8891509E-02 Eh
   gradient norm :     0.0215721 Eh/α   predicted    -0.8795952E-02 (  -1.07%)
   displ. norm   :     0.8774742 α      lambda       -0.9251637E-02
   maximum displ.:     0.2731758 α      in ANC's #22, #18, #19, ...

........................................................................
.............................. CYCLE   16 ..............................
........................................................................
------------------------------------------------------------
  cycle        total energy    energy error   density error
------------------------------------------------------------
      1     -195.7307733999  -1.9877015E+02   2.9354446E-03
      2     -195.7075124666   2.3260933E-02   7.7702105E-03
      3     -195.7273376563  -1.9825190E-02   3.4013979E-03
      4     -195.7267917617   5.4589464E-04   3.0619722E-03
      5     -195.7302746602  -3.4828986E-03   1.4831993E-03
      6     -195.7311568444  -8.8218412E-04   5.9872539E-04
      7     -195.7311861493  -2.9304970E-05   5.0924539E-04
      8     -195.7312769992  -9.0849822E-05   1.4925173E-04
      9     -195.7312841933  -7.1941330E-06   3.0062236E-05
     10     -195.7312842677  -7.4359633E-08   2.2895611E-05
     11     -195.7312843653  -9.7637866E-08   1.6117847E-05
------------------------------------------------------------

 total:                                   4.340 sec
 * total energy  :  -195.7312844 Eh     change       -0.7482388E-02 Eh
   gradient norm :     0.0347655 Eh/α   predicted    -0.8187517E-02 (   9.42%)
   displ. norm   :     0.8238201 α      lambda       -0.8233066E-02
   maximum displ.:     0.2468356 α      in ANC's #22, #19, #18, ...

........................................................................
.............................. CYCLE   17 ..............................
........................................................................
------------------------------------------------------------
  cycle        total energy    energy error   density error
------------------------------------------------------------
      1     -195.7377607005  -1.9876767E+02   2.7179871E-03
      2     -195.7364653170   1.2953835E-03   2.3854303E-03
      3     -195.7322317696   4.2335473E-03   3.5245435E-03
      4     -195.7184809048   1.3750865E-02   6.7153132E-03
      5     -195.7375705803  -1.9089676E-02   9.9023685E-04
      6     -195.7379034401  -3.3285979E-04   3.4679246E-04
      7     -195.7379494069  -4.5966766E-05   1.7505852E-04
      8     -195.7379542893  -4.8824828E-06   1.3256719E-04
      9     -195.7379566435  -2.3541612E-06   9.2021926E-05
     10     -195.7379587597  -2.1162097E-06   4.6041230E-05
     11     -195.7379594740  -7.1434329E-07   1.2393418E-05
------------------------------------------------------------

 total:                                   3.800 sec
 * total energy  :  -195.7379595 Eh     change       -0.6675109E-02 Eh
   gradient norm :     0.0220193 Eh/α   predicted    -0.6910352E-02 (   3.52%)
   displ. norm   :     0.8234617 α      lambda       -0.6555644E-02
   maximum displ.:     0.2265452 α      in ANC's #22, #19, #8, ...

........................................................................
.............................. CYCLE   18 ..............................
........................................................................
------------------------------------------------------------
  cycle        total energy    energy error   density error
------------------------------------------------------------
      1     -195.7432112988  -1.9876149E+02   2.8175737E-03
      2     -195.7192047974   2.4006501E-02   7.7616167E-03
      3     -195.7342007021  -1.4995905E-02   5.0210720E-03
      4     -195.7361909395  -1.9902373E-03   3.8488472E-03
      5     -195.7429252860  -6.7343466E-03   1.0928238E-03
      6     -195.7435050981  -5.7981206E-04   2.4933468E-04
      7     -195.7435192882  -1.4190100E-05   1.4835676E-04
      8     -195.7435248399  -5.5517554E-06   8.3135517E-05
      9     -195.7435253037  -4.6373270E-07   6.0930188E-05
     10     -195.7435258606  -5.5690816E-07   3.4607080E-05
     11     -195.7435261540  -2.9343116E-07   1.4723784E-05
------------------------------------------------------------

 total:                                   3.142 sec
 * total energy  :  -195.7435262 Eh     change       -0.5566680E-02 Eh
   gradient norm :     0.0195002 Eh/α   predicted    -0.5500482E-02 (  -1.19%)
   displ. norm   :     0.8265241 α      lambda       -0.5771731E-02
   maximum displ.:     0.2446444 α      in ANC's #14, #19, #8, ...

........................................................................
.............................. CYCLE   19 ..............................
........................................................................
------------------------------------------------------------
  cycle        total energy    energy error   density error
------------------------------------------------------------
      1     -195.7483795173  -1.9876975E+02   2.6740019E-03
      2     -195.7464071553   1.9723620E-03   2.7532867E-03
      3     -195.7223920359   2.4015119E-02   7.9477861E-03
      4     -195.7317695191  -9.3774832E-03   6.1782993E-03
      5     -195.7479742902  -1.6204771E-02   1.0288042E-03
      6     -195.7483867898  -4.1249955E-04   5.2324926E-04
      7     -195.7484685988  -8.1808998E-05   2.8059201E-04
      8     -195.7484945190  -2.5920245E-05   1.0478302E-04
      9     -195.7484976705  -3.1514869E-06   4.5485680E-05
     10     -195.7484976600   1.0524786E-08   3.3464094E-05
     11     -195.7484980553  -3.9531341E-07   9.2480685E-06
------------------------------------------------------------

 total:                                   3.228 sec
 * total energy  :  -195.7484981 Eh     change       -0.4971901E-02 Eh
   gradient norm :     0.0161659 Eh/α   predicted    -0.4857314E-02 (  -2.30%)
   displ. norm   :     0.8455747 α      lambda       -0.5284245E-02
   maximum displ.:     0.2657263 α      in ANC's #14, #8, #19, ...

........................................................................
.............................. CYCLE   20 ..............................
........................................................................
------------------------------------------------------------
  cycle        total energy    energy error   density error
------------------------------------------------------------
      1     -195.7525291277  -1.9876573E+02   3.0257546E-03
      2     -195.7495530386   2.9760891E-03   3.1582908E-03
      3     -195.7248563116   2.4696727E-02   8.0676985E-03
      4     -195.7417743282  -1.6918017E-02   4.8149045E-03
      5     -195.7517235147  -9.9491865E-03   1.4450161E-03
      6     -195.7525453409  -8.2182623E-04   5.8319719E-04
      7     -195.7525190614   2.6279557E-05   6.2180442E-04
      8     -195.7525511950  -3.2133607E-05   5.3653550E-04
      9     -195.7526319360  -8.0741061E-05   2.7222457E-04
     10     -195.7526604873  -2.8551222E-05   3.5146037E-05
     11     -195.7526605939  -1.0660497E-07   3.2598639E-05
     12     -195.7526608046  -2.1069525E-07   1.9339093E-05
------------------------------------------------------------

 total:                                   4.400 sec
 * total energy  :  -195.7526608 Eh     change       -0.4162749E-02 Eh
   gradient norm :     0.0255693 Eh/α   predicted    -0.4531234E-02 (   8.85%)
   displ. norm   :     0.7749808 α      lambda       -0.5072463E-02
   maximum displ.:     0.2874984 α      in ANC's #14, #8, #31, ...
 * RMSD in coord.:     1.1210479 α      energy gain  -0.7866780E+00 Eh

generating ANC from exact Hessian ...
Using Lindh-Hessian (1995)
 Shifting diagonal of input Hessian by    1.0425139533267994E-002
 Lowest  eigenvalues of input Hessian
    0.010000    0.000000    0.000000    0.000000    0.000000    0.000000
    0.000000    0.010463    0.010520    0.010567    0.010629    0.010723
    0.010843    0.010877    0.010898    0.010960    0.011221    0.011230
 Highest eigenvalues
    2.080658    2.082143    2.187297    2.193968    2.196230    2.201280


........................................................................
.............................. CYCLE   21 ..............................
........................................................................
------------------------------------------------------------
  cycle        total energy    energy error   density error
------------------------------------------------------------
      1     -195.7560884440  -1.9877398E+02   2.6975024E-03
      2     -195.7250265221   3.1061922E-02   8.7008487E-03
      3     -195.7477587818  -2.2732260E-02   4.7686628E-03
      4     -195.7506058889  -2.8471071E-03   3.5707089E-03
      5     -195.7559828625  -5.3769736E-03   1.0113306E-03
      6     -195.7563228187  -3.3995620E-04   5.9355687E-04
      7     -195.7564224826  -9.9663902E-05   3.2518592E-04
      8     -195.7564612176  -3.8734992E-05   9.7074162E-05
      9     -195.7564622835  -1.0659178E-06   7.3892100E-05
     10     -195.7564637467  -1.4632275E-06   3.6892174E-05
     11     -195.7564641888  -4.4210293E-07   1.4907315E-05
------------------------------------------------------------

 total:                                  13.240 sec
 * total energy  :  -195.7564642 Eh     change       -0.3803384E-02 Eh
   gradient norm :     0.0209979 Eh/α   predicted     0.0000000E+00 (-100.00%)
   displ. norm   :     0.3404633 α      lambda       -0.2739683E-02
   maximum displ.:     0.1180821 α      in ANC's #9, #6, #27, ...

........................................................................
.............................. CYCLE   22 ..............................
........................................................................
------------------------------------------------------------
  cycle        total energy    energy error   density error
------------------------------------------------------------
      1     -195.7587888276  -1.9878028E+02   1.4988406E-03
      2     -195.7583208797   4.6794793E-04   1.3323451E-03
      3     -195.7412421019   1.7078778E-02   6.4411912E-03
      4     -195.7585547034  -1.7312602E-02   7.2369284E-04
      5     -195.7586324184  -7.7715035E-05   6.1873242E-04
      6     -195.7587912549  -1.5883645E-04   2.1308580E-04
      7     -195.7587868878   4.3671076E-06   2.2603101E-04
      8     -195.7587975083  -1.0620522E-05   1.5720483E-04
      9     -195.7588059953  -8.4869725E-06   5.8099060E-05
     10     -195.7588073298  -1.3345722E-06   7.2927579E-06
     11     -195.7588073469  -1.7075649E-08   3.0963140E-06
------------------------------------------------------------

 total:                                  13.227 sec
 * total energy  :  -195.7588073 Eh     change       -0.2343158E-02 Eh
   gradient norm :     0.0095193 Eh/α   predicted    -0.1528666E-02 ( -34.76%)
   displ. norm   :     0.7317049 α      lambda       -0.4183516E-02
   maximum displ.:     0.2619527 α      in ANC's #9, #27, #6, ...

........................................................................
.............................. CYCLE   23 ..............................
........................................................................
------------------------------------------------------------
  cycle        total energy    energy error   density error
------------------------------------------------------------
      1     -195.7622265244  -1.9878487E+02   2.8943176E-03
      2     -195.7613450706   8.8145376E-04   2.3303051E-03
      3     -195.7178584502   4.3486620E-02   1.0195986E-02
      4     -195.7605302210  -4.2671771E-02   1.9779787E-03
      5     -195.7617634463  -1.2332253E-03   1.1243982E-03
      6     -195.7621438423  -3.8039598E-04   5.9244889E-04
      7     -195.7622723188  -1.2847652E-04   2.2259587E-04
      8     -195.7622845350  -1.2216200E-05   1.3643330E-04
      9     -195.7622915928  -7.0578375E-06   5.2774733E-05
     10     -195.7622912609   3.3188175E-07   5.7215096E-05
     11     -195.7622922184  -9.5741964E-07   2.9618361E-05
     12     -195.7622924643  -2.4591219E-07   1.3961924E-05
------------------------------------------------------------

 total:                                  14.197 sec
 * total energy  :  -195.7622925 Eh     change       -0.3485117E-02 Eh
   gradient norm :     0.0177585 Eh/α   predicted    -0.3212375E-02 (  -7.83%)
   displ. norm   :     0.7774756 α      lambda       -0.3580305E-02
   maximum displ.:     0.2911376 α      in ANC's #9, #27, #11, ...

........................................................................
.............................. CYCLE   24 ..............................
........................................................................
------------------------------------------------------------
  cycle        total energy    energy error   density error
------------------------------------------------------------
      1     -195.7654381652  -1.9878499E+02   2.8363337E-03
      2     -195.7563091528   9.1290124E-03   4.8741180E-03
      3     -195.7449069750   1.1402178E-02   7.0764065E-03
      4     -195.7644479100  -1.9540935E-02   1.6023026E-03
      5     -195.7651866018  -7.3869182E-04   9.0202604E-04
      6     -195.7654358292  -2.4922743E-04   5.3583351E-04
      7     -195.7654189640   1.6865274E-05   5.8285321E-04
      8     -195.7654269051  -7.9411799E-06   5.4847518E-04
      9     -195.7655377541  -1.1084900E-04   1.3189822E-04
     10     -195.7655445135  -6.7594088E-06   1.3149766E-05
     11     -195.7655445353  -2.1800304E-08   9.5781714E-06
------------------------------------------------------------

 total:                                  10.475 sec
 * total energy  :  -195.7655445 Eh     change       -0.3252071E-02 Eh
   gradient norm :     0.0237350 Eh/α   predicted    -0.2872242E-02 ( -11.68%)
   displ. norm   :     0.8180754 α      lambda       -0.3958491E-02
   maximum displ.:     0.3155330 α      in ANC's #9, #11, #6, ...

........................................................................
.............................. CYCLE   25 ..............................
........................................................................
------------------------------------------------------------
  cycle        total energy    energy error   density error
------------------------------------------------------------
      1     -195.7690464630  -1.9878635E+02   2.8003632E-03
      2     -195.7642773965   4.7690665E-03   3.7876347E-03
      3     -195.7411651236   2.3112273E-02   8.1895286E-03
      4     -195.7677554570  -2.6590333E-02   1.7965345E-03
      5     -195.7687390014  -9.8354437E-04   9.4272848E-04
      6     -195.7690132536  -2.7425222E-04   5.0383097E-04
      7     -195.7691166733  -1.0341970E-04   1.7793370E-04
      8     -195.7691166097   6.3538153E-08   1.7939144E-04
      9     -195.7691295141  -1.2904309E-05   3.2645642E-05
     10     -195.7691289525   5.6155002E-07   4.6406977E-05
     11     -195.7691295982  -6.4571407E-07   2.5121655E-05
     12     -195.7691298071  -2.0886725E-07   1.0011711E-05
------------------------------------------------------------

 total:                                  11.890 sec
 * total energy  :  -195.7691298 Eh     change       -0.3585272E-02 Eh
   gradient norm :     0.0179665 Eh/α   predicted    -0.3303851E-02 (  -7.85%)
   displ. norm   :     0.8342098 α      lambda       -0.3852783E-02
   maximum displ.:     0.3301293 α      in ANC's #9, #11, #6, ...

........................................................................
.............................. CYCLE   26 ..............................
........................................................................
------------------------------------------------------------
  cycle        total energy    energy error   density error
------------------------------------------------------------
      1     -195.7725057076  -1.9878952E+02   2.8316676E-03
      2     -195.7658646125   6.6410951E-03   4.2320808E-03
      3     -195.7492485655   1.6616047E-02   7.4094121E-03
      4     -195.7716141393  -2.2365574E-02   1.5490520E-03
      5     -195.7722131139  -5.9897462E-04   9.2449095E-04
      6     -195.7724901749  -2.7706104E-04   5.3887356E-04
      7     -195.7724748839   1.5291046E-05   5.8307947E-04
      8     -195.7724677206   7.1632186E-06   5.8294539E-04
      9     -195.7725861364  -1.1841576E-04   1.7920354E-04
     10     -195.7725988771  -1.2740704E-05   1.7208750E-05
     11     -195.7725989524  -7.5282685E-08   1.0795592E-05
------------------------------------------------------------

 total:                                   8.762 sec
 * total energy  :  -195.7725990 Eh     change       -0.3469145E-02 Eh
   gradient norm :     0.0124331 Eh/α   predicted    -0.3266984E-02 (  -5.83%)
   displ. norm   :     0.8425139 α      lambda       -0.3512966E-02
   maximum displ.:     0.3425735 α      in ANC's #9, #11, #6, ...

........................................................................
.............................. CYCLE   27 ..............................
........................................................................
------------------------------------------------------------
  cycle        total energy    energy error   density error
------------------------------------------------------------
      1     -195.7756839970  -1.9879433E+02   2.7999564E-03
      2     -195.7685862072   7.0977898E-03   4.3451709E-03
      3     -195.7535572821   1.5028925E-02   7.2294979E-03
      4     -195.7751466723  -2.1589390E-02   1.1431734E-03
      5     -195.7755239445  -3.7727224E-04   7.3423601E-04
      6     -195.7756516127  -1.2766819E-04   5.7514111E-04
      7     -195.7756612142  -9.6014782E-06   5.6501539E-04
      8     -195.7756594116   1.8026485E-06   5.5387763E-04
      9     -195.7757617547  -1.0234316E-04   2.0165347E-04
     10     -195.7757774832  -1.5728497E-05   1.0933758E-05
     11     -195.7757774790   4.1862620E-09   1.0005963E-05
------------------------------------------------------------

 total:                                  10.200 sec
 * total energy  :  -195.7757775 Eh     change       -0.3178527E-02 Eh
   gradient norm :     0.0102183 Eh/α   predicted    -0.3003287E-02 (  -5.51%)
   displ. norm   :     0.8658067 α      lambda       -0.3226154E-02
   maximum displ.:     0.3562673 α      in ANC's #9, #6, #11, ...

........................................................................
.............................. CYCLE   28 ..............................
........................................................................
------------------------------------------------------------
  cycle        total energy    energy error   density error
------------------------------------------------------------
      1     -195.7785833191  -1.9879577E+02   2.8294712E-03
      2     -195.7644968174   1.4086502E-02   5.9200367E-03
      3     -195.7622384429   2.2583745E-03   6.3358830E-03
      4     -195.7765784047  -1.4339962E-02   2.0286130E-03
      5     -195.7783478433  -1.7694386E-03   9.1377932E-04
      6     -195.7786741182  -3.2627489E-04   3.9328572E-04
      7     -195.7786721486   1.9696259E-06   4.0380605E-04
      8     -195.7786711549   9.9365823E-07   3.9517825E-04
      9     -195.7787160798  -4.4924846E-05   1.9942941E-04
     10     -195.7787310231  -1.4943328E-05   3.7332131E-05
     11     -195.7787314406  -4.1742649E-07   1.5015753E-05
------------------------------------------------------------

 total:                                   9.536 sec
 * total energy  :  -195.7787314 Eh     change       -0.2953962E-02 Eh
   gradient norm :     0.0126675 Eh/α   predicted    -0.2822319E-02 (  -4.46%)
   displ. norm   :     0.8537530 α      lambda       -0.3334770E-02
   maximum displ.:     0.3521711 α      in ANC's #9, #11, #6, ...

........................................................................
.............................. CYCLE   29 ..............................
........................................................................
------------------------------------------------------------
  cycle        total energy    energy error   density error
------------------------------------------------------------
      1     -195.7813232886  -1.9881220E+02   2.6696408E-03
      2     -195.7752922617   6.0310270E-03   4.0879018E-03
      3     -195.7584147248   1.6877537E-02   7.4193846E-03
      4     -195.7802634867  -2.1848762E-02   1.4806506E-03
      5     -195.7808254032  -5.6191650E-04   1.1175816E-03
      6     -195.7813873226  -5.6191943E-04   2.6060732E-04
      7     -195.7814160432  -2.8720580E-05   7.9802840E-05
      8     -195.7814091092   6.9339748E-06   1.4902069E-04
      9     -195.7814146898  -5.5806176E-06   9.1572865E-05
     10     -195.7814178128  -3.1229590E-06   1.8865957E-05
     11     -195.7814179024  -8.9630419E-08   9.3195921E-06
------------------------------------------------------------

 total:                                  10.020 sec
 * total energy  :  -195.7814179 Eh     change       -0.2686462E-02 Eh
   gradient norm :     0.0200572 Eh/α   predicted    -0.2882732E-02 (   7.31%)
   displ. norm   :     0.8487527 α      lambda       -0.3297952E-02
   maximum displ.:     0.3465250 α      in ANC's #9, #6, #11, ...

........................................................................
.............................. CYCLE   30 ..............................
........................................................................
------------------------------------------------------------
  cycle        total energy    energy error   density error
------------------------------------------------------------
      1     -195.7839654890  -1.9880259E+02   2.7331276E-03
      2     -195.7771229375   6.8425516E-03   4.2194893E-03
      3     -195.7622769549   1.4845983E-02   7.1600126E-03
      4     -195.7773051418  -1.5028187E-02   3.6809880E-03
      5     -195.7838167661  -6.5116243E-03   9.1061821E-04
      6     -195.7839882754  -1.7150935E-04   6.1697176E-04
      7     -195.7840188616  -3.0586161E-05   5.5212157E-04
      8     -195.7840745923  -5.5730767E-05   3.9768898E-04
      9     -195.7841220798  -4.7487426E-05   1.9112844E-04
     10     -195.7841355430  -1.3463196E-05   4.5650576E-05
     11     -195.7841361428  -5.9980587E-07   1.8810794E-05
------------------------------------------------------------

 total:                                  10.817 sec
 * total energy  :  -195.7841361 Eh     change       -0.2718240E-02 Eh
   gradient norm :     0.0177174 Eh/α   predicted    -0.2836869E-02 (   4.36%)
   displ. norm   :     0.7726741 α      lambda       -0.2743454E-02
   maximum displ.:     0.3129862 α      in ANC's #6, #9, #11, ...

........................................................................
.............................. CYCLE   31 ..............................
........................................................................
------------------------------------------------------------
  cycle        total energy    energy error   density error
------------------------------------------------------------
      1     -195.7865547834  -1.9880016E+02   2.2278946E-03
      2     -195.7847771037   1.7776797E-03   2.3830549E-03
      3     -195.7645069474   2.0270156E-02   7.0951175E-03
      4     -195.7831667663  -1.8659819E-02   2.6233137E-03
      5     -195.7862984583  -3.1316920E-03   8.8929135E-04
      6     -195.7865519087  -2.5345034E-04   4.6253587E-04
      7     -195.7865620515  -1.0142781E-05   4.3117309E-04
      8     -195.7866025731  -4.0521602E-05   2.8228778E-04
      9     -195.7866323156  -2.9742539E-05   6.4881124E-05
     10     -195.7866338771  -1.5614558E-06   1.0880185E-05
     11     -195.7866338633   1.3733541E-08   1.0079422E-05
------------------------------------------------------------

 total:                                   9.291 sec
 * total energy  :  -195.7866339 Eh     change       -0.2497721E-02 Eh
   gradient norm :     0.0164938 Eh/α   predicted    -0.2190688E-02 ( -12.29%)
   displ. norm   :     0.7823347 α      lambda       -0.3297713E-02
   maximum displ.:     0.3095277 α      in ANC's #6, #11, #9, ...

........................................................................
.............................. CYCLE   32 ..............................
........................................................................
------------------------------------------------------------
  cycle        total energy    energy error   density error
------------------------------------------------------------
      1     -195.7891718449  -1.9880986E+02   2.3995397E-03
      2     -195.7644952286   2.4676616E-02   7.6980189E-03
      3     -195.7828235790  -1.8328350E-02   4.1287564E-03
      4     -195.7866009211  -3.7773421E-03   2.3599457E-03
      5     -195.7889647537  -2.3638326E-03   9.6525327E-04
      6     -195.7893973682  -4.3261452E-04   1.8983259E-04
      7     -195.7894037522  -6.3839742E-06   1.5668961E-04
      8     -195.7894003049   3.4472449E-06   1.7816736E-04
      9     -195.7894087929  -8.4879595E-06   1.0305913E-04
     10     -195.7894123693  -3.5763998E-06   3.7087678E-05
     11     -195.7894125575  -1.8820182E-07   2.7075960E-05
     12     -195.7894127217  -1.6419904E-07   1.5574622E-05
------------------------------------------------------------

 total:                                  11.418 sec
 * total energy  :  -195.7894127 Eh     change       -0.2778858E-02 Eh
   gradient norm :     0.0147845 Eh/α   predicted    -0.2658042E-02 (  -4.35%)
   displ. norm   :     0.8417534 α      lambda       -0.2866788E-02
   maximum displ.:     0.3573928 α      in ANC's #6, #11, #9, ...

........................................................................
.............................. CYCLE   33 ..............................
........................................................................
------------------------------------------------------------
  cycle        total energy    energy error   density error
------------------------------------------------------------
      1     -195.7917904506  -1.9880855E+02   2.4523982E-03
      2     -195.7883895804   3.4008702E-03   3.2253642E-03
      3     -195.7670297417   2.1359839E-02   7.6640010E-03
      4     -195.7834410175  -1.6411276E-02   4.1374419E-03
      5     -195.7916730540  -8.2320364E-03   7.2042368E-04
      6     -195.7918683792  -1.9532526E-04   2.1010311E-04
      7     -195.7918848651  -1.6485852E-05   1.0267061E-04
      8     -195.7918812574   3.6076704E-06   1.4193053E-04
      9     -195.7918860248  -4.7673771E-06   9.0959782E-05
     10     -195.7918885085  -2.4837500E-06   4.1982835E-05
     11     -195.7918888437  -3.3514107E-07   2.8661136E-05
     12     -195.7918889731  -1.2939216E-07   2.1160369E-05
     13     -195.7918890914  -1.1830483E-07   1.1692405E-05
------------------------------------------------------------

 total:                                  12.681 sec
 * total energy  :  -195.7918891 Eh     change       -0.2476370E-02 Eh
   gradient norm :     0.0150191 Eh/α   predicted    -0.2449033E-02 (  -1.10%)
   displ. norm   :     0.7902233 α      lambda       -0.2653311E-02
   maximum displ.:     0.3319638 α      in ANC's #6, #3, #11, ...

........................................................................
.............................. CYCLE   34 ..............................
........................................................................
------------------------------------------------------------
  cycle        total energy    energy error   density error
------------------------------------------------------------
      1     -195.7940540487  -1.9881642E+02   2.3156866E-03
      2     -195.7938924374   1.6161131E-04   1.5208611E-03
      3     -195.7805378627   1.3354575E-02   5.3547061E-03
      4     -195.7795458883   9.9197441E-04   5.8410334E-03
      5     -195.7936011452  -1.4055257E-02   1.0683561E-03
      6     -195.7940918336  -4.9068840E-04   1.8425884E-04
      7     -195.7941026770  -1.0843388E-05   9.3581466E-05
      8     -195.7941036921  -1.0150967E-06   8.7315097E-05
      9     -195.7941049673  -1.2751764E-06   6.2397154E-05
     10     -195.7941058132  -8.4590243E-07   3.7049703E-05
     11     -195.7941061438  -3.3060692E-07   2.2084067E-05
     12     -195.7941062930  -1.4916785E-07   9.4005434E-06
------------------------------------------------------------

 total:                                  14.832 sec
 * total energy  :  -195.7941063 Eh     change       -0.2217202E-02 Eh
   gradient norm :     0.0132181 Eh/α   predicted    -0.2155095E-02 (  -2.80%)
   displ. norm   :     0.7867014 α      lambda       -0.2195678E-02
   maximum displ.:     0.3722711 α      in ANC's #6, #3, #11, ...

........................................................................
.............................. CYCLE   35 ..............................
........................................................................
------------------------------------------------------------
  cycle        total energy    energy error   density error
------------------------------------------------------------
      1     -195.7959432091  -1.9881429E+02   2.0655871E-03
      2     -195.7957991579   1.4405123E-04   1.3616530E-03
      3     -195.7894046950   6.3944628E-03   3.7707851E-03
      4     -195.7867750077   2.6296873E-03   4.5763528E-03
      5     -195.7957527582  -8.9777505E-03   7.3074013E-04
      6     -195.7959711260  -2.1836778E-04   1.8035064E-04
      7     -195.7959841101  -1.2984114E-05   7.1376385E-05
      8     -195.7959855574  -1.4472197E-06   3.9806283E-05
      9     -195.7959859452  -3.8786177E-07   1.9841944E-05
------------------------------------------------------------

 total:                                  10.259 sec
 * total energy  :  -195.7959859 Eh     change       -0.1879652E-02 Eh
   gradient norm :     0.0119959 Eh/α   predicted    -0.1777299E-02 (  -5.45%)
   displ. norm   :     0.7327984 α      lambda       -0.2061744E-02
   maximum displ.:     0.3605485 α      in ANC's #6, #3, #11, ...

........................................................................
.............................. CYCLE   36 ..............................
........................................................................
------------------------------------------------------------
  cycle        total energy    energy error   density error
------------------------------------------------------------
      1     -195.7974344102  -1.9881962E+02   1.8945144E-03
      2     -195.7865737660   1.0860644E-02   5.1481768E-03
      3     -195.7921352987  -5.5615327E-03   3.7141958E-03
      4     -195.7970514947  -4.9161960E-03   1.0723430E-03
      5     -195.7974499212  -3.9842646E-04   5.1896602E-04
      6     -195.7974873109  -3.7389744E-05   4.0146071E-04
      7     -195.7975327573  -4.5446353E-05   2.5617625E-04
      8     -195.7975459810  -1.3223677E-05   1.7536333E-04
      9     -195.7975552646  -9.2835826E-06   8.0210125E-05
     10     -195.7975574883  -2.2237213E-06   2.5799115E-05
     11     -195.7975577128  -2.2449018E-07   8.5029982E-06
------------------------------------------------------------

 total:                                  11.087 sec
 * total energy  :  -195.7975577 Eh     change       -0.1571768E-02 Eh
   gradient norm :     0.0176686 Eh/α   predicted    -0.1584444E-02 (   0.81%)
   displ. norm   :     0.7506376 α      lambda       -0.2107714E-02
   maximum displ.:     0.3721039 α      in ANC's #6, #3, #11, ...

........................................................................
.............................. CYCLE   37 ..............................
........................................................................
------------------------------------------------------------
  cycle        total energy    energy error   density error
------------------------------------------------------------
      1     -195.7990648419  -1.9882037E+02   1.7438358E-03
      2     -195.7965362311   2.5286108E-03   2.6445822E-03
      3     -195.7858741257   1.0662105E-02   5.6765379E-03
      4     -195.7947725308  -8.8984052E-03   2.9556023E-03
      5     -195.7990685698  -4.2960390E-03   3.4829817E-04
      6     -195.7991075960  -3.9026127E-05   1.3720771E-04
      7     -195.7991146075  -7.0115654E-06   6.3374267E-05
      8     -195.7991159495  -1.3419759E-06   2.7083291E-05
      9     -195.7991160131  -6.3643398E-08   1.7722304E-05
------------------------------------------------------------

 total:                                   7.735 sec
 * total energy  :  -195.7991160 Eh     change       -0.1558300E-02 Eh
   gradient norm :     0.0161018 Eh/α   predicted    -0.1647667E-02 (   5.73%)
   displ. norm   :     0.6787152 α      lambda       -0.1851279E-02
   maximum displ.:     0.3566037 α      in ANC's #6, #3, #8, ...

........................................................................
.............................. CYCLE   38 ..............................
........................................................................
------------------------------------------------------------
  cycle        total energy    energy error   density error
------------------------------------------------------------
      1     -195.8005439857  -1.9881644E+02   1.5374354E-03
      2     -195.7861030526   1.4440933E-02   5.8647975E-03
      3     -195.7988657971  -1.2762745E-02   2.2436464E-03
      4     -195.8003621946  -1.4963975E-03   8.4427890E-04
      5     -195.8005649993  -2.0280474E-04   5.5909460E-04
      6     -195.8006765424  -1.1154304E-04   2.7927632E-04
      7     -195.8006991677  -2.2625351E-05   1.4867915E-04
      8     -195.8007061223  -6.9546390E-06   6.3757965E-05
      9     -195.8007073901  -1.2677939E-06   2.4029194E-05
     10     -195.8007076138  -2.2361752E-07   6.0447970E-06
------------------------------------------------------------

 total:                                  10.032 sec
 * total energy  :  -195.8007076 Eh     change       -0.1591601E-02 Eh
   gradient norm :     0.0136973 Eh/α   predicted    -0.1352041E-02 ( -15.05%)
   displ. norm   :     0.7196363 α      lambda       -0.2428434E-02
   maximum displ.:     0.3861977 α      in ANC's #6, #3, #8, ...

........................................................................
.............................. CYCLE   39 ..............................
........................................................................
------------------------------------------------------------
  cycle        total energy    energy error   density error
------------------------------------------------------------
      1     -195.8023209288  -1.9882278E+02   1.7524767E-03
      2     -195.7836925150   1.8628414E-02   6.6536688E-03
      3     -195.8007031444  -1.7010629E-02   2.2884685E-03
      4     -195.8016716984  -9.6855398E-04   1.3623440E-03
      5     -195.8023305567  -6.5885835E-04   7.6807911E-04
      6     -195.8025366742  -2.0611747E-04   3.5913371E-04
      7     -195.8025783622  -4.1688049E-05   1.5352347E-04
      8     -195.8025851556  -6.7933102E-06   7.2893937E-05
      9     -195.8025870592  -1.9036174E-06   2.0957920E-05
     10     -195.8025871731  -1.1397208E-07   1.4220642E-05
------------------------------------------------------------

 total:                                  10.885 sec
 * total energy  :  -195.8025872 Eh     change       -0.1879559E-02 Eh
   gradient norm :     0.0155262 Eh/α   predicted    -0.1843037E-02 (  -1.94%)
   displ. norm   :     0.7942525 α      lambda       -0.2065951E-02
   maximum displ.:     0.4153522 α      in ANC's #6, #3, #8, ...

........................................................................
.............................. CYCLE   40 ..............................
........................................................................
------------------------------------------------------------
  cycle        total energy    energy error   density error
------------------------------------------------------------
      1     -195.8044176066  -1.9882211E+02   1.6274642E-03
      2     -195.8032984312   1.1191754E-03   1.8658793E-03
      3     -195.7854822780   1.7816153E-02   6.8093020E-03
      4     -195.8035750605  -1.8092783E-02   1.3020495E-03
      5     -195.8043582337  -7.8317319E-04   4.5869891E-04
      6     -195.8044400881  -8.1854389E-05   1.5490912E-04
      7     -195.8044451863  -5.0982445E-06   9.5474256E-05
      8     -195.8044475203  -2.3339788E-06   5.5072261E-05
      9     -195.8044481579  -6.3760245E-07   3.7555548E-05
     10     -195.8044482214  -6.3517490E-08   3.4011298E-05
     11     -195.8044484100  -1.8853945E-07   2.5537738E-05
     12     -195.8044485875  -1.7754630E-07   1.2949372E-05
------------------------------------------------------------

 total:                                  12.793 sec
 * total energy  :  -195.8044486 Eh     change       -0.1861414E-02 Eh
   gradient norm :     0.0158668 Eh/α   predicted    -0.1684624E-02 (  -9.50%)
   displ. norm   :     0.8275976 α      lambda       -0.2211116E-02
   maximum displ.:     0.4466817 α      in ANC's #6, #3, #8, ...

........................................................................
.............................. CYCLE   41 ..............................
........................................................................
------------------------------------------------------------
  cycle        total energy    energy error   density error
------------------------------------------------------------
      1     -195.8063993536  -1.9882221E+02   1.6438201E-03
      2     -195.8063383025   6.1051120E-05   1.0338489E-03
      3     -195.7869440143   1.9394288E-02   6.8539794E-03
      4     -195.8053056899  -1.8361676E-02   1.5539768E-03
      5     -195.8063225965  -1.0169066E-03   4.6152820E-04
      6     -195.8064168706  -9.4274084E-05   1.1402136E-04
      7     -195.8064171123  -2.4176785E-07   1.0384316E-04
      8     -195.8064193818  -2.2694664E-06   7.1775553E-05
      9     -195.8064205934  -1.2115986E-06   4.5428386E-05
     10     -195.8064209900  -3.9661208E-07   3.0675395E-05
     11     -195.8064211654  -1.7540725E-07   2.1487561E-05
     12     -195.8064212699  -1.0447076E-07   1.3090246E-05
------------------------------------------------------------

 total:                                   8.497 sec
 * total energy  :  -195.8064213 Eh     change       -0.1972682E-02 Eh
   gradient norm :     0.0113942 Eh/α   predicted    -0.1862782E-02 (  -5.57%)
   displ. norm   :     0.8435676 α      lambda       -0.2188321E-02
   maximum displ.:     0.4500232 α      in ANC's #6, #3, #8, ...

........................................................................
.............................. CYCLE   42 ..............................
........................................................................
------------------------------------------------------------
  cycle        total energy    energy error   density error
------------------------------------------------------------
      1     -195.8083194550  -1.9882484E+02   1.6549887E-03
      2     -195.8082179410   1.0151400E-04   1.0842696E-03
      3     -195.7912878291   1.6930112E-02   6.3234249E-03
      4     -195.8071009793  -1.5813150E-02   1.6921235E-03
      5     -195.8082264847  -1.1255053E-03   5.0359583E-04
      6     -195.8083360276  -1.0954291E-04   1.2176034E-04
      7     -195.8083403286  -4.3010498E-06   6.3980044E-05
      8     -195.8083414014  -1.0727729E-06   3.5577910E-05
      9     -195.8083417936  -3.9216917E-07   1.9440666E-05
------------------------------------------------------------

 total:                                   6.193 sec
 * total energy  :  -195.8083418 Eh     change       -0.1920524E-02 Eh
   gradient norm :     0.0116160 Eh/α   predicted    -0.1872779E-02 (  -2.49%)
   displ. norm   :     0.8596767 α      lambda       -0.2056022E-02
   maximum displ.:     0.4580967 α      in ANC's #6, #3, #8, ...
 * RMSD in coord.:     1.1826660 α      energy gain  -0.5568099E-01 Eh

generating ANC from exact Hessian ...
Using Lindh-Hessian (1995)
 Shifting diagonal of input Hessian by    1.0089101653618048E-002
 Lowest  eigenvalues of input Hessian
    0.010000    0.000000    0.000000    0.000000    0.000000    0.000000
    0.000000    0.010125    0.010147    0.010244    0.010269    0.010416
    0.010489    0.010554    0.010593    0.010825    0.010891    0.010950
 Highest eigenvalues
    2.089046    2.093026    2.187038    2.187592    2.201921    2.205627


........................................................................
.............................. CYCLE   43 ..............................
........................................................................
------------------------------------------------------------
  cycle        total energy    energy error   density error
------------------------------------------------------------
      1     -195.8101851484  -1.9882520E+02   1.6454758E-03
      2     -195.8101891781  -4.0296883E-06   9.4397965E-04
      3     -195.8085897222   1.5994558E-03   1.9736897E-03
      4     -195.8078567224   7.3299983E-04   2.3859692E-03
      5     -195.8101988698  -2.3421474E-03   1.4508197E-04
      6     -195.8102027749  -3.9051110E-06   1.0282129E-04
      7     -195.8102023981   3.7679126E-07   1.0478202E-04
      8     -195.8102062728  -3.8746732E-06   6.0357919E-05
      9     -195.8102071156  -8.4282919E-07   3.9055996E-05
     10     -195.8102075373  -4.2167761E-07   2.0811087E-05
     11     -195.8102075783  -4.0996269E-08   1.7356000E-05
------------------------------------------------------------

 total:                                   8.479 sec
 * total energy  :  -195.8102076 Eh     change       -0.1865785E-02 Eh
   gradient norm :     0.0124089 Eh/α   predicted     0.0000000E+00 (-100.00%)
   displ. norm   :     0.2182608 α      lambda       -0.8122317E-03
   maximum displ.:     0.1012388 α      in ANC's #7, #3, #1, ...

........................................................................
.............................. CYCLE   44 ..............................
........................................................................
------------------------------------------------------------
  cycle        total energy    energy error   density error
------------------------------------------------------------
      1     -195.8106668768  -1.9883075E+02   9.8891934E-04
      2     -195.7825248023   2.8142074E-02   8.3056876E-03
      3     -195.8108979559  -2.8373154E-02   4.0211654E-04
      4     -195.8108574764   4.0479508E-05   3.5471848E-04
      5     -195.8108815753  -2.4098941E-05   2.6125691E-04
      6     -195.8109150263  -3.3450951E-05   4.9661939E-05
      7     -195.8109159635  -9.3725609E-07   1.5153212E-05
------------------------------------------------------------

 total:                                   5.663 sec
 * total energy  :  -195.8109160 Eh     change       -0.7083852E-03 Eh
   gradient norm :     0.0056244 Eh/α   predicted    -0.4254689E-03 ( -39.94%)
   displ. norm   :     0.6133046 α      lambda       -0.1691377E-02
   maximum displ.:     0.2893411 α      in ANC's #7, #3, #1, ...

........................................................................
.............................. CYCLE   45 ..............................
........................................................................
------------------------------------------------------------
  cycle        total energy    energy error   density error
------------------------------------------------------------
      1     -195.8121459978  -1.9883740E+02   1.5442106E-03
      2     -195.7900057071   2.2140291E-02   7.3992648E-03
      3     -195.8111588128  -2.1153106E-02   1.8683272E-03
      4     -195.8110284654   1.3034734E-04   1.5845626E-03
      5     -195.8123071822  -1.2787168E-03   2.5396270E-04
      6     -195.8123285099  -2.1327711E-05   9.1859847E-05
      7     -195.8123310944  -2.5844870E-06   3.6205116E-05
      8     -195.8123312583  -1.6386332E-07   2.6978959E-05
      9     -195.8123313744  -1.1610348E-07   1.8473319E-05
------------------------------------------------------------

 total:                                   6.719 sec
 * total energy  :  -195.8123314 Eh     change       -0.1415411E-02 Eh
   gradient norm :     0.0092675 Eh/α   predicted    -0.1163787E-02 ( -17.78%)
   displ. norm   :     0.7441549 α      lambda       -0.1631145E-02
   maximum displ.:     0.3521900 α      in ANC's #7, #3, #1, ...

........................................................................
.............................. CYCLE   46 ..............................
........................................................................
------------------------------------------------------------
  cycle        total energy    energy error   density error
------------------------------------------------------------
      1     -195.8138232353  -1.9883793E+02   1.5384581E-03
      2     -195.8133370265   4.8620877E-04   1.4482160E-03
      3     -195.7942028751   1.9134151E-02   6.9353708E-03
      4     -195.8129260918  -1.8723217E-02   1.3323166E-03
      5     -195.8138113017  -8.8520993E-04   2.5754271E-04
      6     -195.8138363870  -2.5085261E-05   8.8851131E-05
      7     -195.8138376172  -1.2302936E-06   6.5434583E-05
      8     -195.8138387679  -1.1506616E-06   3.9882162E-05
      9     -195.8138392098  -4.4187254E-07   1.9990407E-05
------------------------------------------------------------

 total:                                   6.908 sec
 * total energy  :  -195.8138392 Eh     change       -0.1507835E-02 Eh
   gradient norm :     0.0142809 Eh/α   predicted    -0.1267314E-02 ( -15.95%)
   displ. norm   :     0.8279001 α      lambda       -0.1852704E-02
   maximum displ.:     0.3959554 α      in ANC's #7, #3, #1, ...

........................................................................
.............................. CYCLE   47 ..............................
........................................................................
------------------------------------------------------------
  cycle        total energy    energy error   density error
------------------------------------------------------------
      1     -195.8154999770  -1.9883457E+02   1.6941719E-03
      2     -195.8045830440   1.0916933E-02   5.3093630E-03
      3     -195.8144261563  -9.8431123E-03   1.8892908E-03
      4     -195.8152776630  -8.5150663E-04   8.2746478E-04
      5     -195.8155412052  -2.6354220E-04   3.9299953E-04
      6     -195.8155757748  -3.4569604E-05   2.7102839E-04
[...]
   
   xtb is distributed in the hope that it will be useful,
   but WITHOUT ANY WARRANTY; without even the implied warranty of
   MERCHANTABILITY or FITNESS FOR A PARTICULAR PURPOSE.  See the
   GNU Lesser General Public License for more details.
   
   Cite this work as:
   * C. Bannwarth, E. Caldeweyher, S. Ehlert, A. Hansen, P. Pracht,
     J. Seibert, S. Spicher, S. Grimme, WIREs Comput. Mol. Sci., 2020, 11,
     e01493. DOI: 10.1002/wcms.1493
   
   for GFN2-xTB:
   * C. Bannwarth, S. Ehlert and S. Grimme., J. Chem. Theory Comput., 2019,
     15, 1652-1671. DOI: 10.1021/acs.jctc.8b01176
   for GFN1-xTB:
   * S. Grimme, C. Bannwarth, P. Shushkov, J. Chem. Theory Comput., 2017,
     13, 1989-2009. DOI: 10.1021/acs.jctc.7b00118
   for GFN0-xTB:
   * P. Pracht, E. Caldeweyher, S. Ehlert, S. Grimme, ChemRxiv, 2019, preprint.
     DOI: 10.26434/chemrxiv.8326202.v1
   for GFN-FF:
   * S. Spicher and S. Grimme, Angew. Chem. Int. Ed., 2020, 59, 15665-15673.
     DOI: 10.1002/anie.202004239
   
   for ALPB and GBSA implicit solvation:
   * S. Ehlert, M. Stahn, S. Spicher, S. Grimme, J. Chem. Theory Comput.,
     2021, 17, 4250-4261. DOI: 10.1021/acs.jctc.1c00471
   
   for ddCOSMO and CPCM-X implicit solvation:
   * M. Stahn, S. Ehlert, S. Grimme, J. Phys. Chem. A,
     2023, XX, XXXX-XXXX. DOI: 10.1021/acs.jpca.3c04382
   
   for DFT-D4:
   * E. Caldeweyher, C. Bannwarth and S. Grimme, J. Chem. Phys., 2017,
     147, 034112. DOI: 10.1063/1.4993215
   * E. Caldeweyher, S. Ehlert, A. Hansen, H. Neugebauer, S. Spicher,
     C. Bannwarth and S. Grimme, J. Chem. Phys., 2019, 150, 154122.
     DOI: 10.1063/1.5090222
   * E. Caldeweyher, J.-M. Mewes, S. Ehlert and S. Grimme, Phys. Chem. Chem. Phys.
     2020, 22, 8499-8512. DOI: 10.1039/D0CP00502A
   
   for sTDA-xTB:
   * S. Grimme and C. Bannwarth, J. Chem. Phys., 2016, 145, 054103.
     DOI: 10.1063/1.4959605
   
   in the mass-spec context:
   * V. Asgeirsson, C. Bauer and S. Grimme, Chem. Sci., 2017, 8, 4879.
     DOI: 10.1039/c7sc00601b
   * J. Koopman and S. Grimme, ACS Omega 2019, 4, 12, 15120-15133.
     DOI: 10.1021/acsomega.9b02011
   
   for metadynamics refer to:
   * S. Grimme, J. Chem. Theory Comput., 2019, 155, 2847-2862
     DOI: 10.1021/acs.jctc.9b00143
   
   for SPH calculations refer to:
   * S. Spicher and S. Grimme, J. Chem. Theory Comput., 2021, 17, 1701-1714
     DOI: 10.1021/acs.jctc.0c01306
   
   for ONIOM refer to:
   * C. Plett, A. Katbashev, S. Ehlert, S. Grimme, M. Bursch,
     Phys. Chem. Chem. Phys., 2023, 25, 17860-17868. DOI: 10.1039/D3CP02178E
   
   for DIPRO refer to:
   * J. Kohn, N. Gildemeister, S. Grimme, D. Fazzi, A. Hansen,
     J. Chem. Phys., 2023, just accepted.
   
   for PTB refer to:
   * S. Grimme, M. Mueller, A. Hansen, J. Chem. Phys., 2023, 158, 124111.
     DOI: 10.1063/5.0137838
   
   with help from (in alphabetical order)
   P. Atkinson, C. Bannwarth, F. Bohle, G. Brandenburg, E. Caldeweyher
   M. Checinski, S. Dohm, S. Ehlert, S. Ehrlich, I. Gerasimov, C. Hölzer
   A. Katbashev, J. Kohn, J. Koopman, C. Lavigne, S. Lehtola, F. März, M. Müller,
   F. Musil, H. Neugebauer, J. Pisarek, C. Plett, P. Pracht, F. Pultar,
   J. Seibert, P. Shushkov, S. Spicher, M. Stahn, M. Steiner, T. Strunk,
   J. Stückrath, T. Rose, and J. Unsleber
   
 * started run on 2025/03/21 at 13:58:50.023     
   ID    Z sym.   atoms
    1    6 C      1-9, 11, 12, 14-21, 25-33, 35, 36, 38-45, 48-71, 138-146,
                  148, 149, 151-158, 162-170, 172, 173, 175-182, 185-208
    2    7 N      10, 13, 34, 37, 147, 150, 171, 174
    3    8 O      22, 23, 46, 47, 159, 160, 183, 184
    4    5 B      24, 161
    5    1 H      72-137, 209-274

           -------------------------------------------------
          |                Calculation Setup                |
           -------------------------------------------------

          program call               : xtb opt_dimer.mol --dipro 0.3 --chrg 0 --uhf 2 --spinpol --tblite
          coordinate file            : opt_dimer.mol
          omp threads                :                     8


molecular fragmentation (1/2 indicates fragments):
111111111111111111111111111111111111111111111111111111111111111111111111
111111111111111111111111111111111111111111111111111111111111111112222222
222222222222222222222222222222222222222222222222222222222222222222222222
2222222222222222222222222222222222222222222222222222222222
# atoms in fragment 1/2:   137   137
 fragment masses (1/2) :      942.03      942.03
CMA distance (Bohr)    :  13.196
constraining FC (au)   :  0.0500
Wavefunction read from restart file
           -------------------------------------------------
          |                    D I P R O                    |
           -------------------------------------------------
Calculation for dimer 
--------------------- 
  
charge of dimer :   0.
unpaired e- of dimer :  2
repulsion energy          6.0540870320708E+00 Eh
dispersion energy         3.2945948441305E-02 Eh
number of electrons       7.2200000000000E+02 e
integral cutoff           1.9311100799991E+01 bohr

------------------------------------------------------------
  cycle        total energy    energy error   density error
------------------------------------------------------------
      1     -390.5727447854  -3.9665978E+02   1.3878459E-01
      2     -391.5264461442  -9.5370136E-01   7.2725960E-02
      3     -390.8601864671   6.6625968E-01   5.0040337E-02
      4     -390.5434596468   3.1672682E-01   4.2929900E-02
      5     -391.4985398192  -9.5508017E-01   2.3641875E-02
      6     -391.6241493682  -1.2560955E-01   1.7015282E-02
      7     -391.6257865666  -1.6371985E-03   1.4862651E-02
      8     -391.7264595782  -1.0067301E-01   9.5981588E-03
      9     -391.7387220006  -1.2262422E-02   7.7705710E-03
     10     -391.6891581580   4.9563843E-02   1.0216377E-02
     11     -391.7600969772  -7.0938819E-02   5.3932057E-03
     12     -391.7603157610  -2.1878384E-04   4.7787835E-03
     13     -391.7707407438  -1.0424983E-02   3.3765173E-03
     14     -391.7751792353  -4.4384915E-03   1.8925023E-03
     15     -391.7774824874  -2.3032521E-03   8.3862333E-04
     16     -391.7776857819  -2.0329446E-04   5.5726547E-04
     17     -391.7777865003  -1.0071842E-04   4.2396168E-04
     18     -391.7778995171  -1.1301685E-04   1.8123958E-04
     19     -391.7779080854  -8.5682479E-06   1.3770019E-04
     20     -391.7779203785  -1.2293114E-05   5.3600864E-05
     21     -391.7779221256  -1.7471091E-06   1.1645249E-05
     22     -391.7779220219   1.0372906E-07   1.6016779E-05
------------------------------------------------------------

electronic energy        -3.9786495500238E+02 Eh
total energy             -3.9177792202187E+02 Eh

 total:                                  40.239 sec
 - repulsion                              0.001 sec (  0%)
 - dispersion                             0.029 sec (  0%)
 - coulomb                                0.009 sec (  0%)
 - hamiltonian                            0.019 sec (  0%)
 - scc                                   40.180 sec ( 99%)

Found 2 fragments!
Fragment 1:  1-137
Fragment 2:  138-274

[Info] Fragment spin read from .UHFfrag
Calculation for fragment 1
 ------------------------------
   
charge of fragment :   0.
unpaired e- of fragment :  1
------------------------------------------------------------
  cycle        total energy    energy error   density error
------------------------------------------------------------
      1     -195.2548077688  -1.9828264E+02   1.4080724E-01
      2     -195.7118777521  -4.5706998E-01   7.4804462E-02
      3     -195.2121635309   4.9971422E-01   5.3776407E-02
      4     -195.2119035807   2.5995024E-04   4.2423451E-02
      5     -195.7113889181  -4.9948534E-01   2.3840866E-02
      6     -195.8074112602  -9.6022342E-02   1.5960005E-02
      7     -195.8501417310  -4.2730471E-02   8.4127142E-03
      8     -195.8532884545  -3.1467235E-03   6.8095723E-03
      9     -195.8490158871   4.2725674E-03   7.0962138E-03
     10     -195.8557057119  -6.6898248E-03   4.6641443E-03
     11     -195.8587889037  -3.0831917E-03   3.1993987E-03
     12     -195.8618448932  -3.0559895E-03   1.3786956E-03
     13     -195.8619617688  -1.1687565E-04   1.0603388E-03
     14     -195.8622319377  -2.7016892E-04   5.7965464E-04
     15     -195.8623071866  -7.5248852E-05   3.6867883E-04
     16     -195.8623571375  -4.9950890E-05   3.9638425E-05
     17     -195.8623574208  -2.8334753E-07   1.3324335E-05
------------------------------------------------------------

 total:                                   7.980 sec
Calculation for fragment 2
 ------------------------------
   
charge of fragment :   0.
unpaired e- of fragment :  1
------------------------------------------------------------
  cycle        total energy    energy error   density error
------------------------------------------------------------
      1     -195.2558097646  -1.9828889E+02   1.3695493E-01
      2     -195.7106338323  -4.5482407E-01   7.1522276E-02
      3     -195.2138386621   4.9679517E-01   5.2845489E-02
      4     -195.2441017046  -3.0263043E-02   4.0860168E-02
      5     -195.7414736876  -4.9737198E-01   2.2214565E-02
      6     -195.8202147612  -7.8741074E-02   1.3772969E-02
      7     -195.8360012416  -1.5786480E-02   1.0497722E-02
      8     -195.8554510361  -1.9449794E-02   6.2936562E-03
      9     -195.8623321459  -6.8811099E-03   3.7859103E-03
     10     -195.8638831905  -1.5510446E-03   2.1899606E-03
     11     -195.8644977699  -6.1457935E-04   1.1982028E-03
     12     -195.8643958905   1.0187942E-04   1.1842685E-03
     13     -195.8648821740  -4.8628356E-04   3.4636310E-04
     14     -195.8648961706  -1.3996593E-05   2.2169483E-04
     15     -195.8648925696   3.6010481E-06   2.1638836E-04
     16     -195.8649106647  -1.8095132E-05   4.2117656E-05
     17     -195.8649107328  -6.8077270E-08   3.7388431E-05
     18     -195.8649110535  -3.2074033E-07   2.4210861E-05
     19     -195.8649112731  -2.1957484E-07   3.0575992E-06
------------------------------------------------------------

 total:                                   9.547 sec
   
   ::::::::::::::::::::::::::::::::::::::::::::::
   ::     D I P R O      C O U P L I N G S     ::
   ::::::::::::::::::::::::::::::::::::::::::::::
   
energy threshhold for near-degenerate orbitals near HOMO and LUMO considered for DIPRO:  0.300 eV
no. of orbitals within energy window of frag 1         6
no. of orbitals within energy window of frag 2         6
   
  Fragment 1 SOMO-3  Fragment 2 SOMO-3
--------------------------------------
E_mon(orb) frag1 frag2              -9.889    -9.870 eV
J(AB):               -0.001 eV
S(AB):             0.00002346 Eh
|J(AB,eff)|:            0.000 eV
   
  Fragment 1 SOMO-3  Fragment 2 SOMO-2
--------------------------------------
E_mon(orb) frag1 frag2              -9.889    -9.766 eV
J(AB):               -0.004 eV
S(AB):             0.00013325 Eh
|J(AB,eff)|:            0.002 eV
   
  Fragment 1 SOMO-3  Fragment 2 SOMO-1
--------------------------------------
E_mon(orb) frag1 frag2              -9.889    -9.775 eV
J(AB):                0.003 eV
S(AB):            -0.00013527 Eh
|J(AB,eff)|:            0.002 eV
   
  Fragment 1 SOMO-3  Fragment 2 SOMO 
--------------------------------------
E_mon(orb) frag1 frag2              -9.889    -9.660 eV
J(AB):                0.000 eV
S(AB):            -0.00000660 Eh
|J(AB,eff)|:            0.000 eV
   
  Fragment 1 SOMO-3  Fragment 2 LUMO 
--------------------------------------
E_mon(orb) frag1 frag2              -9.889    -9.308 eV
J(AB):               -0.009 eV
S(AB):             0.00032580 Eh
|J(AB,eff)|:            0.006 eV
   
  Fragment 1 SOMO-3  Fragment 2 LUMO+1
--------------------------------------
E_mon(orb) frag1 frag2              -9.889    -9.292 eV
J(AB):               -0.007 eV
S(AB):             0.00025279 Eh
|J(AB,eff)|:            0.005 eV
   
  Fragment 1 SOMO-2  Fragment 2 SOMO-3
--------------------------------------
E_mon(orb) frag1 frag2              -9.758    -9.870 eV
J(AB):                0.001 eV
S(AB):            -0.00002668 Eh
|J(AB,eff)|:            0.000 eV
   
  Fragment 1 SOMO-2  Fragment 2 SOMO-2
--------------------------------------
E_mon(orb) frag1 frag2              -9.758    -9.766 eV
J(AB):               -0.005 eV
S(AB):             0.00020769 Eh
|J(AB,eff)|:            0.002 eV
   
  Fragment 1 SOMO-2  Fragment 2 SOMO-1
--------------------------------------
E_mon(orb) frag1 frag2              -9.758    -9.775 eV
J(AB):                0.001 eV
S(AB):            -0.00006377 Eh
|J(AB,eff)|:            0.001 eV
   
  Fragment 1 SOMO-2  Fragment 2 SOMO 
--------------------------------------
E_mon(orb) frag1 frag2              -9.758    -9.660 eV
J(AB):                0.000 eV
S(AB):            -0.00000103 Eh
|J(AB,eff)|:            0.000 eV
   
  Fragment 1 SOMO-2  Fragment 2 LUMO 
--------------------------------------
E_mon(orb) frag1 frag2              -9.758    -9.308 eV
J(AB):               -0.006 eV
S(AB):             0.00024511 Eh
|J(AB,eff)|:            0.004 eV
   
  Fragment 1 SOMO-2  Fragment 2 LUMO+1
--------------------------------------
E_mon(orb) frag1 frag2              -9.758    -9.292 eV
J(AB):               -0.006 eV
S(AB):             0.00026749 Eh
|J(AB,eff)|:            0.004 eV
   
  Fragment 1 SOMO-1  Fragment 2 SOMO-3
--------------------------------------
E_mon(orb) frag1 frag2              -9.764    -9.870 eV
J(AB):                0.004 eV
S(AB):            -0.00016987 Eh
|J(AB,eff)|:            0.002 eV
   
  Fragment 1 SOMO-1  Fragment 2 SOMO-2
--------------------------------------
E_mon(orb) frag1 frag2              -9.764    -9.766 eV
J(AB):               -0.011 eV
S(AB):             0.00055435 Eh
|J(AB,eff)|:            0.006 eV
   
  Fragment 1 SOMO-1  Fragment 2 SOMO-1
--------------------------------------
E_mon(orb) frag1 frag2              -9.764    -9.775 eV
J(AB):                0.002 eV
S(AB):            -0.00006969 Eh
|J(AB,eff)|:            0.001 eV
   
  Fragment 1 SOMO-1  Fragment 2 SOMO 
--------------------------------------
E_mon(orb) frag1 frag2              -9.764    -9.660 eV
J(AB):               -0.002 eV
S(AB):             0.00011603 Eh
|J(AB,eff)|:            0.001 eV
   
  Fragment 1 SOMO-1  Fragment 2 LUMO 
--------------------------------------
E_mon(orb) frag1 frag2              -9.764    -9.308 eV
J(AB):               -0.017 eV
S(AB):             0.00073649 Eh
|J(AB,eff)|:            0.010 eV
   
  Fragment 1 SOMO-1  Fragment 2 LUMO+1
--------------------------------------
E_mon(orb) frag1 frag2              -9.764    -9.292 eV
J(AB):               -0.012 eV
S(AB):             0.00050837 Eh
|J(AB,eff)|:            0.007 eV
   
  Fragment 1 SOMO   Fragment 2 SOMO-3
--------------------------------------
E_mon(orb) frag1 frag2              -9.608    -9.870 eV
J(AB):               -0.004 eV
S(AB):             0.00012953 Eh
|J(AB,eff)|:            0.003 eV
   
  Fragment 1 SOMO   Fragment 2 SOMO-2
--------------------------------------
E_mon(orb) frag1 frag2              -9.608    -9.766 eV
J(AB):               -0.004 eV
S(AB):             0.00013592 Eh
|J(AB,eff)|:            0.002 eV
   
  Fragment 1 SOMO   Fragment 2 SOMO-1
--------------------------------------
E_mon(orb) frag1 frag2              -9.608    -9.775 eV
J(AB):               -0.001 eV
S(AB):             0.00008253 Eh
|J(AB,eff)|:            0.000 eV
   
  Fragment 1 SOMO   Fragment 2 SOMO 
--------------------------------------
E_mon(orb) frag1 frag2              -9.608    -9.660 eV
J(AB):                0.002 eV
S(AB):            -0.00007010 Eh
|J(AB,eff)|:            0.001 eV
   
  Fragment 1 SOMO   Fragment 2 LUMO 
--------------------------------------
E_mon(orb) frag1 frag2              -9.608    -9.308 eV
J(AB):               -0.009 eV
S(AB):             0.00032942 Eh
|J(AB,eff)|:            0.006 eV
   
  Fragment 1 SOMO   Fragment 2 LUMO+1
--------------------------------------
E_mon(orb) frag1 frag2              -9.608    -9.292 eV
J(AB):               -0.007 eV
S(AB):             0.00023683 Eh
|J(AB,eff)|:            0.005 eV
   
  Fragment 1 LUMO   Fragment 2 SOMO-3
--------------------------------------
E_mon(orb) frag1 frag2              -9.311    -9.870 eV
J(AB):               -0.002 eV
S(AB):             0.00010892 Eh
|J(AB,eff)|:            0.001 eV
   
  Fragment 1 LUMO   Fragment 2 SOMO-2
--------------------------------------
E_mon(orb) frag1 frag2              -9.311    -9.766 eV
J(AB):               -0.002 eV
S(AB):             0.00012047 Eh
|J(AB,eff)|:            0.001 eV
   
  Fragment 1 LUMO   Fragment 2 SOMO-1
--------------------------------------
E_mon(orb) frag1 frag2              -9.311    -9.775 eV
J(AB):                0.000 eV
S(AB):            -0.00003695 Eh
|J(AB,eff)|:            0.000 eV
   
  Fragment 1 LUMO   Fragment 2 SOMO 
--------------------------------------
E_mon(orb) frag1 frag2              -9.311    -9.660 eV
J(AB):                0.001 eV
S(AB):            -0.00002085 Eh
|J(AB,eff)|:            0.000 eV
   
  Fragment 1 LUMO   Fragment 2 LUMO 
--------------------------------------
E_mon(orb) frag1 frag2              -9.311    -9.308 eV
J(AB):                0.014 eV
S(AB):            -0.00050290 Eh
|J(AB,eff)|:            0.009 eV
   
  Fragment 1 LUMO   Fragment 2 LUMO+1
--------------------------------------
E_mon(orb) frag1 frag2              -9.311    -9.292 eV
J(AB):                0.013 eV
S(AB):            -0.00050571 Eh
|J(AB,eff)|:            0.008 eV
   
  Fragment 1 LUMO+1  Fragment 2 SOMO-3
--------------------------------------
E_mon(orb) frag1 frag2              -9.297    -9.870 eV
J(AB):                0.001 eV
S(AB):            -0.00004205 Eh
|J(AB,eff)|:            0.001 eV
   
  Fragment 1 LUMO+1  Fragment 2 SOMO-2
--------------------------------------
E_mon(orb) frag1 frag2              -9.297    -9.766 eV
J(AB):               -0.001 eV
S(AB):             0.00007966 Eh
|J(AB,eff)|:            0.000 eV
   
  Fragment 1 LUMO+1  Fragment 2 SOMO-1
--------------------------------------
E_mon(orb) frag1 frag2              -9.297    -9.775 eV
J(AB):               -0.001 eV
S(AB):             0.00003787 Eh
|J(AB,eff)|:            0.000 eV
   
  Fragment 1 LUMO+1  Fragment 2 SOMO 
--------------------------------------
E_mon(orb) frag1 frag2              -9.297    -9.660 eV
J(AB):               -0.005 eV
S(AB):             0.00024115 Eh
|J(AB,eff)|:            0.003 eV
   
  Fragment 1 LUMO+1  Fragment 2 LUMO 
--------------------------------------
E_mon(orb) frag1 frag2              -9.297    -9.308 eV
J(AB):                0.016 eV
S(AB):            -0.00062287 Eh
|J(AB,eff)|:            0.011 eV
   
  Fragment 1 LUMO+1  Fragment 2 LUMO+1
--------------------------------------
E_mon(orb) frag1 frag2              -9.297    -9.292 eV
J(AB):                0.011 eV
S(AB):            -0.00039069 Eh
|J(AB,eff)|:            0.007 eV
   
..............................................................................
:  total |J(AB,eff)| for hole transport (occ. MOs) :               0.009 eV  :
:  total |J(AB,eff)| for charge transport (unocc. MOs) :           0.018 eV  :
:  total |J(AB,eff)| for charge transfer (CT) :                    0.018 eV  :
..............................................................................
  
 Please remember, DIPRO is not available for restart!
   
normal termination of dipro
----------------------------------------------------------
 * finished run on 2025/03/21 at 13:59:47.904     
----------------------------------------------------------
 dipro:
 * wall-time:     0 d,  0 h,  0 min, 57.868 sec
 *  cpu-time:     0 d,  0 h,  2 min, 20.229 sec
 * ratio c/w:     2.423 speedup
Reorganization energy (electron): 0.031307212062890256 eV
Reorganization energy (hole): 0.03654265970915387 eV
Electron Transfer integral J: 0.018 eV
Hole Transfer integral J: 0.009 eV
