116
 energy: -22.928061455056 gnorm: 0.329736929581 xtb: 6.6.1 (8d0f1dd)
C           -3.31122850772930        0.79849766164622       -0.92477639677520
C           -2.44380812530352       -0.12270372891954       -0.27661132624697
C           -1.41337090092821        0.39579727573559        0.56335275196199
C           -0.89266158675590        1.65801491088749        0.27377586709581
C           -1.72665675402493        2.51431363229076       -0.49448366572522
C           -2.95444148494349        2.13954154133227       -1.01494489940871
C           -0.74098268209890       -0.43411532818871        1.49825021926784
C            0.56872586496315        0.03782116815119        1.86248088067890
C            1.03782416582094        1.29402317993033        1.50887470833621
N            0.31238977034758        2.07067427098208        0.65193736800696
C           -1.29695700510141       -1.39996043042223        2.41574187746061
C           -0.38243517664656       -2.18060797534842        3.13232615520648
N            0.91308504082021       -1.90366887689689        3.30325166013478
C            1.37712470144904       -0.74872102533751        2.81811050966982
C            2.52149331701875       -0.17739833758153        3.39379298866852
C            2.95849061756259        1.02681208890480        2.95105897606587
C            2.24288949469137        1.78498308775960        2.03503020483770
C           -2.74860936222260       -1.74497937691422        2.38401158947411
C           -3.09416315450955       -2.91614440870436        3.00571134491758
C           -2.16786021984049       -3.77788778654213        3.63251872101904
C           -0.85708937311598       -3.40495313382985        3.68547234358092
O           -3.71994433332149       -0.94984598373544        1.67726658385724
O           -2.55702603277562       -1.47241711578389       -0.57241635275616
C           -3.84297843593025        3.13357444054366       -1.60938954875544
C           -2.68769581069131       -5.03867041417370        4.30484659386931
H           -1.39666850744143        3.51251503834900       -0.76806311868865
H           -4.27662633836220        0.55105838579656       -1.33106614114542
H            2.66329581305412        2.73912661909249        1.72562431984580
H            3.05775395548473       -0.69369546277216        4.16536137542516
H           -0.24710966264510       -4.12034095424229        4.22946223699121
H           -4.11477991332403       -3.04712728052358        3.03244694615357
O           -4.21824883374556        4.03433712717988       -0.87713382485991
O           -4.44510595673734        2.90643496899600       -2.81853501752979
C           -5.44216520282800        3.83300025693726       -3.02488532025093
C            4.23586651889298        1.50004220933226        3.59165660008449
O            5.05927614697201        0.66079890002952        3.91714215179376
O            4.47001334453535        2.86385149488593        3.72605651435371
C            5.79457498613219        3.08584475587818        4.15829123132174
O           -3.82227255313510       -5.27347675879771        4.16636005494405
O           -1.85023202017753       -5.79767454267276        5.06656077253571
C           -2.55119635829503       -6.86252441382958        5.62930343183426
C           -5.07197156564436       -1.42399175670916        1.58830531863830
C           -1.33089900128490       -2.23622472573986       -0.99264499351172
H           -2.54510546830388       -7.76426885143998        4.99136022291012
H           -3.57194749219491       -6.44405511486021        5.74196173723541
H           -2.09133598235598       -7.02043774843818        6.64022264233588
H            5.72707967266424        3.46798026205549        5.10135971236643
H            6.34060091246885        3.78468702308830        3.50069950143490
H            6.17933064298187        2.03010500085905        4.19342358084693
H           -0.91862729772622       -2.57650129080332       -0.01361370304871
H           -0.49769766914251       -1.60651221708571       -1.34094446550576
H           -1.52632419730509       -2.94569707152159       -1.75361447637286
H           -5.11788846557077       -2.41810833635233        1.17520213188926
H           -5.67929807973498       -0.69619639428435        1.04301666067831
H           -5.57598832326623       -1.42383358739762        2.57928294206544
H           -6.13050215934830        3.76035386975488       -2.23272855695873
H           -5.86615610071888        3.45938329385866       -4.02668959924245
H           -5.13479557532099        4.87790991548477       -2.98314551356402
C           -1.38192942069774        3.73616555005018        2.91232598411686
C           -1.84821468128685        2.59982427735607        3.49755545445181
C           -1.05946531454833        2.05730632010638        4.60922730982276
C            0.19893954712228        2.69376791964407        4.86302140881997
C            0.50425395911860        3.94630308659851        4.28768785650746
C           -0.26031777722226        4.46998310053134        3.25072669343212
C           -1.20488993561782        0.74454293276906        5.14851520323437
C           -0.06287609782692        0.02744069315890        5.60930570802864
C            1.19208754369866        0.71421540266195        5.78882868583885
N            1.19428660993148        2.06344359410476        5.62744624321596
C           -2.41361422770794        0.07928500213936        5.25249410304426
C           -2.45851584031083       -1.32662100968547        5.60237876023992
N           -1.29466212405906       -1.98318595734370        5.89916817085159
C           -0.14475655767527       -1.32117560077092        5.98824682881008
C            0.97209270935794       -1.98958449505532        6.53157704134458
C            2.21982707914082       -1.36973967291181        6.68703967237737
C            2.30561929262884       -0.09745313075593        6.26436900324455
C           -3.73018485967715        0.71367583494582        5.25810242262992
C           -4.89964478833448       -0.06184623426677        5.21204641615509
C           -4.82617965800088       -1.39228978090841        5.46901303780036
C           -3.67144193418464       -1.98914944386360        5.67265433266067
O           -3.75568638935321        2.07705011038914        5.52067969627343
O           -2.94192434743730        1.91263938797883        3.01658762327703
C            0.21273512614467        5.50086066357994        2.34765104514621
C           -6.06660304520411       -2.17604633098929        5.80641622556876
H            1.41756699010566        4.38133362238595        4.66974005703471
H           -1.82880610647429        4.11982501512100        2.06992133318584
H            3.26888037378556        0.32655662585251        6.31721410015598
H            0.87146188387207       -3.08471526305024        6.57830423410869
H           -3.67716811065157       -3.05999292755990        5.83019634570050
H           -5.77379677507622        0.43595144608221        4.71017130754348
O            1.34459852619901        5.82615848916894        2.44941456579099
O           -0.74718748219123        6.07961784856304        1.59848183464284
C           -0.21473095568964        7.24015934882472        1.05753806029483
C            3.53228080814219       -2.00967610361154        7.02506769044485
O            3.64093082622715       -3.14437803815732        7.50071391725347
O            4.56565258381079       -1.22937033368332        6.69086985080897
C            5.72579357310716       -1.80692399125161        7.22246151275881
O           -7.04801223588612       -1.95726935745904        5.14194115322235
O           -6.01514389321278       -2.93743591896022        6.94765316328794
C           -7.21292732384718       -3.62681918543340        7.15115816329978
C           -4.95459780685163        2.65960679932188        5.86868674392943
C           -3.68284113682406        2.59129188358641        2.05479246020704
H           -7.43119628931628       -4.22607794725959        6.20622607140901
H           -8.06548455146707       -2.91765848248592        7.29781126410398
H           -7.07314693247270       -4.33087306029711        7.91223421050944
H            6.57332189837178       -1.29353136199234        6.78341268688262
H            5.74663761932316       -2.84282155125561        6.88089468184451
H            5.69426191474290       -1.72781984964892        8.29460302186842
H           -4.10481209541493        3.44288266176275        2.60483747673152
H           -4.49244774344916        1.87419893016926        1.82433103764650
H           -3.18901540870812        2.85154642679373        1.06781919454921
H           -5.55414326821421        2.76698137191684        4.93950725322359
H           -4.78658370641210        3.62090640967288        6.25983200635257
H           -5.43485580473958        1.97242995129449        6.65265772412460
H            0.89164886030839        7.38838561720231        1.13776105146914
H           -0.62894889903848        8.04195665205089        1.64837664327952
H           -0.59282546386754        7.45699159724320        0.03719083132488
116
 energy: -22.464981980755 gnorm: 0.616584469894 xtb: 6.6.1 (8d0f1dd)
C           -2.64744862170555       -0.26080551198515       -2.15647409960030
C           -2.06231910504652       -1.13024680224986       -1.12257691042932
C           -1.05490168995263       -0.51320227991109       -0.33509969477122
C           -0.72510754027098        0.94265766809777       -0.60412093254476
C           -1.37444377605793        1.74502897067413       -1.61365394122695
C           -2.41054400638776        1.10961390809941       -2.11963198766979
C           -0.40271284259983       -1.14724488958642        0.80144172330858
C            0.77542819940639       -0.53707135950058        1.34424413006218
C            1.18794750641205        0.79116571894059        0.98602464524416
N            0.29997542220592        1.49589005968387        0.12443981244974
C           -1.04795976231896       -1.94780629668691        1.72613620628594
C           -0.18296398871648       -2.69960413930296        2.50681987883855
N            1.15019096606974       -2.41142584832862        2.74519957918040
C            1.58566495007540       -1.28310310183570        2.22334949409049
C            3.05448199148838       -0.86859937417358        2.23669097626335
C            3.26947755774315        0.40917537008675        1.63672902150196
C            2.43674146652878        1.23403047931662        1.07175982671016
C           -2.35584530106129       -1.79972013822004        1.90001361546433
C           -2.86039217271329       -2.51990396142155        3.04792045568724
C           -2.00243078374908       -3.51866972512363        3.72638144377551
C           -0.75347677429887       -3.64660661411767        3.37391276044826
O           -3.31142238313488       -0.94411875816469        1.34778737519834
O           -2.21995922322796       -2.54077794387850       -1.25373206635033
C           -3.29082855519378        1.82314139425895       -2.93805012763863
C           -2.40290730801443       -4.23697185226632        4.97755568436535
H           -1.10878807571823        2.85929629500176       -1.76016538145451
H           -3.42558879504583       -0.77597288506228       -2.77293929495449
H            2.58534670131756        2.26988212855023        0.64764496089446
H            3.59347299485866       -1.53451078658286        2.78832538951942
H            0.08733934921812       -4.33358683017886        3.67638428879102
H           -3.57368581589566       -2.15786236269023        3.72766802616831
O           -2.75080869586156        2.74669124887292       -3.53981831496245
O           -4.59110664010942        1.59864374466242       -2.98042352302118
C           -5.31867399123351        2.65024392728570       -3.18770553069657
C            4.60005805481507        1.00450296675114        1.76250119459754
O            5.44171302814159        0.49011225064506        2.45878715750429
O            4.85172270568187        2.28584590589506        1.20378538112269
C            5.90831313950163        3.11705439989802        1.41498532690764
O           -3.52814244025572       -4.35347277721723        5.45933093318421
O           -1.18753402997697       -4.89524649073089        5.46658819679836
C           -1.38673604450801       -5.36329788677162        6.78632517985126
C           -4.48815748915074       -0.87059546790357        2.05951786737440
C           -2.22768010814438       -3.01201411349096       -2.61745083270376
H           -2.07723538623597       -6.20480550750529        6.73284542094249
H           -1.89437402063204       -4.63661980558499        7.35154262440124
H           -0.55886575932098       -5.60047423796072        7.40828583635241
H            6.44137808331365        2.74063014930073        2.27005576992664
H            5.58013422422917        4.10528017868592        1.37411153926029
H            6.53148812193569        2.89257078301483        0.40602972661779
H           -1.64070166725087       -2.56905439865306       -3.46999340676506
H           -3.30646503889159       -2.92108154294001       -2.96627889951927
H           -1.90269817569884       -4.01222150617818       -2.57407663476490
H           -4.99827810485346       -1.99767784063702        2.04716286166240
H           -5.11825692605705       -0.34992646595287        1.35256809456158
H           -4.43126661170129        0.01401146326961        2.64810642582163
H           -6.27014806487968        2.33858363320983       -2.88825231863484
H           -5.61982482222500        2.53770137492606       -4.31641460921823
H           -5.14040465124641        3.30742788039651       -2.29343737052654
C           -1.68406848123334        4.35731099930543        4.44933006893443
C           -2.06679103301304        3.01640777273937        4.73213845289332
C           -1.22826632105038        2.31490994991349        5.79531436453184
C            0.17085104621367        2.86477180427415        5.97167955021506
C            0.47972016630817        4.23452243489373        5.48357811391671
C           -0.59921095979466        5.01506647157517        5.08974588521106
C           -1.44244442365944        1.04714410548509        6.31133310828897
C           -0.29244078107892        0.30907174211408        6.47989638095524
C            1.02967679118397        0.90032872418557        6.48321162096962
N            1.30801821089979        2.15629244814862        6.13827821879849
C           -2.77040872717694        0.44992411982816        6.30763138004709
C           -2.74518390438388       -0.88645590504170        6.30438815848348
N           -1.61125969678964       -1.65479101542729        6.59546201398186
C           -0.53995004234308       -1.09733015131985        6.64010868796997
C            0.59117737195111       -1.79229422246575        6.80777707786054
C            1.82785670702482       -1.07140533312761        7.08860770993861
C            2.11438550493507        0.20794545624495        6.81866402049688
C           -3.98463627925468        1.08927731050304        6.21184273973834
C           -5.11380652745124        0.32428520509238        6.12795490474210
C           -5.19062993325983       -0.97117957430220        5.78106244458578
C           -3.93873297863823       -1.56239859237304        5.84981647217374
O           -3.96172487104517        2.48317199968975        6.27591669645509
O           -2.91418143763293        2.26714205673460        3.93812029338516
C           -0.49262095485365        6.40069796366913        4.85036004186867
C           -6.45186867312258       -1.58978811374696        5.41651317675399
H            1.36210171029217        4.68438048628642        5.72248191158364
H           -2.00723304807996        4.85512684235146        3.49187907925095
H            3.15275297589920        0.64700366411016        7.05739928572130
H            0.76574045756958       -2.84227018383253        6.63525772691094
H           -3.89375511466211       -2.63151345688547        5.84233754008550
H           -5.99092603427796        0.87702462806397        6.52519065983322
O            0.57883471276572        7.01800030771260        4.77981295013692
O           -1.65320933758923        7.00699272274174        4.30214682719760
C           -1.26786804981923        8.41127927962372        4.18683705903580
C            2.97037798442354       -2.03394163372961        7.23392208708554
O            2.72616281213567       -3.23265700481196        7.49453672258082
O            4.19883552943103       -1.51607571281377        7.45000868579243
C            5.03421795264346       -2.56681683227995        7.10178253232799
O           -7.47301644454272       -1.78193772537472        6.02018448031472
O           -6.17000988273334       -2.09959744997260        4.23141736937854
C           -6.88207878745926       -3.34432354364408        4.00372503560769
C           -4.93600640354613        3.04479166105780        7.20332950191245
C           -3.61221064912786        2.93892579399125        2.83324549639011
H           -6.63754196311040       -3.51951784852805        2.82385536755652
H           -8.06586941472393       -3.41748326541656        3.83320121912335
H           -6.38932564779105       -4.11134805608876        4.61539538462761
H            5.33196409714838       -2.18067957986826        6.13815342423605
H            4.57380656256924       -3.45472238227035        7.10624882001285
H            5.56731960771359       -2.56369677891648        8.04140536519525
H           -3.10568577800068        3.25465344239016        1.81179641860296
H           -3.67353712383607        4.12330585380702        2.79587979851393
H           -4.59574975978439        2.33139939175125        2.91414831216846
H           -4.82838548182533        2.31657021241490        8.05442327413472
H           -6.02867589014228        3.04542319223612        6.69067913631295
H           -4.93881849840931        3.90990061912548        7.87410661248304
H           -0.60499687643469        8.38134639007645        3.34125919564942
H           -0.89112350036235        8.82648331637817        5.15217193769788
H           -2.12371503813646        9.11742346973762        3.89171452846106
116
 energy: -22.528708028807 gnorm: 0.630951395749 xtb: 6.6.1 (8d0f1dd)
C           -3.07654398442616       -1.23852129738089       -2.04893326745071
C           -2.23071689346250       -1.59407083482532       -0.99158980352394
C           -1.19026930405532       -0.77308670691036       -0.59262402669568
C           -0.95210867880712        0.48793628678928       -1.21149792982348
C           -1.58107574642823        0.63427203791403       -2.39498545592080
C           -2.67758129465730       -0.13673961539770       -2.85018081033778
C           -0.38053159965352       -0.97353049450069        0.58012113342229
C            1.02551304647135       -0.45291171394833        0.66568538034878
C            1.18851634619905        0.62458975986734       -0.33214587799166
N            0.19043844371472        1.10046463893574       -1.01492786261147
C           -0.66502045519737       -1.80577145155403        1.70303144370597
C            0.46197566268570       -2.41608135918422        2.45771718441098
N            1.83151787201205       -2.04341962600884        2.32987852986829
C            1.92316662960691       -0.88267273096704        1.59531792366850
C            3.18821961387045       -0.30635692431597        1.49836402983109
C            3.51348292249828        0.51767931048687        0.47166966094726
C            2.56394146432857        0.99515324613638       -0.33170261802305
C           -2.12947454740938       -1.99821244112241        2.01860003774223
C           -2.43786657199039       -3.08780512646087        3.02141489111520
C           -1.35209766225403       -3.67229033101414        3.69497570269260
C           -0.04544056567499       -3.34420086109507        3.29190412637044
O           -2.98818367618924       -1.12783657877078        1.12371635964355
O           -2.67704192957728       -2.77536176693035       -0.41787511722336
C           -3.48864762084748        0.29868067382484       -4.02979745320509
C           -1.55978477875100       -4.75031460212373        4.69436276290168
H           -1.20336510996275        1.59552936675783       -2.90628732404214
H           -4.10295497516199       -1.52450811533708       -2.10608257096371
H            2.98122767377066        1.48537923628309       -1.30065787062409
H            3.97762045098968       -0.74210633290473        1.91213046266954
H            0.75403262667041       -3.96642680656570        3.76597471291970
H           -3.43108433823033       -3.39866430866484        3.36604247482832
O           -3.27000351424556        1.38587072862633       -4.51686898146478
O           -4.40448118366239       -0.46769544207935       -4.71478435696222
C           -4.86934994100491        0.34585386896378       -5.88701983632500
C            4.92964264562054        1.03416675763191        0.28113867919820
O            5.16504702450205        1.47017191620973       -0.83024560668624
O            5.93997062801022        0.67509662697702        1.24852767567451
C            7.22882399895471        1.12185022892263        0.95793217320257
O           -2.65756069992587       -5.26548246014713        4.47737647487516
O           -0.68552528361469       -5.16804576309853        5.55575794523986
C           -0.81824107535100       -6.42436215218300        5.93198502844070
C           -4.20864392446511       -1.16604518376168        1.68106033655901
C           -1.87178555121607       -3.97620844296299       -0.67108238474373
H           -0.16150893172127       -7.05718640988294        5.28994461816638
H           -1.77379096750178       -6.92856466333528        5.66189144710059
H           -0.74443044874159       -6.63888269099524        7.06744973541218
H            7.98943066903453        0.32407925546849        1.40607414333386
H            7.12189613314781        2.05364014895645        1.33933719456747
H            7.25277479732561        1.14718687183169       -0.09795492232479
H           -2.39771096131358       -5.01246901363805       -0.40402901133702
H           -0.93772017413564       -4.12754405779710       -0.08263757575332
H           -1.42732984958993       -3.97231552064879       -1.71818083694102
H           -4.79166895316268       -1.97665895975331        1.25985378802276
H           -4.88880995781925       -0.41478790402199        1.09317277379650
H           -4.16441846166989       -1.50550381656019        2.69594707680368
H           -5.87325395001080        0.16013998419470       -6.02284688474183
H           -4.39041737113036        0.18068473209531       -6.95494337915763
H           -4.78577640340802        1.52795958799001       -6.04901112575835
C           -1.99005292876482        5.40560527702315        6.55547417480428
C           -2.32090542111620        4.08742629747311        6.21905563701649
C           -1.63008708174806        3.14813930072268        6.83154874294728
C           -0.25800205087572        3.57033652541395        7.27627483895125
C            0.23773641055549        4.88773801844512        7.02498100468710
C           -0.67636991938094        5.83073229563656        6.62693791975339
C           -1.77843056918215        1.68727178325224        6.44879675918784
C           -0.67822676632886        0.89457894703789        6.34074386734556
C            0.58343119217429        1.40130846897954        6.68096397113995
N            0.76587743403931        2.62334235290009        7.37994134527463
C           -3.01872400477657        1.06851850625737        6.21082757195460
C           -2.96978196440929       -0.29120038022344        5.73047488996315
N           -1.84805944712945       -1.06517761318689        5.63115261892426
C           -0.75561581882825       -0.54033212207167        6.02878354235315
C            0.30122132619967       -1.35687935324732        6.31110477973267
C            1.59873772559047       -0.85351115907884        6.52937290676683
C            1.74830901374649        0.55066975999286        6.67832135490556
C           -4.39741422253088        1.51634560584275        6.63767845062306
C           -5.57485266831956        0.90392894303275        6.18125306028204
C           -5.40277479374663       -0.36952288953945        5.45427561268626
C           -4.23059002713302       -0.92621439534022        5.48522168261396
O           -4.54500976087522        2.70612679591687        7.31115134224736
O           -3.31389247033205        3.75301721461801        5.18539931929767
C           -0.38819925120808        7.28876260657292        7.11236089518160
C           -6.58653194223758       -0.88207662279016        4.67764006397474
H            1.26466156002500        5.05296052620085        7.32978968597898
H           -2.67638687579941        6.10421731495324        6.45221978743146
H            2.91265776041587        0.69874207500117        6.85351571464866
H            0.24487974108054       -2.47963788486921        6.51158078828594
H           -4.13299808569852       -2.08777419296742        5.31747747214441
H           -6.45653103811122        1.45683511581308        5.81365713234383
O           -0.30520141390709        7.43310932623263        8.28868882255426
O           -0.56119360587714        8.27345078022129        6.23020970550622
C           -0.81380634909872        9.48802840633115        7.03096151312337
C            2.72616808111713       -1.84054184212827        6.55498209263957
O            2.35988032508001       -2.92178149540870        6.17355818669357
O            3.86577342638770       -1.51254121908830        7.23006397333033
C            4.76375414045493       -2.74085753320265        7.11468157832059
O           -7.60281808025249       -0.24979928848386        4.50529237918825
O           -6.32543511731897       -2.19362027303329        4.20694865432887
C           -7.44210124291326       -2.79396204698985        3.70317220642030
C           -5.32098510796106        2.48336840170990        8.35624524190138
C           -4.32159499706568        4.77843630885439        5.26983877700053
H           -7.25314890155497       -3.79798592930054        3.48083415861772
H           -7.96041304562676       -2.11682506309919        2.95486801738877
H           -8.16077428716969       -2.89900884146674        4.44767673570825
H            4.49746336889148       -3.27196318055387        7.93453577986622
H            5.74136814044499       -2.45353167925020        6.92682527317048
H            4.21361733604783       -3.15883492351306        6.23079282392671
H           -4.15461203002848        5.54822167224041        4.48109902018855
H           -4.59256980273418        5.02896190984473        6.43102453193115
H           -5.12776432354282        4.44819901781611        4.75121539313881
H           -5.25649663259783        1.52219219414439        8.86812220025928
H           -6.37445884859097        2.52125347324206        7.99421698047962
H           -4.97873159421119        3.30152412087650        9.13801251521962
H            0.06314156878315       10.09934500343437        7.07121289122130
H           -0.90065568627947        9.27801899147404        8.10567672493463
H           -1.56131360158962       10.14817633018819        6.82873569171356
116
 energy: -22.561561357588 gnorm: 0.576210212181 xtb: 6.6.1 (8d0f1dd)
C           -2.27781244241440       -2.71780959141223       -3.28379417087298
C           -1.49547355813297       -2.91782977740605       -2.07878061234526
C           -0.57306487827908       -1.76616884841060       -1.50092886102013
C           -0.39978591703667       -0.56836605725722       -2.32162059616458
C           -1.12510903299012       -0.55638204873406       -3.55986231518415
C           -2.07957453198081       -1.52440680263444       -3.88400277644018
C            0.17223899972981       -1.77696733311678       -0.33306241164892
C            1.35104550995522       -1.00109047264023       -0.17438062993347
C            1.60008743263589       -0.02336744089868       -1.12538914998199
N            0.68608725611920        0.41780807953158       -1.99257072549494
C           -0.36560691924784       -2.30976310643056        0.81036897074126
C            0.65116191748943       -2.44538587544132        1.79898178229035
N            1.73108400580890       -1.68076557486004        1.91400930985359
C            2.18982066141677       -1.02337566953134        0.95191122853693
C            3.41441648207750       -0.25070677663664        1.01432655197005
C            3.76981010186799        0.56601813352490       -0.13564186204662
C            2.82188206990044        0.63498170376294       -1.12463522142361
C           -1.70420637600363       -2.76738371047997        1.05404175228037
C           -1.90737838085190       -3.51834946641873        2.13800289147124
C           -0.96581601525838       -3.64617802694284        3.16671827605776
C            0.32804111279786       -3.02237061311912        2.96853638952817
O           -2.79125570171652       -2.27584423761308        0.30660695811648
O           -1.30128921684996       -4.32655918938658       -1.60420578426634
C           -2.97385040077986       -1.06186857968996       -4.93407519869332
C           -1.56172381468868       -4.21822135855558        4.45243275355610
H           -1.13351946629423        0.19281022564706       -4.14886147223103
H           -3.01715959138229       -3.42881731354077       -3.49703033804570
H            3.05442360753480        0.92950684487175       -2.22251129252796
H            4.19148858314139       -0.67149547154849        1.52393092824519
H            1.04924647442892       -3.21619835271046        3.72985629431708
H           -2.92620597516512       -3.79427236433447        2.20940418701136
O           -2.64675536131070        0.01349048752025       -5.43191716077161