116
 energy: -22.927973495624 gnorm: 0.329721321806 xtb: 6.6.1 (8d0f1dd)
C           -3.31122850772930        0.79849766164622       -0.92477639677520
C           -2.44380812530352       -0.12270372891954       -0.27661132624697
C           -1.41337090092821        0.39579727573559        0.56335275196199
C           -0.89266158675590        1.65801491088749        0.27377586709581
C           -1.72665675402493        2.51431363229076       -0.49448366572522
C           -2.95444148494349        2.13954154133227       -1.01494489940871
C           -0.74098268209890       -0.43411532818871        1.49825021926784
C            0.56872586496315        0.03782116815119        1.86248088067890
C            1.03782416582094        1.29402317993033        1.50887470833621
N            0.31238977034758        2.07067427098208        0.65193736800696
C           -1.29695700510141       -1.39996043042223        2.41574187746061
C           -0.38243517664656       -2.18060797534842        3.13232615520648
N            0.91308504082021       -1.90366887689689        3.30325166013478
C            1.37712470144904       -0.74872102533751        2.81811050966982
C            2.52149331701875       -0.17739833758153        3.39379298866852
C            2.95849061756259        1.02681208890480        2.95105897606587
C            2.24288949469137        1.78498308775960        2.03503020483770
C           -2.74860936222260       -1.74497937691422        2.38401158947411
C           -3.09416315450955       -2.91614440870436        3.00571134491758
C           -2.16786021984049       -3.77788778654213        3.63251872101904
C           -0.85708937311598       -3.40495313382985        3.68547234358092
O           -3.71994433332149       -0.94984598373544        1.67726658385724
O           -2.55702603277562       -1.47241711578389       -0.57241635275616
C           -3.84297843593025        3.13357444054366       -1.60938954875544
C           -2.68769581069131       -5.03867041417370        4.30484659386931
H           -1.39666850744143        3.51251503834900       -0.76806311868865
H           -4.27662633836220        0.55105838579656       -1.33106614114542
H            2.66329581305412        2.73912661909249        1.72562431984580
H            3.05775395548473       -0.69369546277216        4.16536137542516
H           -0.24710966264510       -4.12034095424229        4.22946223699121
H           -4.11477991332403       -3.04712728052358        3.03244694615357
O           -4.21824883374556        4.03433712717988       -0.87713382485991
O           -4.44510595673734        2.90643496899600       -2.81853501752979
C           -5.44216520282800        3.83300025693726       -3.02488532025093
C            4.23586651889298        1.50004220933226        3.59165660008449
O            5.05927614697201        0.66079890002952        3.91714215179376
O            4.47001334453535        2.86385149488593        3.72605651435371
C            5.79457498613219        3.08584475587818        4.15829123132174
O           -3.82227255313510       -5.27347675879771        4.16636005494405
O           -1.85023202017753       -5.79767454267276        5.06656077253571
C           -2.55119635829503       -6.86252441382958        5.62930343183426
C           -5.07197156564436       -1.42399175670916        1.58830531863830
C           -1.33089900128490       -2.23622472573986       -0.99264499351172
H           -2.54510546830388       -7.76426885143998        4.99136022291012
H           -3.57194749219491       -6.44405511486021        5.74196173723541
H           -2.09133598235598       -7.02043774843818        6.64022264233588
H            5.72707967266424        3.46798026205549        5.10135971236643
H            6.34060091246885        3.78468702308830        3.50069950143490
H            6.17933064298187        2.03010500085905        4.19342358084693
H           -0.91862729772622       -2.57650129080332       -0.01361370304871
H           -0.49769766914251       -1.60651221708571       -1.34094446550576
H           -1.52632419730509       -2.94569707152159       -1.75361447637286
H           -5.11788846557077       -2.41810833635233        1.17520213188926
H           -5.67929807973498       -0.69619639428435        1.04301666067831
H           -5.57598832326623       -1.42383358739762        2.57928294206544
H           -6.13050215934830        3.76035386975488       -2.23272855695873
H           -5.86615610071888        3.45938329385866       -4.02668959924245
H           -5.13479557532099        4.87790991548477       -2.98314551356402
C           -1.38192942069774        3.73616555005018        2.91232598411686
C           -1.84821468128685        2.59982427735607        3.49755545445181
C           -1.05946531454833        2.05730632010638        4.60922730982276
C            0.19893954712228        2.69376791964407        4.86302140881997
C            0.50425395911860        3.94630308659851        4.28768785650746
C           -0.26031777722226        4.46998310053134        3.25072669343212
C           -1.20488993561782        0.74454293276906        5.14851520323437
C           -0.06287609782692        0.02744069315890        5.60930570802864
C            1.19208754369866        0.71421540266195        5.78882868583885
N            1.19428660993148        2.06344359410476        5.62744624321596
C           -2.41361422770794        0.07928500213936        5.25249410304426
C           -2.45851584031083       -1.32662100968547        5.60237876023992
N           -1.29466212405906       -1.98318595734370        5.89916817085159
C           -0.14475655767527       -1.32117560077092        5.98824682881008
C            0.97209270935794       -1.98958449505532        6.53157704134458
C            2.21982707914082       -1.36973967291181        6.68703967237737
C            2.30561929262884       -0.09745313075593        6.26436900324455
C           -3.73018485967715        0.71367583494582        5.25810242262992
C           -4.89964478833448       -0.06184623426677        5.21204641615509
C           -4.82617965800088       -1.39228978090841        5.46901303780036
C           -3.67144193418464       -1.98914944386360        5.67265433266067
O           -3.75568638935321        2.07705011038914        5.52067969627343
O           -2.94192434743730        1.91263938797883        3.01658762327703
C            0.21273512614467        5.50086066357994        2.34765104514621
C           -6.06660304520411       -2.17604633098929        5.80641622556876
H            1.41756699010566        4.38133362238595        4.66974005703471
H           -1.82880610647429        4.11982501512100        2.06992133318584
H            3.26888037378556        0.32655662585251        6.31721410015598
H            0.87146188387207       -3.08471526305024        6.57830423410869
H           -3.67716811065157       -3.05999292755990        5.83019634570050
H           -5.77379677507622        0.43595144608221        4.71017130754348
O            1.34459852619901        5.82615848916894        2.44941456579099
O           -0.74718748219123        6.07961784856304        1.59848183464284
C           -0.21473095568964        7.24015934882472        1.05753806029483
C            3.53228080814219       -2.00967610361154        7.02506769044485
O            3.64093082622715       -3.14437803815732        7.50071391725347
O            4.56565258381079       -1.22937033368332        6.69086985080897
C            5.72579357310716       -1.80692399125161        7.22246151275881
O           -7.04801223588612       -1.95726935745904        5.14194115322235
O           -6.01514389321278       -2.93743591896022        6.94765316328794
C           -7.21292732384718       -3.62681918543340        7.15115816329978
C           -4.95459780685163        2.65960679932188        5.86868674392943
C           -3.68284113682406        2.59129188358641        2.05479246020704
H           -7.43119628931628       -4.22607794725959        6.20622607140901
H           -8.06548455146707       -2.91765848248592        7.29781126410398
H           -7.07314693247270       -4.33087306029711        7.91223421050944
H            6.57332189837178       -1.29353136199234        6.78341268688262
H            5.74663761932316       -2.84282155125561        6.88089468184451
H            5.69426191474290       -1.72781984964892        8.29460302186842
H           -4.10481209541493        3.44288266176275        2.60483747673152
H           -4.49244774344916        1.87419893016926        1.82433103764650
H           -3.18901540870812        2.85154642679373        1.06781919454921
H           -5.55414326821421        2.76698137191684        4.93950725322359
H           -4.78658370641210        3.62090640967288        6.25983200635257
H           -5.43485580473958        1.97242995129449        6.65265772412460
H            0.89164886030839        7.38838561720231        1.13776105146914
H           -0.62894889903848        8.04195665205089        1.64837664327952
H           -0.59282546386754        7.45699159724320        0.03719083132488
116
 energy: -22.718398013447 gnorm: 0.457668767917 xtb: 6.6.1 (8d0f1dd)
C           -3.13333638219712        0.58440208512575       -0.84667495478087
C           -2.40024083158779       -0.25915632216194       -0.04715673091362
C           -1.42484352028388        0.10722738239079        0.88497644198948
C           -1.08175835397196        1.46591497282961        0.88431887315307
C           -1.59001508256591        2.22312474985150       -0.25984428031807
C           -2.74242468063221        1.88750586162664       -0.94258252709320
C           -0.80540435912546       -0.70223367064961        1.86998412742030
C            0.47549405044009       -0.34413149987675        2.24498284004597
C            0.95664195791292        0.94573211531741        1.88343707491257
N            0.04485203912350        1.92136565469256        1.48826591579882
C           -1.40869975555145       -1.84744472008400        2.55251454592130
C           -0.44300651732869       -2.76744919087857        3.19278512558814
N            0.78330213222668       -2.33121511675096        3.45991315588824
C            1.27923902706634       -1.21994705711256        2.98440909657214
C            2.69940107147093       -0.94784602928619        3.09927596065570
C            3.19085446608831        0.18314277232420        2.46808270967491
C            2.37578464208119        1.15500375193242        1.80840702528307
C           -2.76502852193619       -2.20326963460905        2.45807943563372
C           -3.15706348279886       -3.49983100167965        2.78870344361866
C           -2.40457039551797       -4.24750571047335        3.61456414198377
C           -1.10627882224187       -3.75546586528065        3.90788522690516
O           -3.73851201548057       -1.35240121464373        1.94447873563844
O           -2.54089702138949       -1.66930550205687       -0.40440507065987
C           -3.26900028078495        2.97093912255350       -1.78504795418993
C           -2.96186618916593       -5.46142591502205        4.12619518668188
H           -1.27175234207636        3.32472147843087       -0.25606313053187
H           -4.05327895313781        0.06664260764123       -1.20317284560209
H            2.85066722754019        1.80834330623774        1.03619663247617
H            3.40300874359847       -1.59211519358235        3.67042508389776
H           -0.47714502688917       -4.45591237779262        4.44030145644012
H           -4.04496105997347       -3.90288855168528        2.44422672604290
O           -4.44648994749503        3.01360340821851       -2.15236903894584
O           -2.28844925491304        3.95835755147979       -1.92104440024791
C           -2.92404849915590        5.20818029460946       -2.14034859600134
C            4.56078530059574        0.49131770281531        2.79488761392770
O            5.38508075920781       -0.32662499398220        3.05884440795893
O            4.92959844024572        1.78931279597428        2.52317280896240
C            6.30340605551334        1.98757431972417        2.67164781755014
O           -3.01605638571966       -6.52966250782683        3.43835850965590
O           -3.29656970769226       -5.25615638823561        5.51897661758670
C           -4.03834222587411       -6.16750638296543        6.08493579706194
C           -5.01277279242356       -1.49875028959169        2.48562171543147
C           -1.51021758210289       -2.24056397170652       -1.15246682069813
H           -4.07512412239162       -6.05531264774286        7.21935851486945
H           -3.67119983789731       -7.20673218636651        6.09795918674608
H           -5.10156685734645       -5.99963058845151        5.82352674267302
H            6.38535700391794        2.01303362010490        3.81202285086539
H            6.50765635107981        3.04000842160056        2.33625697096934
H            6.86433950170447        1.13052043266256        2.19395816007584
H           -0.43835324846483       -2.03271365896501       -0.88267834620710
H           -1.69798639946713       -2.19107300137405       -2.19135991538910
H           -1.33152290248748       -3.24049838230498       -0.73986657953918
H           -5.40751258432501       -2.50806462080979        2.52214688953190
H           -5.72412305645885       -0.70699075457967        2.12097948549370
H           -4.82303223625978       -1.12590552001816        3.49503105676942
H           -2.81651276618268        5.51371106076764       -3.06920274078185
H           -2.45243020739913        5.85990753311788       -1.41264507687130
H           -4.04012023461125        5.12400025785066       -1.83829091075871
C           -2.33101985104443        4.04386070106495        3.39181585142594
C           -2.43331207605781        2.71358611301420        3.91192368401613
C           -1.39104805868768        2.21933352013660        4.63984889552455
C           -0.19304475606737        2.95776703402512        4.55111143157443
C           -0.09720167146305        4.14580623425612        3.87428137059176
C           -1.17946291803469        4.86585930161854        3.27890832343684
C           -1.23083201206241        0.93237469170646        5.24420114800220
C            0.05480393596534        0.48677382909610        5.69297815602806
C            1.16138736671041        1.35918864479599        5.52483190317843
N            1.08915822845326        2.60189668212510        5.01830795525232
C           -2.38294392049040        0.14423994383920        5.75413494948202
C           -2.23187126451948       -1.18262424683026        5.91833501464426
N           -1.07481868335300       -1.69423931840572        6.15724051467509
C           -0.09053461755496       -0.79439084984442        6.37582305519911
C            1.16658435641050       -0.98581062197999        7.03888594364372
C            2.31500861631538       -0.22398696086580        6.89697565094575
C            2.33575431114753        1.04412916719159        6.21936483674772
C           -3.67967219390629        0.79609192773980        5.91381501208720
C           -4.85674135191394       -0.01107106237937        5.67269917472609
C           -4.77320202956077       -1.39710761245912        5.61965867027344
C           -3.46735771292681       -1.96437024062282        5.67762752724267
O           -3.78797918648563        2.20018817147132        6.21559257207597
O           -3.63030300110133        2.06413652776086        3.70362900115178
C           -1.11840634376882        5.94962314244346        2.24444841731109
C           -5.92929134636723       -2.21769313584462        5.15526853282508
H            0.97330400218642        4.39929006014869        3.80642098465971
H           -3.15304253983965        4.32454141563790        2.77604908818020
H            3.24935086881108        1.76477255986461        6.29778844322581
H            1.36175322264771       -1.89550267375096        7.60046637794272
H           -3.42855344750343       -3.07491055693186        5.54470732499538
H           -5.71126409523148        0.66179797710096        5.57346971617210
O           -2.18910098746554        6.26244803837263        1.69569997847068
O            0.09690221595112        6.44509438314845        1.97591445709415
C            0.05637721644520        7.23066554260698        0.86376277817505
C            3.70364909915534       -0.80043033181462        7.12539484744110
O            3.94263970871553       -1.92343836800964        7.48933810610174
O            4.80852436937047       -0.10439869468325        6.68973122724483
C            5.92777547491524       -0.96351888091448        7.06402646146020
O           -7.09626492924484       -1.82643193361935        5.28791740866484
O           -5.78167504882482       -3.51565261230252        4.69107209857647
C           -7.11688439353384       -4.03719304518079        4.57679991013292
C           -4.08873370614669        2.54336880853365        7.50833000532461
C           -4.46712340483589        2.23985522606919        2.49832538930560
H           -7.55907788974493       -3.31749197310793        3.88340758358094
H           -7.72194379598505       -4.17189300948597        5.54622719575372
H           -6.95384997318806       -5.06888550097243        4.10613851032861
H            6.72762799665426       -0.24411940838546        7.02076192941757
H            6.22749291229812       -1.84655903237910        6.40380874409156
H            5.83729100018957       -1.34519169663404        8.11580810773885
H           -5.11640925128758        3.03651742025946        2.55894934575876
H           -5.11470292097343        1.41873894245754        2.41211202556752
H           -3.63660138889227        2.09861476824156        1.76291709410714
H           -4.94406888018089        1.89698531746421        7.78046445200215
H           -4.57579975650253        3.56432492443283        7.76037797234349
H           -3.15046510049839        2.66803546762165        7.97914907154515
H            0.80100583037276        6.82938544407265        0.10685931862955
H            0.65071052795338        8.12620445253750        1.22244475493633
H           -1.01680490286423        7.31623185450865        0.60624771793663
116
 energy: -22.712224208681 gnorm: 0.522588707147 xtb: 6.6.1 (8d0f1dd)
C           -2.76107100548113        0.42287481646526       -0.92593182811949
C           -2.10947037262298       -0.60423228711865       -0.28091788911352
C           -0.92911128514491       -0.38185946466130        0.47497587905897
C           -0.34280262111567        0.93703481157986        0.52616443945813
C           -1.09249389506075        1.93150510601891       -0.16232957833003
C           -2.30724465601040        1.71435101988105       -0.74342608320818
C           -0.39191758811089       -1.21100234102723        1.57710103371130
C            0.93219031762170       -0.92422797670917        2.02136885623253
C            1.52955579884209        0.33096668629116        1.76579169682162
N            0.87619181816652        1.26076194132796        1.07927482473677
C           -1.04745709534681       -2.21262706929442        2.23385913653448
C           -0.15472549887288       -3.16684592986455        3.05882739909754
N            1.21380735718805       -3.17136916004132        2.97839785037485
C            1.67842082637984       -1.89642222480724        2.71487649229228
C            2.97877684389510       -1.62630944017053        3.11380497626591
C            3.60249764528809       -0.51650639593025        2.64287096929238
C            2.82293587835087        0.43562051050040        2.01476065557286
C           -2.45358107641628       -2.38798523757607        2.37950814941551
C           -2.91820447321780       -3.55736516346708        3.00998125417738
C           -2.09252853734873       -4.51598144342401        3.65086819106700
C           -0.68935376092962       -4.36799015227546        3.52962704107977
O           -3.37819235905968       -1.47847959289866        1.95017544496550
O           -2.34146479686601       -1.86443539686514       -0.75982705623661
C           -3.09142532512912        2.85990881893875       -1.39293817125966
C           -2.64897181258435       -5.81580325439637        4.41362351396427
H           -0.86783586627878        3.05048865656581        0.04711032971666
H           -3.61197079214192        0.30857131422324       -1.62039500444246
H            3.25767394996102        1.40760060588126        1.92107328585125
H            3.45698563922400       -2.51774860504877        3.51985326117920
H           -0.02785989149482       -5.25776382250562        3.59313227515989
H           -3.92088092000619       -3.78258030941910        2.95684485761540
O           -2.32217991681145        3.55676305646483       -2.00770240645313
O           -4.33515376547053        3.04594125486111       -0.82161375935299
C           -4.76644426851136        4.33296576192184       -1.03452257359470
C            5.05111792813630       -0.16733314591182        2.94193163025840
O            5.88670074668481       -1.06037658497787        2.91383661935438
O            5.50615444796635        1.05680639218684        3.13032506064166
C            6.89875400799155        1.02217155658677        3.49217779057935
O           -2.04370607527490       -6.81707323165066        4.31968931342530
O           -3.79064142612184       -5.61752554565142        5.05339324611378
C           -4.31401411980119       -6.80355866997681        5.60544303545307
C           -4.69276985129370       -1.62288795258317        2.54011457365401
C           -0.99126580818505       -2.46572870513837       -1.09973034375229
H           -4.48742053944815       -6.70518808463068        6.60728114196259
H           -3.45598065011313       -7.66165631410128        5.58602859357134
H           -5.34923834304136       -7.13387528058917        5.34432960969165
H            7.35026126727197        0.82423958978041        4.46788932410370
H            7.27627302050804        2.00016033183814        3.25300306251969
H            7.09390945937718        0.33555047643185        2.72079582352137
H           -1.27645757474655       -3.41291103018522       -1.65873896008988
H           -0.67069888871099       -3.05190077746409       -0.29024485688600
H           -0.19492098461277       -1.78836557034659       -1.48913042220172
H           -5.21442601280413       -2.32738366020650        1.73155138487622
H           -5.25107171225819       -0.59293983794996        2.40565678290765
H           -4.80389813406082       -2.04581170476286        3.55480545463119
H           -5.37070504076174        4.60440991135591       -0.13652776108323
H           -5.67650052036431        4.17849712878570       -1.72218964882890
H           -3.96204090145791        4.97131030423990       -1.18686371475535
C           -2.21790984383719        4.35873115969129        2.53352868030157
C           -2.17723103609304        3.11562368350688        2.84298033171433
C           -1.30031896231211        2.70852747534785        3.89424558146955
C           -0.25716752597815        3.52319441622014        4.37031348509889
C           -0.44506969964290        4.93400924592665        4.13944824846723
C           -1.49842421709623        5.34749179903856        3.33140505142985
C           -1.36556828271200        1.47481764508088        4.59597365731875
C           -0.22774269862024        0.88693548343551        4.97266577058579
C            0.89389512144092        1.69941010078608        5.22793230444632
N            0.78836248976704        3.06036576968866        5.00769948394577
C           -2.48483181514016        0.71244971201319        5.08019689204177
C           -2.45844122176268       -0.68538887029298        5.57698167184389
N           -1.20987084921040       -1.27965457403455        5.56297562291418
C           -0.17248124688152       -0.47285723647901        5.51434494738260
C            0.99662425949029       -0.97347402752018        5.83079646314739
C            2.15253858614913       -0.13506451203186        5.92517993230013
C            2.13247084014345        1.17966661360237        5.63242823001721
C           -3.77247047133892        1.33572858447686        5.30984969906392
C           -4.90046680253259        0.51897163762229        5.47764384445834
C           -4.76680991141935       -0.81955336547123        5.83026960749241
C           -3.62070909807166       -1.44591131837778        5.79691640215013
O           -3.96959349218838        2.71182826322776        5.32675640606578
O           -2.93479771581315        2.06962227394916        2.28215425529357
C           -1.66869344567187        6.77792179234596        2.98171139629080
C           -6.01767913351265       -1.49799203322912        6.38009064290168
H            0.21954160056783        5.62102008749424        4.64807230841165
H           -2.96167562332153        4.54917305656961        1.78506892561543
H            2.94593299086741        1.91201398000099        5.93708829583763
H            1.05925794905567       -2.02628010839970        6.12552891033323
H           -3.79134699079675       -2.51284290218875        6.18044560215139
H           -5.93617110797987        0.90146212597722        5.42066280870055
O           -2.68161852416190        6.99025127571226        2.29646573634883
O           -0.76720924820200        7.58610483331253        3.63515106499644
C           -1.02388710320239        8.84182782377988        2.95107874675467
C            3.35386593079594       -0.93101932490315        6.32931545013107
O            3.30103066024360       -2.18136066435681        6.26139746603071
O            4.49019606335675       -0.24614671218883        6.58124002606005
C            5.35801295160817       -1.26146966548162        7.01461783109933
O           -6.80572150263288       -0.93997891567600        7.11823538397602
O           -6.13799030290480       -2.74436904193449        5.90337883713342
C           -7.14556280593906       -3.43866561938109        6.50721691246920
C           -5.15643963462073        3.03192864519432        6.07836772559795
C           -4.23163303968790        2.45993441354657        1.80763123547200
H           -7.92961229987591       -2.78226423141386        6.68762453250755
H           -6.66334740965237       -3.83203321043035        7.60545765645084
H           -7.49605373057295       -4.29717391533409        5.95832450866148
H            6.20321214131832       -0.59908290483536        7.33130666526921
H            5.46561663096808       -1.96265679313305        6.19155486534243
H            5.00235292167873       -1.90867034021575        7.85023180471706
H           -4.72397858854728        2.72438089659170        2.78888320873454
H           -4.57268135926162        1.68442662028174        1.17393132246786
H           -4.22474085001540        3.34665168962974        1.33267910234084
H           -6.13966619811591        2.94555942412332        5.55435972232239
H           -5.12747042496208        4.02900361635666        6.27887045151476
H           -5.42728685597929        2.51723892695676        7.04820463174222
H           -0.27257022665527        8.98069151620155        2.13137463646596
H           -0.72170947509884        9.62014485505402        3.52366852703821
H           -2.12630006987308        8.99508691498325        2.45748898048660
116
 energy: -22.758856464185 gnorm: 0.438127345487 xtb: 6.6.1 (8d0f1dd)
C           -2.74475949914343        0.34164712964415       -0.55451961223802
C           -2.01573519297134       -0.76383261338854        0.13948085482547
C           -0.81409977013289       -0.36924849233122        0.86721931300334
C           -0.34838313551413        0.96251511379935        0.66383342264701
C           -1.11316838690476        1.90555646980085        0.10265803010689
C           -2.29461742132329        1.64922586463673       -0.44563996872449
C           -0.13996262138416       -1.22368142637829        1.75981742535865
C            1.19177267902202       -0.82500687862955        2.02100985990138
C            1.77069234959602        0.31618304633917        1.62341017871113
N            0.95825336713231        1.25605083809279        0.95614315890835
C           -0.82650991297090       -2.26196857217702        2.49386485828169
C            0.09339572056391       -3.13561877300205        3.10491505519562
N            1.47906931285758       -2.96779686718249        3.04140072761956
C            2.03337417155728       -1.74783716107985        2.71579451891463
C            3.37482174875634       -1.58571257978031        2.75590512412773
C            3.95878284214920       -0.45410502338188        2.32449495266234
C            3.11374712211210        0.68530793888947        1.96567080820866
C           -2.24734275353218       -2.38244338095350        2.68116300932267
C           -2.76372482767773       -3.54550621647274        3.17850192513748
C           -1.81677442368256       -4.49340589755037        3.73778086226926
C           -0.47912077266748       -4.21028985284724        3.74064092871927
O           -2.92875069880361       -1.22193201055348        2.44278837131811
O           -2.34653032415338       -2.09959893736502       -0.21322415041541
C           -3.07876332843931        2.80027094207360       -0.99552284365495
C           -2.17953161976588       -5.82393294274325        4.34518782847032
H           -0.42002344447588        2.70125484389973       -0.15198071493695
H           -3.64048758488577        0.04802062536888       -1.08193639923579
H            3.67971071703427        1.48103508885737        1.45311057925076
H            3.97603699907305       -2.29630936957521        3.18922527121829
H            0.18795350537837       -5.00611861119978        4.15445835728599
H           -3.79914096809895       -3.73864254277814        3.25990517502308
O           -2.87911702313028        3.91169027509624       -0.49919247963140