      -----------------------------------------------------------      
     |                   =====================                   |     
     |                           x T B                           |     
     |                   =====================                   |     
     |                         S. Grimme                         |     
     |          Mulliken Center for Theoretical Chemistry        |     
     |                    University of Bonn                     |     
      -----------------------------------------------------------      

   * xtb version 6.6.1 (8d0f1dd) compiled by 'runner@Mac-1690902418499.local' on 2023-08-01

   xtb is free software: you can redistribute it and/or modify it under
   the terms of the GNU Lesser General Public License as published by
   the Free Software Foundation, either version 3 of the License, or
   (at your option) any later version.
   
   xtb is distributed in the hope that it will be useful,
   but WITHOUT ANY WARRANTY; without even the implied warranty of
   MERCHANTABILITY or FITNESS FOR A PARTICULAR PURPOSE.  See the
   GNU Lesser General Public License for more details.
   
   Cite this work as:
   * C. Bannwarth, E. Caldeweyher, S. Ehlert, A. Hansen, P. Pracht,
     J. Seibert, S. Spicher, S. Grimme, WIREs Comput. Mol. Sci., 2020, 11,
     e01493. DOI: 10.1002/wcms.1493
   
   for GFN2-xTB:
   * C. Bannwarth, S. Ehlert and S. Grimme., J. Chem. Theory Comput., 2019,
     15, 1652-1671. DOI: 10.1021/acs.jctc.8b01176
   for GFN1-xTB:
   * S. Grimme, C. Bannwarth, P. Shushkov, J. Chem. Theory Comput., 2017,
     13, 1989-2009. DOI: 10.1021/acs.jctc.7b00118
   for GFN0-xTB:
   * P. Pracht, E. Caldeweyher, S. Ehlert, S. Grimme, ChemRxiv, 2019, preprint.
     DOI: 10.26434/chemrxiv.8326202.v1
   for GFN-FF:
   * S. Spicher and S. Grimme, Angew. Chem. Int. Ed., 2020, 59, 15665-15673.
     DOI: 10.1002/anie.202004239
   
   for ALPB and GBSA implicit solvation:
   * S. Ehlert, M. Stahn, S. Spicher, S. Grimme, J. Chem. Theory Comput.,
     2021, 17, 4250-4261. DOI: 10.1021/acs.jctc.1c00471
   
   for DFT-D4:
   * E. Caldeweyher, C. Bannwarth and S. Grimme, J. Chem. Phys., 2017,
     147, 034112. DOI: 10.1063/1.4993215
   * E. Caldeweyher, S. Ehlert, A. Hansen, H. Neugebauer, S. Spicher,
     C. Bannwarth and S. Grimme, J. Chem. Phys., 2019, 150, 154122.
     DOI: 10.1063/1.5090222
   * E. Caldeweyher, J.-M. Mewes, S. Ehlert and S. Grimme, Phys. Chem. Chem. Phys.
     2020, 22, 8499-8512. DOI: 10.1039/D0CP00502A
   
   for sTDA-xTB:
   * S. Grimme and C. Bannwarth, J. Chem. Phys., 2016, 145, 054103.
     DOI: 10.1063/1.4959605
   
   in the mass-spec context:
   * V. Asgeirsson, C. Bauer and S. Grimme, Chem. Sci., 2017, 8, 4879.
     DOI: 10.1039/c7sc00601b
   * J. Koopman and S. Grimme, ACS Omega 2019, 4, 12, 15120-15133.
     DOI: 10.1021/acsomega.9b02011
   
   for metadynamics refer to:
   * S. Grimme, J. Chem. Theory Comput., 2019, 155, 2847-2862
     DOI: 10.1021/acs.jctc.9b00143
   
   for SPH calculations refer to:
   * S. Spicher and S. Grimme, J. Chem. Theory Comput., 2021, 17, 1701-1714
     DOI: 10.1021/acs.jctc.0c01306
   
   with help from (in alphabetical order)
   P. Atkinson, C. Bannwarth, F. Bohle, G. Brandenburg, E. Caldeweyher
   M. Checinski, S. Dohm, S. Ehlert, S. Ehrlich, I. Gerasimov, C. Hölzer
   A. Katbashev, J. Koopman, C. Lavigne, S. Lehtola, F. März, M. Müller,
   F. Musil, H. Neugebauer, J. Pisarek, C. Plett, P. Pracht, F. Pultar,
   J. Seibert, P. Shushkov, S. Spicher, M. Stahn, M. Steiner, T. Strunk,
   J. Stückrath, T. Rose, and J. Unsleber
   
 * started run on 2025/03/14 at 12:40:44.033     

           -------------------------------------------------
          |                Calculation Setup                |
           -------------------------------------------------

          program call               : xtb scoord.19 --md --gfnff --input md_settings.inp
          coordinate file            : scoord.19
          omp threads                :                     8

   ID    Z sym.   atoms
    1    6 C      1-9, 11, 12, 14-21, 24, 25, 34, 35, 38, 41-43, 59-67, 69,
                  70, 72-79, 82, 83, 92, 93, 96, 99-101
    2    7 N      10, 13, 68, 71
    3    8 O      22, 23, 32, 33, 36, 37, 39, 40, 80, 81, 90, 91, 94, 95, 97,
                  98
    4    1 H      26-31, 44-58, 84-89, 102-116

molecular fragmentation (1/2 indicates fragments):
111111111111111111111111111111111111111111111111111111111122222222222222
22222222222222222222222222222222222222222222
# atoms in fragment 1/2:    58    58
 fragment masses (1/2) :      501.47      501.47
CMA distance (Bohr)    :  10.171
constraining FC (au)   :  0.0500

          ==================== Thresholds ====================
          CN  :   150.00000
          rep :   500.00000
          disp:  2500.00000
          HB1 :   250.00000
          HB2 :   450.00000

          Pauling EN used:
          Z : 1  EN :  2.20
          Z : 6  EN :  2.55
          Z : 7  EN :  3.04
          Z : 8  EN :  3.44
          electric field strengths (au): 0.000

           ------------------------------------------------- 
          |           Force Field Initialization            |
           ------------------------------------------------- 

          distances ...
          ----------------------------------------
          generating topology and atomic info file ...
          pair mat ...
          computing topology distances matrix with Floyd-Warshall algo ...
          making topology EEQ charges ...
          #fragments for EEQ constrain: 2
          ----------------------------------------
          generating topology and atomic info file ...
          pair mat ...
          computing topology distances matrix with Floyd-Warshall algo ...
          making topology EEQ charges ...
          rings ...
          # BATM   1140
          # H in HB   42
          doing iterative Hueckel for 2 subsystem(s) ...

  atom   neighbors  erfCN metchar sp-hybrid imet pi  qest     coordinates
    1  C       3    2.82   0.00         2    0    1  -0.013   -7.129339   -0.035145   -3.069364
    2  C       3    2.81   0.00         2    0    1   0.104   -5.193649   -1.370308   -2.016263
    3  C       3    2.83   0.00         2    0    1   0.014   -3.793838   -0.115063    0.060913
    4  C       3    2.84   0.00         2    0    1   0.068   -3.696830    2.607046   -0.021443
    5  C       3    2.84   0.00         2    0    1  -0.010   -5.542089    3.790573   -1.319648
    6  C       3    2.82   0.00         2    0    1   0.024   -7.212202    2.572512   -2.864399
    7  C       3    2.82   0.00         2    0    1   0.003   -2.372518   -1.243393    2.018888
    8  C       3    2.84   0.00         2    0    1   0.018   -0.294037    0.289043    3.047084
    9  C       3    2.86   0.00         2    0    1   0.069   -0.151723    2.942223    2.655630
   10  N       2    1.97   0.00         2    0    1  -0.182   -1.887641    3.932812    1.113141
   11  C       3    2.83   0.00         2    0    1   0.014   -2.206675   -3.872495    2.629138
   12  C       3    2.85   0.00         2    0    1   0.068   -0.051631   -4.824337    4.047510
   13  N       2    1.95   0.00         2    0    1  -0.182    2.024589   -3.358491    4.360101
   14  C       3    2.87   0.00         2    0    1   0.069    1.700232   -0.839400    4.176717
   15  C       3    2.84   0.00         2    0    1  -0.009    3.766470    0.719729    4.965737
   16  C       3    2.82   0.00         2    0    1   0.024    3.826740    3.237839    4.617054
   17  C       3    2.83   0.00         2    0    1  -0.009    1.983956    4.480844    3.232566
   18  C       3    2.83   0.00         2    0    1   0.104   -4.350261   -5.506142    2.147616
   19  C       3    2.81   0.00         2    0    1  -0.013   -4.127347   -8.125707    2.466973
   20  C       3    2.81   0.00         2    0    1   0.024   -1.754908   -9.028446    3.222389
   21  C       3    2.84   0.00         2    0    1  -0.010    0.159022   -7.430473    3.863184
   22  O       2    1.90   0.00         3    0    1  -0.326   -6.824684   -4.765223    1.993930
   23  O       2    1.91   0.00         3    0    1  -0.326   -4.648788   -3.892703   -2.837477
   24  C       3    2.92   0.00         2    0    1   0.224   -9.089512    4.027090   -4.338715
   25  C       3    2.85   0.00         2    0    1   0.224   -1.506232  -11.786743    3.960813
   26  H       1    0.98   0.00         0    0    0   0.083   -5.619787    5.752636   -1.788889
   27  H       1    0.97   0.00         0    0    0   0.084   -8.381014   -1.063550   -4.308680
   28  H       1    0.98   0.00         0    0    0   0.084    1.984206    6.428474    2.820178
   29  H       1    0.98   0.00         0    0    0   0.084    5.300138   -0.233237    5.649456
   30  H       1    0.98   0.00         0    0    0   0.083    1.988241   -8.295073    3.823331
   31  H       1    0.98   0.00         0    0    0   0.084   -5.777532   -9.044767    2.200696
   32  O       1    0.98   0.00         2    0    1  -0.364  -10.967237    2.853119   -5.138858
   33  O       2    1.92   0.00         3    0    1  -0.315   -8.551596    6.527123   -4.820732
   34  C       4    3.56   0.00         3    0    0   0.037  -10.225684    7.327686   -6.567802
   35  C       3    2.85   0.00         2    0    1   0.223    6.025972    4.691405    5.386190
   36  O       1    0.98   0.00         2    0    1  -0.365    6.119795    6.944655    4.572237
   37  O       2    1.91   0.00         3    0    1  -0.315    7.929887    3.612988    6.958351
   38  C       4    3.50   0.00         3    0    0   0.039    9.465292    5.558071    7.899574
   39  O       1    0.98   0.00         2    0    1  -0.364   -2.891273  -13.274595    2.775875
   40  O       2    1.91   0.00         3    0    1  -0.315    0.551771  -12.476692    5.539541
   41  C       4    3.53   0.00         3    0    0   0.037    0.355334  -15.068528    6.018346
   42  C       4    3.48   0.00         3    0    0   0.033   -7.489811   -2.879061    4.013433
   43  C       4    3.49   0.00         3    0    0   0.033   -6.248102   -4.968194   -4.661471
   44  H       1    0.97   0.00         0    0    0   0.079    1.981024  -16.183430    5.424016
   45  H       1    0.97   0.00         0    0    0   0.079   -1.265618  -15.661182    4.901812
   46  H       1    0.98   0.00         0    0    0   0.079   -0.258416  -15.386985    7.886509
   47  H       1    0.95   0.02         0    0    0   0.078   11.503965    4.681597    8.133846
   48  H       1    0.98   0.00         0    0    0   0.078    8.958059    5.760309    9.769688
   49  H       1    0.97   0.00         0    0    0   0.078    9.551227    7.251190    6.713330
   50  H       1    0.97   0.00         0    0    0   0.076   -7.890421   -5.677682   -3.665326
   51  H       1    0.97   0.01         0    0    0   0.076   -5.153385   -6.487483   -5.562071
   52  H       1    0.98   0.00         0    0    0   0.076   -6.953419   -3.547045   -5.928369
   53  H       1    0.97   0.01         0    0    0   0.076   -5.946271   -2.744437    5.394493
   54  H       1    0.97   0.00         0    0    0   0.076   -8.907320   -3.964263    5.046666
   55  H       1    0.97   0.00         0    0    0   0.076   -8.306997   -1.074112    3.440460
   56  H       1    0.97   0.00         0    0    0   0.079  -11.039028    9.208686   -6.263977
   57  H       1    0.96   0.01         0    0    0   0.079  -11.729722    5.783452   -6.988630
   58  H       1    0.97   0.01         0    0    0   0.079   -9.026795    7.509081   -8.320997
   59  C       3    2.81   0.00         2    0    1  -0.013   -1.171467    9.182653   10.012414
   60  C       3    2.83   0.00         2    0    1   0.104   -2.240780    6.724449    9.487529
   61  C       3    2.82   0.00         2    0    1   0.014   -0.962529    4.601170   10.430349
   62  C       3    2.87   0.00         2    0    1   0.068    1.639095    4.689662   10.879182
   63  C       3    2.86   0.00         2    0    1  -0.010    2.847828    7.130753   10.823267
   64  C       3    2.81   0.00         2    0    1   0.024    1.430687    9.264294   10.629588
   65  C       3    2.83   0.00         2    0    1   0.003   -2.135612    2.095297   10.776816
   66  C       3    2.84   0.00         2    0    1   0.018   -0.556411    0.064785   10.565843
   67  C       3    2.86   0.00         2    0    1   0.069    2.192465    0.414607   10.649369
   68  N       2    1.95   0.00         2    0    1  -0.182    3.234306    2.655588   10.585055
   69  C       3    2.81   0.00         2    0    1   0.014   -4.911438    1.585416   11.170467
   70  C       3    2.87   0.00         2    0    1   0.068   -5.703233   -0.944864   10.457139
   71  N       2    1.95   0.00         2    0    1  -0.182   -4.044642   -2.845411    9.956251
   72  C       3    2.88   0.00         2    0    1   0.069   -1.636655   -2.338426   10.629343
   73  C       3    2.82   0.00         2    0    1  -0.009    0.001471   -4.348847   11.205748
   74  C       3    2.81   0.00         2    0    1   0.024    2.668565   -4.069378   11.131862
   75  C       3    2.82   0.00         2    0    1  -0.009    3.726379   -1.733618   10.652715
   76  C       3    2.80   0.00         2    0    1   0.104   -6.484838    3.306095   12.641473
   77  C       3    2.81   0.00         2    0    1  -0.013   -8.861521    2.515654   13.170414
   78  C       3    2.82   0.00         2    0    1   0.024   -9.724909    0.131300   12.138787
   79  C       3    2.81   0.00         2    0    1  -0.010   -8.189194   -1.665507   11.275134
   80  O       2    1.91   0.00         3    0    1  -0.326   -5.772905    5.767487   13.009581
   81  O       2    1.92   0.00         3    0    1  -0.326   -4.428243    6.736768    8.059897
   82  C       3    2.91   0.00         2    0    1   0.224    3.077080   11.463771   10.402518
   83  C       3    2.86   0.00         2    0    1   0.224  -12.434278   -0.492911   12.713441
   84  H       1    0.98   0.00         0    0    0   0.083    4.802607    7.338569   10.822873
   85  H       1    0.98   0.00         0    0    0   0.084   -1.981793   10.859305    9.444924
   86  H       1    0.97   0.00         0    0    0   0.084    5.741197   -1.578405   10.286686
   87  H       1    0.98   0.00         0    0    0   0.084   -0.602603   -6.223230   11.052433
   88  H       1    0.98   0.00         0    0    0   0.083   -8.743836   -3.615359   11.134545
   89  H       1    0.97   0.00         0    0    0   0.084  -10.471400    3.714105   13.660916
   90  O       1    0.98   0.00         2    0    1  -0.364    1.846832   13.520990   10.118848
   91  O       2    1.92   0.00         3    0    1  -0.315    5.610557   11.307354    9.942614
   92  C       4    3.54   0.00         3    0    0   0.037    6.592289   13.620198    9.483571
   93  C       3    2.87   0.00         2    0    1   0.223    4.416583   -6.234727   11.401778
   94  O       1    0.98   0.00         2    0    1  -0.365    6.650598   -6.160477   11.208339
   95  O       2    1.92   0.00         3    0    1  -0.315    3.389157   -8.361880   12.175305
   96  C       4    3.51   0.00         3    0    0   0.039    4.941167  -10.455134   11.767235
   97  O       1    0.98   0.00         2    0    1  -0.364  -13.942292   -1.134721   11.174294
   98  O       2    1.92   0.00         3    0    1  -0.315  -13.092031    0.479222   15.022630
   99  C       4    3.52   0.00         3    0    0   0.037  -15.446402   -0.192139   15.743559
  100  C       4    3.47   0.00         3    0    0   0.033   -7.498215    7.858010   13.666304
  101  C       4    3.48   0.00         3    0    0   0.033   -4.399517    5.228578    5.939339
  102  H       1    0.95   0.02         0    0    0   0.079  -15.121159   -2.327286   16.169132
  103  H       1    0.97   0.01         0    0    0   0.079  -16.989596   -0.094335   14.332726
  104  H       1    0.98   0.00         0    0    0   0.079  -15.894643    0.577168   17.495388
  105  H       1    0.96   0.01         0    0    0   0.078    4.027083  -12.179971   12.670040
  106  H       1    0.94   0.02         0    0    0   0.078    6.945834  -10.248780   12.788360
  107  H       1    0.98   0.00         0    0    0   0.078    5.142618  -10.265466    9.775140
  108  H       1    0.97   0.01         0    0    0   0.076   -6.363391    4.585628    5.527122
  109  H       1    0.95   0.02         0    0    0   0.076   -2.953090    3.525964    5.864608
  110  H       1    0.97   0.01         0    0    0   0.076   -3.877022    6.387950    4.235357
  111  H       1    0.96   0.01         0    0    0   0.076   -8.267345    8.809465   11.847368
  112  H       1    0.98   0.00         0    0    0   0.076   -6.595038    8.981506   14.864269
  113  H       1    0.97   0.01         0    0    0   0.076   -9.015274    6.858591   14.705495
  114  H       1    0.97   0.01         0    0    0   0.079    6.204706   14.847655   11.125726
  115  H       1    0.96   0.01         0    0    0   0.079    5.947530   14.667430    7.707694
  116  H       1    0.98   0.00         0    0    0   0.079    8.543582   13.278673    9.245996

          #atoms :   116
          #bonds :   124
          #angl  :   206
          #tors  :   302
          #nmol  :   2
          #optfrag :   2
           ------------------------------------------------- 
          |                   G F N - F F                   |
          |          A general generic force-field          |
          |                  Version 1.0.3                  | 
           ------------------------------------------------- 
          Number of HB bonds (bound hydrogen)     16589
          Number of HB bonds (unbound hydrogen)   490
          Number of XB bonds                      0

 E+G (total)                   0 d,  0 h,  0 min,  0.002 sec
 distance/D3 list               ...        0 min,  0.000 sec (  1.101%)
 non bonded repulsion           ...        0 min,  0.000 sec (  6.419%)
 dCN                            ...        0 min,  0.000 sec (  5.795%)
 EEQ energy and q               ...        0 min,  0.000 sec (  9.526%)
 D3                             ...        0 min,  0.000 sec ( 15.857%)
 EEQ gradient                   ...        0 min,  0.000 sec (  2.123%)
 bonds                          ...        0 min,  0.000 sec (  4.042%)
 bend and torsion               ...        0 min,  0.000 sec (  4.938%)
 bonded ATM                     ...        0 min,  0.000 sec (  3.273%)
 HB/XB (incl list setup)        ...        0 min,  0.001 sec ( 46.498%)

         :::::::::::::::::::::::::::::::::::::::::::::::::::::
         ::                     SUMMARY                     ::
         :::::::::::::::::::::::::::::::::::::::::::::::::::::
         :: total energy             -22.809881169542 Eh    ::
         :: gradient norm              0.456348771084 Eh/a0 ::
         ::.................................................::
         :: bond energy              -23.553593316970 Eh    ::
         :: angle energy               0.115451432225 Eh    ::
         :: torsion energy             0.114328332757 Eh    ::
         :: repulsion energy           1.632673651326 Eh    ::
         :: electrostat energy        -0.938017230479 Eh    ::
         :: dispersion energy         -0.143026715459 Eh    ::
         :: HB energy                 -0.008858338595 Eh    ::
         :: XB energy                  0.000000000000 Eh    ::
         :: bonded atm energy         -0.028838984348 Eh    ::
         :: external energy            0.000000000000 Eh    ::
         :: add. restraining           0.000000000000 Eh    ::
         :: total charge               0.000000000000 e     ::
         :::::::::::::::::::::::::::::::::::::::::::::::::::::

           -------------------------------------------------
          |                Property Printout                |
           -------------------------------------------------

           -------------------------------------------------
          | TOTAL ENERGY              -22.809881169542 Eh   |
          | GRADIENT NORM               0.456348771084 Eh/α |
           -------------------------------------------------
           ------------------------------------------------- 
          |               Molecular Dynamics                |
           ------------------------------------------------- 
 trajectories on xtb.trj or xtb.trj.<n>

 MD time /ps        :   20.00
 dt /fs             :    2.00
 SCC accuracy       :    2.00
 temperature /K     :  550.00
 max steps          : 10000
 block length (av.) :  2500
 dumpstep(trj) /fs  :  500.00   250
 dumpstep(coords)/fs: 1000.00   500
 H atoms mass (amu) :     4
 # deg. of freedom  :   348
 SHAKE off
 Berendsen THERMOSTAT on
         time (ps)    <Epot>      Ekin   <T>   T     Etot
      0    0.00      0.00000   0.6323    0.    0.   -22.17763
est. speed in wall clock h for 100 ps :  0.02
    200    0.40    -22.53399   0.3949  786.  717.   -22.25465
    400    0.80    -22.61235   0.3407  748.  618.   -22.33058
    600    1.20    -22.64702   0.3435  717.  623.   -22.36504
    800    1.60    -22.67220   0.3325  696.  603.   -22.42086
   1000    2.00    -22.68906   0.3239  676.  588.   -22.45009
   1200    2.40    -22.70188   0.3181  660.  577.   -22.46636
   1400    2.80    -22.71210   0.3102  648.  563.   -22.48583
   1600    3.20    -22.72106   0.2972  639.  539.   -22.46092
   1800    3.60    -22.72744   0.3320  629.  603.   -22.45992
   2000    4.00    -22.73373   0.3189  623.  579.   -22.46858
   2200    4.40    -22.73854   0.2745  617.  498.   -22.47769
   2400    4.80    -22.74209   0.3179  611.  577.   -22.48838
block <Epot> / <T> :     -22.75276  608.     drift:  0.99D+02   Tbath : 550.
   2600    5.20    -22.74530   0.3079  606.  559.   -22.47207
   2800    5.60    -22.74826   0.3212  602.  583.   -22.48687
   3000    6.00    -22.75104   0.3123  599.  567.   -22.47933
   3200    6.40    -22.75382   0.3211  597.  583.   -22.49803
   3400    6.80    -22.75593   0.2757  594.  500.   -22.48315
   3600    7.20    -22.75793   0.3048  591.  553.   -22.47561
   3800    7.60    -22.75947   0.2912  589.  528.   -22.47540
   4000    8.00    -22.76100   0.2948  587.  535.   -22.47660
   4200    8.40    -22.76257   0.3185  586.  578.   -22.47856
   4400    8.80    -22.76383   0.3024  584.  549.   -22.49715
   4600    9.20    -22.76506   0.3194  582.  580.   -22.47579
   4800    9.60    -22.76600   0.2844  581.  516.   -22.50580
   5000   10.00    -22.76674   0.3270  579.  594.   -22.48298
block <Epot> / <T> :     -22.78982  551.     drift:  0.99D+02   Tbath : 550.
   5200   10.40    -22.76744   0.2995  578.  544.   -22.47453
   5400   10.80    -22.76799   0.3135  577.  569.   -22.47442
   5600   11.20    -22.76851   0.3227  576.  586.   -22.47221
   5800   11.60    -22.76910   0.2896  575.  526.   -22.49937
   6000   12.00    -22.76984   0.3193  575.  579.   -22.48398
   6200   12.40    -22.77048   0.2860  574.  519.   -22.49540
   6400   12.80    -22.77102   0.3046  573.  553.   -22.51640
   6600   13.20    -22.77167   0.3044  573.  552.   -22.49166
   6800   13.60    -22.77225   0.3264  572.  592.   -22.50496
   7000   14.00    -22.77269   0.2925  571.  531.   -22.48335
   7200   14.40    -22.77317   0.3003  571.  545.   -22.49642
   7400   14.80    -22.77354   0.3018  570.  548.   -22.48954
block <Epot> / <T> :     -22.78775  550.     drift:  0.99D+02   Tbath : 550.
   7600   15.20    -22.77387   0.2962  569.  538.   -22.46867
   7800   15.60    -22.77419   0.2843  569.  516.   -22.49831
   8000   16.00    -22.77458   0.3124  568.  567.   -22.47316
   8200   16.40    -22.77479   0.2868  568.  520.   -22.45241
   8400   16.80    -22.77487   0.3027  567.  549.   -22.47910
   8600   17.20    -22.77486   0.2946  567.  535.   -22.46701
   8800   17.60    -22.77486   0.3163  566.  574.   -22.46916
   9000   18.00    -22.77491   0.2846  566.  516.   -22.47689
   9200   18.40    -22.77491   0.2779  565.  504.   -22.48922
   9400   18.80    -22.77487   0.3418  565.  620.   -22.47497
   9600   19.20    -22.77504   0.3025  565.  549.   -22.46354
   9800   19.60    -22.77532   0.2970  565.  539.   -22.47080
 average properties 
 Epot               :  -22.775373677013697     
 Epot (accurate SCC):  -22.777681242967219     
 Ekin               :  0.31103732196472311     
 Etot               :  -22.464336355048975     
 T                  :   564.47075077409897     
 thermostating problem
 normal exit of md()
########################################################################
[WARNING] Runtime exception occurred
-1- gfnff_setup: Could not read topology file.
########################################################################
Note: The following floating-point exceptions are signalling: IEEE_UNDERFLOW_FLAG
normal termination of xtb

------------------------------------------------------------------------
 * finished run on 2025/03/14 at 12:41:00.185     
------------------------------------------------------------------------
 total:
 * wall-time:     0 d,  0 h,  0 min, 16.152 sec
 *  cpu-time:     0 d,  0 h,  0 min, 31.542 sec
 * ratio c/w:     1.953 speedup
 SCF:
 * wall-time:     0 d,  0 h,  0 min,  0.003 sec
 *  cpu-time:     0 d,  0 h,  0 min,  0.005 sec
 * ratio c/w:     1.737 speedup
 MD:
 * wall-time:     0 d,  0 h,  0 min, 16.127 sec
 *  cpu-time:     0 d,  0 h,  0 min, 31.525 sec
 * ratio c/w:     1.955 speedup

