116
 energy: -22.928061455056 gnorm: 0.329736929581 xtb: 6.6.1 (8d0f1dd)
C           -3.31122850772930        0.79849766164622       -0.92477639677520
C           -2.44380812530352       -0.12270372891954       -0.27661132624697
C           -1.41337090092821        0.39579727573559        0.56335275196199
C           -0.89266158675590        1.65801491088749        0.27377586709581
C           -1.72665675402493        2.51431363229076       -0.49448366572522
C           -2.95444148494349        2.13954154133227       -1.01494489940871
C           -0.74098268209890       -0.43411532818871        1.49825021926784
C            0.56872586496315        0.03782116815119        1.86248088067890
C            1.03782416582094        1.29402317993033        1.50887470833621
N            0.31238977034758        2.07067427098208        0.65193736800696
C           -1.29695700510141       -1.39996043042223        2.41574187746061
C           -0.38243517664656       -2.18060797534842        3.13232615520648
N            0.91308504082021       -1.90366887689689        3.30325166013478
C            1.37712470144904       -0.74872102533751        2.81811050966982
C            2.52149331701875       -0.17739833758153        3.39379298866852
C            2.95849061756259        1.02681208890480        2.95105897606587
C            2.24288949469137        1.78498308775960        2.03503020483770
C           -2.74860936222260       -1.74497937691422        2.38401158947411
C           -3.09416315450955       -2.91614440870436        3.00571134491758
C           -2.16786021984049       -3.77788778654213        3.63251872101904
C           -0.85708937311598       -3.40495313382985        3.68547234358092
O           -3.71994433332149       -0.94984598373544        1.67726658385724
O           -2.55702603277562       -1.47241711578389       -0.57241635275616
C           -3.84297843593025        3.13357444054366       -1.60938954875544
C           -2.68769581069131       -5.03867041417370        4.30484659386931
H           -1.39666850744143        3.51251503834900       -0.76806311868865
H           -4.27662633836220        0.55105838579656       -1.33106614114542
H            2.66329581305412        2.73912661909249        1.72562431984580
H            3.05775395548473       -0.69369546277216        4.16536137542516
H           -0.24710966264510       -4.12034095424229        4.22946223699121
H           -4.11477991332403       -3.04712728052358        3.03244694615357
O           -4.21824883374556        4.03433712717988       -0.87713382485991
O           -4.44510595673734        2.90643496899600       -2.81853501752979
C           -5.44216520282800        3.83300025693726       -3.02488532025093
C            4.23586651889298        1.50004220933226        3.59165660008449
O            5.05927614697201        0.66079890002952        3.91714215179376
O            4.47001334453535        2.86385149488593        3.72605651435371
C            5.79457498613219        3.08584475587818        4.15829123132174
O           -3.82227255313510       -5.27347675879771        4.16636005494405
O           -1.85023202017753       -5.79767454267276        5.06656077253571
C           -2.55119635829503       -6.86252441382958        5.62930343183426
C           -5.07197156564436       -1.42399175670916        1.58830531863830
C           -1.33089900128490       -2.23622472573986       -0.99264499351172
H           -2.54510546830388       -7.76426885143998        4.99136022291012
H           -3.57194749219491       -6.44405511486021        5.74196173723541
H           -2.09133598235598       -7.02043774843818        6.64022264233588
H            5.72707967266424        3.46798026205549        5.10135971236643
H            6.34060091246885        3.78468702308830        3.50069950143490
H            6.17933064298187        2.03010500085905        4.19342358084693
H           -0.91862729772622       -2.57650129080332       -0.01361370304871
H           -0.49769766914251       -1.60651221708571       -1.34094446550576
H           -1.52632419730509       -2.94569707152159       -1.75361447637286
H           -5.11788846557077       -2.41810833635233        1.17520213188926
H           -5.67929807973498       -0.69619639428435        1.04301666067831
H           -5.57598832326623       -1.42383358739762        2.57928294206544
H           -6.13050215934830        3.76035386975488       -2.23272855695873
H           -5.86615610071888        3.45938329385866       -4.02668959924245
H           -5.13479557532099        4.87790991548477       -2.98314551356402
C           -1.38192942069774        3.73616555005018        2.91232598411686
C           -1.84821468128685        2.59982427735607        3.49755545445181
C           -1.05946531454833        2.05730632010638        4.60922730982276
C            0.19893954712228        2.69376791964407        4.86302140881997
C            0.50425395911860        3.94630308659851        4.28768785650746
C           -0.26031777722226        4.46998310053134        3.25072669343212
C           -1.20488993561782        0.74454293276906        5.14851520323437
C           -0.06287609782692        0.02744069315890        5.60930570802864
C            1.19208754369866        0.71421540266195        5.78882868583885
N            1.19428660993148        2.06344359410476        5.62744624321596
C           -2.41361422770794        0.07928500213936        5.25249410304426
C           -2.45851584031083       -1.32662100968547        5.60237876023992
N           -1.29466212405906       -1.98318595734370        5.89916817085159
C           -0.14475655767527       -1.32117560077092        5.98824682881008
C            0.97209270935794       -1.98958449505532        6.53157704134458
C            2.21982707914082       -1.36973967291181        6.68703967237737
C            2.30561929262884       -0.09745313075593        6.26436900324455
C           -3.73018485967715        0.71367583494582        5.25810242262992
C           -4.89964478833448       -0.06184623426677        5.21204641615509
C           -4.82617965800088       -1.39228978090841        5.46901303780036
C           -3.67144193418464       -1.98914944386360        5.67265433266067
O           -3.75568638935321        2.07705011038914        5.52067969627343
O           -2.94192434743730        1.91263938797883        3.01658762327703
C            0.21273512614467        5.50086066357994        2.34765104514621
C           -6.06660304520411       -2.17604633098929        5.80641622556876
H            1.41756699010566        4.38133362238595        4.66974005703471
H           -1.82880610647429        4.11982501512100        2.06992133318584
H            3.26888037378556        0.32655662585251        6.31721410015598
H            0.87146188387207       -3.08471526305024        6.57830423410869
H           -3.67716811065157       -3.05999292755990        5.83019634570050
H           -5.77379677507622        0.43595144608221        4.71017130754348
O            1.34459852619901        5.82615848916894        2.44941456579099
O           -0.74718748219123        6.07961784856304        1.59848183464284
C           -0.21473095568964        7.24015934882472        1.05753806029483
C            3.53228080814219       -2.00967610361154        7.02506769044485
O            3.64093082622715       -3.14437803815732        7.50071391725347
O            4.56565258381079       -1.22937033368332        6.69086985080897
C            5.72579357310716       -1.80692399125161        7.22246151275881
O           -7.04801223588612       -1.95726935745904        5.14194115322235
O           -6.01514389321278       -2.93743591896022        6.94765316328794
C           -7.21292732384718       -3.62681918543340        7.15115816329978
C           -4.95459780685163        2.65960679932188        5.86868674392943
C           -3.68284113682406        2.59129188358641        2.05479246020704
H           -7.43119628931628       -4.22607794725959        6.20622607140901
H           -8.06548455146707       -2.91765848248592        7.29781126410398
H           -7.07314693247270       -4.33087306029711        7.91223421050944
H            6.57332189837178       -1.29353136199234        6.78341268688262
H            5.74663761932316       -2.84282155125561        6.88089468184451
H            5.69426191474290       -1.72781984964892        8.29460302186842
H           -4.10481209541493        3.44288266176275        2.60483747673152
H           -4.49244774344916        1.87419893016926        1.82433103764650
H           -3.18901540870812        2.85154642679373        1.06781919454921
H           -5.55414326821421        2.76698137191684        4.93950725322359
H           -4.78658370641210        3.62090640967288        6.25983200635257
H           -5.43485580473958        1.97242995129449        6.65265772412460
H            0.89164886030839        7.38838561720231        1.13776105146914
H           -0.62894889903848        8.04195665205089        1.64837664327952
H           -0.59282546386754        7.45699159724320        0.03719083132488
116
 energy: -22.693588741568 gnorm: 0.463360547715 xtb: 6.6.1 (8d0f1dd)
C           -3.02484631090398       -0.25022082574259       -1.83481629050371
C           -1.81641441380268       -0.89744555337321       -1.32094304674724
C           -1.10692542309309       -0.06619910315542       -0.35473344781861
C           -1.07527838840335        1.35720424353714       -0.40293189525028
C           -1.96141155080728        1.84086647750548       -1.42432045645262
C           -2.99624279617863        1.11699162578863       -1.93813354442139
C           -0.41641692987950       -0.58915115253909        0.82509069638962
C            0.63751183151944        0.12692522820536        1.36957149446269
C            0.90248698671383        1.43089493083593        0.91023745004397
N           -0.08839480331609        2.14743827703017        0.13329369469669
C           -0.81670042251472       -1.75855053526331        1.60407866502704
C            0.16946633613697       -2.12258234767356        2.60395268866348
N            1.42683570802491       -1.65172606997609        2.84442872475926
C            1.46965643135463       -0.41485714090205        2.41161462764450
C            2.63097066668692        0.37681965062015        2.84207266781429
C            2.91729704097575        1.54157252268953        2.09406991038632
C            1.95520886867557        2.21691859960515        1.39447378316002
C           -2.09052533240436       -2.37566999471538        1.57970388348849
C           -2.21285934040443       -3.55468123604003        2.41335887904440
C           -1.31596353511081       -3.84554470536429        3.43923324031562
C           -0.19885553908128       -3.04166084768062        3.47899466359366
O           -3.14650955687989       -1.99423687622399        0.73348665162961
O           -1.76250534397959       -2.30491345036951       -1.85059766131796
C           -4.27000837388356        1.84953939066071       -2.04157182082676
C           -1.57170443619211       -4.85055787925131        4.56477668157575
H           -2.15909186512530        2.89130749323150       -1.60115353536514
H           -3.69997945563751       -0.79765742717502       -2.38036857287339
H            2.19339929284590        3.15452319462440        0.93215473335678
H            3.24227475133774        0.12615983257788        3.68193136077875
H            0.46108669824883       -3.07977024446443        4.32058531531221
H           -3.07382760498194       -4.19770308711858        2.18722759308432
O           -5.15035848697844        1.54301018516560       -2.87087470026732
O           -4.46482188772556        2.92179150897966       -1.18813895234257
C           -5.64369888658336        3.56399289253899       -1.51648424922144
C            4.02465515113939        2.26470033081865        2.73873694900480
O            5.08797517942839        1.73791594157875        2.65157147861533
O            3.70487802170235        3.43471337430601        3.34118142854605
C            4.75225859447929        4.31782610280874        3.68609631579372
O           -2.70208776683535       -5.46038748926982        4.63757254846210
O           -0.72570762142036       -5.02642673412111        5.69058698519501
C           -1.26577304102666       -6.13821330199133        6.44179458222586
C           -4.35016444810286       -1.66047723349671        1.38607404249668
C           -0.74161823468232       -3.23138339596371       -1.55725950410938
H           -2.14030055727216       -6.53967252898291        6.04381624855384
H           -1.56530079201761       -5.86703339891060        7.43687390973559
H           -0.66164264724912       -7.09121842703311        6.50632965814400
H            5.78709420803411        3.87652116290553        3.49676645239076
H            4.81204760453768        4.40321767395607        4.75080411998332
H            4.51380059728914        5.24773643661195        2.93097906807830
H            0.09607680111890       -2.57426292112609       -1.17389592482453
H           -0.36496951698182       -3.83398711291169       -2.34426593806642
H           -1.10852544279110       -3.90511797683412       -0.76510558434109
H           -4.60163850103042       -0.58872091503152        1.18217319998368
H           -4.12540285247813       -2.05689427759470        2.38040481298068
H           -5.10018715904153       -2.39958801502195        0.89097890304623
H           -6.38385823185993        3.10376676276897       -2.17725289297569
H           -5.42474440238207        4.59967190298377       -1.84528778579318
H           -6.19283307653278        3.51170509057412       -0.69242508964324
C           -1.47225693039735        3.87285492424921        3.54253839379657
C           -1.78643787095905        2.60696954623894        4.01807024581088
C           -0.88907158486391        2.02143608093927        5.02929033222124
C            0.45273894770657        2.47462104760597        5.00558734482840
C            0.82356224808159        3.69087376239067        4.29745094399603
C           -0.23329957775983        4.36929492919819        3.72320075589238
C           -1.13372740918178        0.91531390957415        5.82795492911306
C           -0.09391674395459       -0.14318474241647        5.86658313775396
C            1.18393542550035        0.33607610111920        5.63932473978907
N            1.47518011764884        1.60094642656707        5.45934210275612
C           -2.48756163507958        0.50570605135732        6.15663755776525
C           -2.74514434381021       -0.84914181818113        6.52247244306723
N           -1.75161847495393       -1.69430510099774        6.76276057112000
C           -0.55875347488522       -1.44051873084878        6.29918400033225
C            0.48047344687464       -2.27926578674914        6.63885737369385
C            1.77124608783727       -1.85835768125019        6.45824306629311
C            2.10905315583081       -0.65530652075937        5.91945439753999
C           -3.51816422011527        1.58781653162420        6.04012079854672
C           -4.82711129454794        1.09530793189871        5.77566029976903
C           -5.13661346351487       -0.31601880302353        5.86346587886474
C           -4.11748300743673       -1.22310940902589        6.31018456113548
O           -3.35103792199605        2.96658177255483        6.30918776897415
O           -2.99109425790321        1.96252113111641        3.53410287901897
C           -0.02514146693162        5.78738389981980        3.29699333371925
C           -6.58510739680059       -0.85514414530714        5.86968135240040
H            1.75623984000046        4.09632348846052        4.13908823811498
H           -1.94682951305889        4.42030511561642        2.72580554662976
H            3.27028663962082       -0.51608513572469        5.84516031220042
H            0.26337509427674       -3.21846696062008        7.05834866141314
H           -4.39379338260386       -2.29259821810975        6.18088124083286
H           -5.66926750420583        1.76804934388989        5.58828113499526
O            1.14064436870818        6.18118579946932        3.25366704192669
O           -1.12081128437373        6.52405534488764        2.90423483817684
C           -0.80072913746959        7.86164222819021        2.62553912960143
C            2.73478351038409       -2.75037381401079        6.91935146941510
O            2.22081281932911       -3.55348105958815        7.69252773098754
O            3.99294102625770       -2.90130173665826        6.35670804220163
C            4.40886385538673       -4.16748648452348        6.91862831652461
O           -7.27595328180152        0.01215156972477        6.31766419386136
O           -7.03340906898862       -2.14234557896464        5.57171354823833
C           -8.17692105468406       -2.38488305532659        6.48660743731694
C           -4.41884896935925        3.47708746919435        7.08803264573838
C           -2.93313415172729        1.89889048791080        2.19964646818415
H           -7.89708294977079       -2.47366593375665        7.54155022404431
H           -8.80124366452275       -3.24569047410862        6.25945311953359
H           -8.77418713487755       -1.48324780816599        6.29070664541369
H            3.58655304905588       -4.95410162950071        6.69398481554382
H            4.13933987904733       -4.10087343238878        8.12261952646926
H            5.54507515633410       -4.34645247182446        6.77405453456940
H           -3.46238684585779        1.04275634721199        1.96057200006800
H           -1.86603163750260        1.58329314672023        1.91643943512447
H           -3.21000565406834        2.83300215546402        1.68655618345386
H           -4.03705765293961        3.97179581995713        7.96520226740236
H           -4.89716825621247        2.61574982043103        7.60014064465126
H           -5.01027812181519        4.10071577920307        6.41596082213520
H           -0.10192015164411        8.03354747115834        3.39202179642410
H           -1.64491457139307        8.50355598154410        2.95193633878036
H           -0.60538744514211        7.89484125245143        1.57248417782558
116
 energy: -22.698557138348 gnorm: 0.505347462134 xtb: 6.6.1 (8d0f1dd)
C           -3.65628818329057        0.05781526163395       -0.95936828230587
C           -2.67270941051770       -0.59233247823359       -0.08197723524265
C           -1.74266754655379        0.24462310121434        0.57003789267222
C           -1.57791083778280        1.59890156930144        0.05267444533761
C           -2.56263568274442        2.17065752107226       -0.84339070558428
C           -3.50624310399862        1.36515305934646       -1.42227655741899
C           -0.58699581590190       -0.25675584696545        1.40720438700812
C            0.61313735113858        0.36612732017849        1.13747420462156
C            0.57509565989545        1.76220377941526        0.85836998064080
N           -0.52664821478760        2.33345191450379        0.26529532827377
C           -0.62155477557988       -1.34397907261683        2.33464203458380
C            0.64474165815733       -1.85635558331999        2.64254055872052
N            1.84411534580182       -1.30445569948868        2.47762295554837
C            1.79655498197349       -0.09477543595935        1.81604163930943
C            2.91497885602409        0.67983954078405        1.84277852599898
C            2.87392084731562        2.02960971701312        1.41378549622521
C            1.77340285012934        2.52220799670958        0.87871020866103
C           -1.82032515112199       -2.13011315884296        2.66824481776594
C           -1.77026360561995       -3.44125903025572        3.04196623233501
C           -0.55496886354652       -3.91884353831018        3.53339073662497
C            0.56740882033841       -3.21850673010332        3.22545072369758
O           -2.95584314430646       -1.34432848821838        2.98782160577518
O           -2.95011892522262       -1.97990155681786        0.29357523879535
C           -4.53058566934537        1.88782173852811       -2.47437533046271
C           -0.38401781338340       -5.34439738111221        4.02674186165006
H           -2.40884289234688        3.27285367284651       -1.09196550716124
H           -4.47180206333867       -0.41513312350943       -1.35524763258106
H            1.60019050366520        3.52704283116551        0.42956455981089
H            3.75556724371239        0.15758211663215        2.31826195617227
H            1.48665442452060       -3.67457949945483        3.49363098448726
H           -2.64437160498170       -4.08386147412449        3.14077423612337
O           -5.73315435434482        2.12414146484198       -2.33947357172971
O           -3.74280912585723        2.37763585091834       -3.54414698829550
C           -3.90937765063901        1.51388979591019       -4.74994565592286
C            4.08919629410228        2.89743907949293        1.40387101380520
O            4.28902004120618        3.44162712832253        0.34792695605747
O            4.70215908902190        3.22785801652632        2.60510036026212
C            5.73925391140781        4.04993526862377        2.66062997906431
O           -1.29632820169612       -5.92225895006342        4.50614506731647
O            0.90263447297216       -5.82512311074473        3.74874071158189
C            1.28116257161737       -6.87358314854549        4.64899382578501
C           -4.13852746063042       -2.06327335441970        2.95132109760780
C           -2.00371293669235       -2.87999798156852       -0.30035147697750
H            2.42232015116740       -6.68237541492118        4.63655495533730
H            1.10253400314206       -7.94383292434175        4.49143191653713
H            0.97845110944926       -6.64663906341683        5.63022644622408
H            5.89501526614008        4.47407480951237        1.50510606087393
H            6.65855158611739        3.63359407301848        3.07371009174203
H            5.37480098637884        4.96154994251688        2.99959269699001
H           -1.49637965603176       -3.51063901993538        0.37855093235757
H           -1.28439282595776       -2.18958774802096       -0.95353406478298
H           -2.63236360513755       -3.40773278889478       -0.98998097916973
H           -4.85092438279452       -1.63497616956580        3.80056697669773
H           -3.92085408770795       -3.08748324035241        3.19285706979236
H           -4.55979258422678       -2.11957810151846        2.02793529704272
H           -3.07500081569423        1.67099923742855       -5.47833278657808
H           -4.79198442204058        1.88494295614793       -5.37207867572900
H           -4.16751441457187        0.47294854035226       -4.51962798758869
C           -1.18452204468354        4.23511139720934        3.86770632275942
C           -1.69885231558415        2.93956924098553        4.13525022689885
C           -1.02377065816850        2.06640402537758        5.08280948188807
C            0.34851440957462        2.37935383655445        5.28907812002384
C            0.86228385583902        3.64731563023035        4.98934117720069
C            0.10395492586828        4.62480637607586        4.28537156370005
C           -1.68233665947283        0.90370448232631        5.78712468186768
C           -0.74540238239895       -0.19924863431762        6.05321523410632
C            0.66536644225188        0.14388574610139        6.00368490612617
N            1.21636398009145        1.33485158867813        5.70250913049175
C           -3.04136040335364        0.55056049505159        5.99082088041339
C           -3.46180721635549       -0.82253934437446        6.23098036586786
N           -2.52638549875954       -1.83337999426984        6.36950832937754
C           -1.19509204138606       -1.58889922481104        6.26462636120317
C           -0.27495322746461       -2.62054683411770        6.67174937148931
C            1.05493624276827       -2.19223649507584        6.63011359535173
C            1.45950346817965       -0.89999842129974        6.28708417417407
C           -4.03469428847924        1.65648230550120        6.08966926816647
C           -5.35254029343711        1.22046834658408        6.21148282437719
C           -5.68481238790103       -0.12913088339806        6.37059742278318
C           -4.79562501723396       -1.09790934801272        6.44007355624167
O           -3.53054577321610        3.00861854251404        6.36330260640374
O           -2.86123891117494        2.65449215443134        3.32021862717017
C            0.69790481390505        5.95461486093418        3.85533080961532
C           -7.14200911137095       -0.69231972196024        6.39997260068488
H            1.83768953808180        3.85385444584673        5.29042034701348
H           -1.92650856449235        4.85310069815022        3.44528190706375
H            2.55878262835773       -0.73072843628700        6.27687825968038
H           -0.49121566431079       -3.45442381491972        7.34396418010593
H           -5.02303257814989       -2.11359738153405        6.63547376975260
H           -6.18971411315425        1.87986575697495        6.02074405117577
O            1.86279690530471        6.19897067965837        4.20494669193576
O           -0.13747668866834        6.71883518395847        2.99847124987143
C            0.22721713472929        8.11652260208711        2.64249872102445
C            1.97013855337475       -3.40033868119591        6.87473520518846
O            1.55303494545743       -4.61212481066494        6.85822799612204
O            3.21466019584210       -3.17012983569204        7.20480514179769
C            3.81974200437692       -4.33947644674308        7.59560102803386
O           -7.93032347885536        0.01098153024420        6.98872645213070
O           -7.33269375146166       -1.81569429339381        5.73160362758176
C           -8.77939443732808       -2.16741448775301        5.81194388484300
C           -4.56214802975163        3.74909471223524        6.97453835346156
C           -3.12025158832663        1.32222281568855        2.82409249817416
H           -8.84520195091042       -3.16706568975936        5.62620768791064
H           -9.37879753711348       -1.64665964840216        5.14395672315566
H           -9.02734507668999       -1.92147087883099        6.74351509149037
H            4.49274500172851       -4.24441497384348        8.51080825690634
H            4.24907445131540       -4.69595544979171        6.64799375635669
H            2.96701903004988       -5.04938762453358        7.97069531415526
H           -4.11854931512960        1.30107218765758        2.20094796847367
H           -3.08687321066588        0.81931944089512        3.79556002757900
H           -2.25862191915826        0.96684762682151        2.36986366711001
H           -5.21893153360082        2.89529276519179        7.30277275625449
H           -4.91657061636552        4.23142151282668        6.02252254949128
H           -4.56130560387150        4.40319149465648        7.89777918657718
H            0.41168212585025        8.06001465497179        1.66219772410857
H            1.23129036569607        8.35037704694204        3.15299532446886
H           -0.69949009931863        8.62212359321334        2.96114934143661
116
 energy: -22.707295787957 gnorm: 0.497298574489 xtb: 6.6.1 (8d0f1dd)
C           -2.75534029746108       -0.70537328506749       -1.65388244478671
C           -1.86248938456508       -1.03797274567819       -0.67797851306874
C           -1.24008616377175       -0.09754676922441        0.18234368538418
C           -1.43378864120791        1.30023608404004       -0.04722800666127
C           -2.35509127917855        1.62079302738045       -0.97067588375330
C           -3.00459072332519        0.72407547175154       -1.78296850410163
C           -0.40918629759858       -0.35295863789227        1.19636191337888
C            0.59068510986515        0.57270190948095        1.55903604154362
C            0.44598492170466        1.93226670609861        1.18475017239521
N           -0.66214842036156        2.31814644317623        0.40628198141028
C           -0.37499444686892       -1.57240806954244        2.00312042425155
C            0.54863696976554       -1.81946097597479        3.01539498531102
N            1.52733527508122       -0.96084949622174        3.22030069175809
C            1.70651239303983        0.15803315201221        2.39686020045101
C            2.80550481431599        0.99098660861071        2.45005410846095
C            2.65928375904284        2.31075279233275        1.86486972666201
C            1.52786986832818        2.63542610871015        1.20649965757701
C           -1.48087704171992       -2.42869630477114        1.92994981031440
C           -1.55655443794112       -3.64420305928132        2.64238571108571
C           -0.40307909963823       -4.09929194836848        3.29779477038651
C            0.58594306754583       -3.16811109957320        3.56809821210499
O           -2.79450001265610       -2.06725077510786        1.45580936633297
O           -1.21526824207983       -2.28802972040136       -0.61308875717970
C           -4.02382307248190        1.10751694675953       -2.81336625183997
C           -0.27566393886901       -5.57766113153460        3.34034992340585
H           -2.26033926582593        2.65166216173149       -1.38868228243615
H           -3.03512654820628       -1.26076253014492       -2.56423053032589
H            1.52821315917310        3.52275827076821        0.61772673253438
H            3.74663896887339        0.49533550525343        2.80266028179431
H            1.45861566900567       -3.47372176426983        4.11906019083898
H           -2.46337224831447       -4.21601613710024        2.52415268166585
O           -3.88620533629117        0.69067417291352       -3.95535529732491