156
 energy: -222.795593374192 gnorm: 0.112353961956 xtb: 6.7.1 (edcfbbe)
C           -2.44180000000000        2.75020000000000        1.22290000000000
C           -2.48550000000000        1.36010000000000        1.19170000000000
C           -1.30030000000000        0.63390000000000        1.54240000000000
C           -0.08320000000000        1.35200000000000        1.60780000000000
C           -0.09460000000000        2.74650000000000        1.59820000000000
C           -1.26750000000000        3.46320000000000        1.46230000000000
C           -1.28580000000000       -0.80340000000000        1.73970000000000
C           -0.07070000000000       -1.49950000000000        1.47260000000000
C            1.15700000000000       -0.79350000000000        1.37230000000000
C            1.19230000000000        0.64110000000000        1.63950000000000
C           -2.41940000000000       -1.56660000000000        2.21740000000000
C           -2.44570000000000       -2.96950000000000        2.02660000000000
C           -1.25980000000000       -3.69020000000000        1.56860000000000
C           -0.04690000000000       -2.91290000000000        1.34960000000000
C            1.14980000000000       -3.55430000000000        1.06240000000000
C            2.34840000000000       -2.86390000000000        0.92660000000000
C            2.32950000000000       -1.48480000000000        1.10160000000000
C           -3.45010000000000       -0.98800000000000        3.03110000000000
C           -4.56670000000000       -1.75970000000000        3.33880000000000
C           -4.66240000000000       -3.11000000000000        3.00560000000000
C           -3.57830000000000       -3.69910000000000        2.38650000000000
O           -3.23390000000000        0.28150000000000        3.59050000000000
O           -3.61160000000000        0.64300000000000        0.76590000000000
O            2.25060000000000        1.22600000000000        1.86830000000000
O           -1.26560000000000       -4.91550000000000        1.44640000000000
C           -4.33900000000000        0.83800000000000        4.26790000000000
C           -4.75660000000000        1.42290000000000        0.50470000000000
C           -5.89270000000000       -3.91930000000000        3.44720000000000
C           -5.88860000000000       -5.34070000000000        2.84800000000000
C           -5.89180000000000       -4.03380000000000        4.98310000000000
C           -7.17790000000000       -3.20810000000000        2.97930000000000
C           -1.30350000000000        5.00060000000000        1.49380000000000
C           -2.34850000000000        5.47090000000000        2.52560000000000
C            0.06210000000000        5.59890000000000        1.88910000000000
C           -1.68310000000000        5.52850000000000        0.09770000000000
C            3.64420000000000       -3.63920000000000        0.63830000000000
C            4.85430000000000       -2.69570000000000        0.48770000000000
C            3.48490000000000       -4.43380000000000       -0.67210000000000
C            3.92680000000000       -4.60920000000000        1.80100000000000
H            4.84380000000000       -5.17540000000000        1.62520000000000
H            3.11280000000000       -5.32450000000000        1.92840000000000
H            4.04330000000000       -4.06440000000000        2.73980000000000
H            5.76260000000000       -3.26020000000000        0.26590000000000
H            5.03360000000000       -2.13490000000000        1.40690000000000
H            4.70030000000000       -1.98550000000000       -0.32690000000000
H            4.40020000000000       -4.97800000000000       -0.91510000000000
H            3.26000000000000       -3.76450000000000       -1.50470000000000
H            2.67560000000000       -5.16190000000000       -0.60030000000000
H           -8.06540000000000       -3.78600000000000        3.24660000000000
H           -7.17440000000000       -3.07950000000000        1.89530000000000
H           -7.27930000000000       -2.22140000000000        3.43340000000000
H           -6.74880000000000       -4.61240000000000        5.33460000000000
H           -5.93730000000000       -3.04950000000000        5.45230000000000
H           -4.98400000000000       -4.52830000000000        5.33460000000000
H           -6.79910000000000       -5.87980000000000        3.11890000000000
H           -5.04460000000000       -5.92630000000000        3.21660000000000
H           -5.83560000000000       -5.30620000000000        1.75820000000000
H           -4.09810000000000        1.86210000000000        4.55290000000000
H           -4.55820000000000        0.26790000000000        5.17070000000000
H           -5.20940000000000        0.85570000000000        3.61270000000000
H           -5.58170000000000        0.76070000000000        0.24280000000000
H           -4.57220000000000        2.09710000000000       -0.33170000000000
H           -5.03570000000000        1.98960000000000        1.39260000000000
H           -1.70560000000000        6.62040000000000        0.08300000000000
H           -2.66810000000000        5.17060000000000       -0.20700000000000
H           -0.96080000000000        5.19610000000000       -0.65050000000000
H            0.38250000000000        5.23780000000000        2.86810000000000
H            0.00860000000000        6.68860000000000        1.94200000000000
H            0.83220000000000        5.34590000000000        1.15820000000000
H           -2.37630000000000        6.56110000000000        2.58610000000000
H           -2.11340000000000        5.08580000000000        3.51960000000000
H           -3.35110000000000        5.12950000000000        2.26400000000000
H            1.13680000000000       -4.62540000000000        0.96700000000000
H            3.23930000000000       -0.91600000000000        1.04170000000000
H            0.84780000000000        3.25520000000000        1.68770000000000
H           -3.33860000000000        3.30470000000000        1.02140000000000
H           -5.35960000000000       -1.32200000000000        3.91490000000000
H           -3.57620000000000       -4.75420000000000        2.18170000000000
C            1.43110000000000        0.11480000000000        5.59230000000000
C            1.47860000000000       -1.13660000000000        6.21080000000000
C            1.36060000000000       -1.18320000000000        7.64010000000000
C            1.58860000000000        0.00230000000000        8.37560000000000
C            1.57020000000000        1.21820000000000        7.70780000000000
C            1.41090000000000        1.29080000000000        6.32320000000000
C            1.06760000000000       -2.40770000000000        8.33220000000000
C            1.52300000000000       -2.55620000000000        9.67640000000000
C            1.93250000000000       -1.42420000000000       10.41550000000000
C            1.85470000000000       -0.08230000000000        9.81780000000000
C            0.31800000000000       -3.47740000000000        7.73500000000000
C            0.44780000000000       -4.79230000000000        8.23510000000000
C            1.13020000000000       -5.01880000000000        9.51650000000000
C            1.56680000000000       -3.83550000000000       10.27240000000000
C            2.04190000000000       -3.95440000000000       11.56690000000000
C            2.45860000000000       -2.85280000000000       12.30460000000000
C            2.38390000000000       -1.59680000000000       11.71270000000000
C           -0.63680000000000       -3.23340000000000        6.69230000000000
C           -1.13300000000000       -4.32930000000000        5.98250000000000
C           -0.84220000000000       -5.63100000000000        6.35170000000000
C           -0.11010000000000       -5.84110000000000        7.51920000000000
O           -1.05570000000000       -1.93070000000000        6.49210000000000
O            1.67120000000000       -2.33310000000000        5.54530000000000
O            2.03970000000000        0.92210000000000       10.48910000000000
O            1.29480000000000       -6.14720000000000        9.95660000000000
C           -1.91020000000000       -1.74330000000000        5.39680000000000
C            1.70000000000000       -2.23260000000000        4.14780000000000
C           -1.36720000000000       -6.82330000000000        5.53960000000000
C           -0.21120000000000       -7.79970000000000        5.25530000000000
C           -2.46680000000000       -7.53370000000000        6.34610000000000
C           -1.95740000000000       -6.37520000000000        4.18530000000000
C            1.16540000000000        2.61130000000000        5.58020000000000
C           -0.21970000000000        2.53970000000000        4.90580000000000
C            1.18130000000000        3.81550000000000        6.53890000000000
C            2.25560000000000        2.82130000000000        4.51370000000000
C            2.98140000000000       -3.05500000000000       13.73470000000000
C            3.43160000000000       -1.72590000000000       14.37100000000000
C            4.18820000000000       -4.01100000000000       13.70470000000000
C            1.86320000000000       -3.65830000000000       14.60340000000000
H            2.20070000000000       -3.80250000000000       15.62970000000000
H            1.54240000000000       -4.62530000000000       14.21850000000000
H            0.99440000000000       -3.00100000000000       14.62260000000000
H            3.80990000000000       -1.88840000000000       15.38030000000000
H            2.60220000000000       -1.02270000000000       14.43970000000000
H            4.22960000000000       -1.26440000000000       13.78990000000000
H            4.59760000000000       -4.15490000000000       14.70450000000000
H            4.97900000000000       -3.61160000000000       13.07020000000000
H            3.90950000000000       -4.98910000000000       13.31540000000000
H           -2.27090000000000       -7.23490000000000        3.59480000000000
H           -1.22940000000000       -5.82030000000000        3.59260000000000
H           -2.83350000000000       -5.74540000000000        4.32810000000000
H           -2.86760000000000       -8.38450000000000        5.79580000000000
H           -3.28900000000000       -6.85070000000000        6.55770000000000
H           -2.08140000000000       -7.89870000000000        7.29730000000000
H           -0.55020000000000       -8.63820000000000        4.64750000000000
H            0.20430000000000       -8.20490000000000        6.17660000000000
H            0.59100000000000       -7.29570000000000        4.71720000000000
H           -2.08700000000000       -0.67310000000000        5.27700000000000
H           -2.86130000000000       -2.24750000000000        5.57280000000000
H           -1.43430000000000       -2.12170000000000        4.49210000000000
H            1.78590000000000       -3.23710000000000        3.73180000000000
H            2.55800000000000       -1.63650000000000        3.83360000000000
H            0.77030000000000       -1.78450000000000        3.79830000000000
H            2.12120000000000        3.77320000000000        4.00230000000000
H            2.23220000000000        2.03970000000000        3.75680000000000
H            3.24550000000000        2.81820000000000        4.96780000000000
H            0.41300000000000        3.71570000000000        7.30480000000000
H            0.99010000000000        4.74170000000000        5.99750000000000
H            2.14910000000000        3.91220000000000        7.02990000000000
H           -0.44010000000000        3.45700000000000        4.36340000000000
H           -1.00350000000000        2.38800000000000        5.64660000000000
H           -0.27570000000000        1.71460000000000        4.19740000000000
H            2.08040000000000       -4.93710000000000       11.99940000000000
H            2.68270000000000       -0.71860000000000       12.25340000000000
H            1.66780000000000        2.11170000000000        8.29560000000000
H            1.40130000000000        0.16810000000000        4.52050000000000
H           -1.76980000000000       -4.14880000000000        5.13920000000000
H            0.03570000000000       -6.83830000000000        7.89150000000000
156
 energy: -222.812440356227 gnorm: 0.046238664309 xtb: 6.7.1 (edcfbbe)
C           -2.43569088955994        2.75006842001877        1.22011960208861
C           -2.47774877072020        1.36822317104380        1.21201536071550
C           -1.30782913719990        0.62639983741799        1.54393631126004
C           -0.09206483116158        1.34489889598785        1.59708083138547
C           -0.09052923152882        2.74222052463862        1.58300703044714
C           -1.25672647553148        3.46460355069898        1.45820093919970
C           -1.29740362524779       -0.79801842527792        1.73516027138257
C           -0.09037777438938       -1.48824038051485        1.47040864892821
C            1.14039820453483       -0.79070563458055        1.35580284157755
C            1.18928776248932        0.64151908728361        1.62611451026352
C           -2.42090532956446       -1.55564159197349        2.20683080448587
C           -2.44659351804700       -2.95803772075775        2.02146819498179
C           -1.26802202742274       -3.68668174860980        1.54934224975969
C           -0.05493505106825       -2.90197562615508        1.35069529025732
C            1.14425661088327       -3.54608393009111        1.06440951706731
C            2.34641767582548       -2.86026991460197        0.92308258643912
C            2.31823570511346       -1.48139169190829        1.09273681935903
C           -3.46750909207277       -0.99298017770390        2.99740901531790
C           -4.56355758345006       -1.76459608946862        3.33649375385183
C           -4.65890925348806       -3.11988881354969        3.00313385824970
C           -3.57376921709873       -3.70009742819012        2.38510539655726
O           -3.27085496546760        0.28107923074355        3.52052946957443
O           -3.59970079072870        0.65855258401161        0.79872051267087
O            2.26024765370229        1.23031317392575        1.82590859884956
O           -1.27723337368176       -4.91666125222441        1.40610113211038
C           -4.34039344529783        0.83542558185709        4.24675144951176
C           -4.74666383017061        1.41875855843367        0.51425645571016
C           -5.88897296712594       -3.91908131783604        3.44078758284922
C           -5.89091303646098       -5.33608977245064        2.84946680615063
C           -5.89024290275401       -4.03169562558022        4.97445509498443
C           -7.17326812862559       -3.21022677725481        2.97890610713145
C           -1.29970255567832        4.99495476270976        1.49502455395859
C           -2.34359962792134        5.46686036838391        2.52157458401821
C            0.05660190388102        5.59818326392504        1.88645026037294
C           -1.68150278816716        5.52523597576850        0.10295748133255
C            3.63878145241514       -3.63243580748643        0.63780258951414
C            4.84942110171048       -2.69960191012527        0.48701189451517
C            3.48244278742450       -4.42926081767523       -0.66793558629245
C            3.92197392788596       -4.60281790420535        1.79610463280953
H            4.83887480647145       -5.16576773824471        1.61407280807233
H            3.10857182355587       -5.31455112171196        1.92216859191608
H            4.03758740190236       -4.05656993118276        2.73086939845704
H            5.74883586527350       -3.27653175830940        0.26659713148062
H            5.02770350630233       -2.14353058247578        1.40560654709063
H            4.69623338617064       -1.99172873837456       -0.32656480322632
H            4.40000514428307       -4.97102841675100       -0.90344519502305
H            3.25873628717280       -3.75862164440290       -1.49712228195967
H            2.67384450098338       -5.15337326638474       -0.59257777514454
H           -8.05542593263638       -3.79225626560538        3.25011186809985
H           -7.16533374462471       -3.08345812703858        1.89698021383384
H           -7.27193161477005       -2.22635451841047        3.43346351396160
H           -6.74733930705955       -4.61084761333711        5.32142000742280
H           -5.93406450218267       -3.04915078541084        5.44182301391364
H           -4.98314441142514       -4.52488325617161        5.32094905948899
H           -6.80559295840507       -5.86211637691108        3.12731086778917
H           -5.04976504823265       -5.91734109247652        3.22115204648201
H           -5.83551262382599       -5.29966342028014        1.76251351835672
H           -4.05965874683022        1.85340087078646        4.52288723347650
H           -4.54295922866353        0.27139699776518        5.16402431406426
H           -5.24149261575279        0.86779797332135        3.62645399915981
H           -5.54864067410203        0.72603796397368        0.25273067882105
H           -4.57584774314332        2.09284524568211       -0.33255009506821
H           -5.05343176118666        2.00000462369212        1.38917501500979
H           -1.70294995158894        6.61620732405640        0.09404404233189
H           -2.66400171366390        5.16590790967550       -0.19954819231368
H           -0.95840555224906        5.19091511290814       -0.64008040495109
H            0.37373213524319        5.23279858792657        2.86134092702071
H           -0.01163557040890        6.68611143543491        1.93845029986101
H            0.82300316139878        5.34673279395438        1.15568095257286
H           -2.36630307830270        6.55648497328908        2.57782091639474
H           -2.10455061309348        5.07866782831909        3.51033896067890
H           -3.34338058163651        5.12520114828992        2.25985342015968
H            1.12056532951160       -4.62155779161258        0.96866997285642
H            3.22586055930055       -0.90186636200635        1.04341473136705
H            0.86105399458833        3.23596134472566        1.68027171222490
H           -3.33517704253845        3.30854219367196        1.01686263075642
H           -5.35812154695201       -1.32664435371530        3.91810788128322
H           -3.55175852721347       -4.75685285352948        2.18067624901515
C            1.42749217126680        0.11397982050568        5.60660910100207
C            1.46232527640495       -1.12191517207670        6.22864054343978
C            1.35240141026000       -1.18701468021473        7.64550118392989
C            1.58629715081923       -0.00443177772466        8.37732846550566
C            1.57221316240285        1.22271962188648        7.71272511742764
C            1.40056729353263        1.29954853628215        6.34027792685250
C            1.06807036785573       -2.40894225167441        8.32769264240289
C            1.51677554371258       -2.55560244524833        9.65385791784091
C            1.93756205959298       -1.42447843625730       10.39748151505376
C            1.85080838233066       -0.07649899500483        9.81798401270996
C            0.32958598728099       -3.47690801126908        7.73652869911388
C            0.45077061130492       -4.79028592656454        8.23838694113461
C            1.13353534138083       -5.02832772999497        9.51519577246292
C            1.55338562499186       -3.83527152816773       10.26333568880354
C            2.03449125699522       -3.95210574484966       11.56068187058922
C            2.45767012730671       -2.84993758594202       12.29977560217224
C            2.38507776367636       -1.59592788300782       11.70064548422168
C           -0.61364447414216       -3.25204402400288        6.69611591909421
C           -1.12711012327207       -4.32975560152415        5.99588450790315
C           -0.83635366350936       -5.64158439782938        6.36090950382128
C           -0.11455053878028       -5.84854664276177        7.52619365083645
O           -1.02680298498319       -1.95647535011646        6.49605674182254
O            1.65148766184209       -2.31252076391842        5.56639554667224
O            2.04010134944061        0.93769734975365       10.50204916895027
O            1.29870632696478       -6.16933065445210        9.96662444496453
C           -1.89112631980688       -1.74777797509439        5.41278972015345
C            1.69598799181025       -2.23235684102782        4.16698750275539
C           -1.36282944676836       -6.82234593121936        5.54339301823932
C           -0.21361691019280       -7.79992903596449        5.25788207637796
C           -2.46171431035080       -7.53449495687714        6.34653117541148
C           -1.95691801270511       -6.38505894541059        4.19631750924894
C            1.16857905804551        2.61153662205214        5.59171251549140
C           -0.21259913114378        2.53888721825474        4.91836006234356
C            1.18063853033266        3.81773900862852        6.53902647590675
C            2.25449396085785        2.82550228500818        4.52716599522929
C            2.97864582912462       -3.05059213678394       13.72677250163389
C            3.43009909504742       -1.73206525808048       14.37154030992641
C            4.18246095940215       -4.00673242553745       13.70389763480516
C            1.86655622336144       -3.65545191179502       14.59867925735039
H            2.20900028765107       -3.79866751271801       15.62491461640709
H            1.54716987282986       -4.61964808243986       14.20943293486381
H            1.00021343800527       -2.99608943553326       14.61469730895872
H            3.80619983324241       -1.90840119654719       15.38043638791833
H            2.60078616931135       -1.03082113177276       14.43988098002345
H            4.22710102910031       -1.27228641439511       13.79032604467181
H            4.58785201320473       -4.14793164994567       14.70719990322252
H            4.97006469563623       -3.60438354313448       13.06886863355750
H            3.90117717707617       -4.98134208197796       13.31182638054016
H           -2.26406292358448       -7.25253256846127        3.61268896683062
H           -1.23240950713997       -5.83235096900533        3.60305607832420
H           -2.83353287826723       -5.75683854386386        4.33844855291124
H           -2.86070853177348       -8.38424931460949        5.79110357211679
H           -3.28077250363246       -6.84742215618755        6.55577847484445
H           -2.07453902947806       -7.89536676950418        7.29734178079987
H           -0.55983040588471       -8.63469741229553        4.64749663440658
H            0.20243341556056       -8.20112067155756        6.17918802378387
H            0.58254762003948       -7.28891593173010        4.72018480529269
H           -2.04408056369848       -0.67342835640176        5.32165997781868
H           -2.85616423543293       -2.24193978697891        5.57232119431685
H           -1.44554565177908       -2.11571315166185        4.48648992970841
H            1.78448714654430       -3.24568318421948        3.77544556781761
H            2.55383945667966       -1.64078760248591        3.83187474154417
H            0.77620395080693       -1.78841560857457        3.78238337965150
H            2.11605568416316        3.78079504948800        4.02108250309189
H            2.23370089457506        2.05078182935463        3.76644451628464
H            3.24253939501280        2.82078121769289        4.98464993621281
H            0.41205387454734        3.71610255799277        7.30292153927687
H            0.98866638188680        4.73691397315567        5.98412720666997
H            2.14867823709659        3.91355669648747        7.02728661385749
H           -0.42766147521516        3.45679966530036        4.37272585031792
H           -0.99339598517033        2.38812493743673        5.66263746390995
H           -0.26633719925704        1.71606708022854        4.21073893079736
H            2.07566658452821       -4.94237522997540       11.99012621783672
H            2.67738484651573       -0.70883165882916       12.23883800718100
H            1.68182604227084        2.11208723750672        8.31016073060211
H            1.41015203344364        0.16847795205087        4.53044040848067
H           -1.76874098943371       -4.14513590351506        5.15264744136922
H            0.03333382042521       -6.84634671210859        7.90811281109915
156
 energy: -222.819107940068 gnorm: 0.016060052052 xtb: 6.7.1 (edcfbbe)
C           -2.42926663613639        2.75585892107739        1.21954614393727
C           -2.46976607071014        1.38133284702718        1.22238345536215
C           -1.31174994479347        0.62493682123684        1.54261673689909
C           -0.09719344511525        1.34244933639429        1.58398935306022
C           -0.08509576470708        2.74233207104206        1.57122525846952
C           -1.24489964383595        3.47050096098071        1.45647426703820
C           -1.30940318094184       -0.79164428331323        1.72612721668185
C           -0.10794154057080       -1.47790134717485        1.46282156063271
C            1.12591493494272       -0.78764742662874        1.33913560469883
C            1.18764911517058        0.64604902825013        1.59189413397637
C           -2.42605963693727       -1.54920653856164        2.19026285907792
C           -2.44973753673886       -2.95050383115425        2.00970550598489
C           -1.27764828251324       -3.68175332400831        1.52439299666761
C           -0.06442049093606       -2.89172361098922        1.34403620100875
C            1.13543833328565       -3.53715468699252        1.06155408990554
C            2.34155813255415       -2.85689256972044        0.91984291873781
C            2.30653662553932       -1.47879824539437        1.08523288821349
C           -3.48238713284855       -1.00310930790102        2.97259384276061
C           -4.56594030363855       -1.77225296660808        3.32624433056105
C           -4.65822899124723       -3.13294850098839        2.99564590183047
C           -3.57086231304009       -3.70431019536226        2.37968693425403
O           -3.30418063093749        0.27598220829695        3.45951970569236
O           -3.58889010032906        0.67529495058830        0.82623887034562
O            2.26570298260110        1.23691218424924        1.76661687483497
O           -1.29573593308335       -4.90977457050401        1.34164325338848
C           -4.33679316442253        0.83644322001336        4.22494944590163
C           -4.74106652473673        1.40828848859213        0.52292190654148
C           -5.88517177845967       -3.92180095887486        3.43596461731691
C           -5.89304764009685       -5.33566794776811        2.84963731544833
C           -5.88584161063754       -4.03042625911647        4.96850711256563
C           -7.16627088839274       -3.21101135864976        2.97478281714005
C           -1.29456516343815        4.99300162711192        1.49315220646945
C           -2.33770587110150        5.45918348844619        2.51963869242069
C            0.05512733085072        5.59867891509495        1.88412672070157
C           -1.67898393879651        5.52176795943891        0.10268694310261
C            3.62936761554958       -3.62627410108073        0.63725549182024
C            4.84062805968976       -2.70036415326463        0.48706861992642
C            3.47389403536461       -4.42339618310400       -0.66628516617239
C            3.91157002494992       -4.59551686533402        1.79418896109259
H            4.82824807699900       -5.15529008246605        1.60522194487443
H            3.09843583129452       -5.30502785692501        1.91868119948855
H            4.02886124494818       -4.04792381879663        2.72615829264804
H            5.73161518654387       -3.28944815562561        0.26766476519821
H            5.02144175083038       -2.14752570041901        1.40496234059249
H            4.69216501929661       -1.99395723420261       -0.32663782944529
H            4.39358603348889       -4.96348601951722       -0.89352931293140
H            3.25384959064549       -3.75233445752183       -1.49452523188327
H            2.66557488007859       -5.14468088639800       -0.58837755274034
H           -8.04364542072716       -3.79648123759751        3.25003957415253
H           -7.15769060720388       -3.08633174325450        1.89391280429622
H           -7.26378095436337       -2.22912299278432        3.43001335464298
H           -6.74380795843891       -4.60907378195517        5.31139965237813
H           -5.92922612893823       -3.04777008406219        5.43219420343274
H           -4.97896902140154       -4.52311853010194        5.31138727796810
H           -6.81187386670813       -5.84995653116182        3.13214865104008
H           -5.05497764470153       -5.91566485632642        3.22394732390122
H           -5.83629686382864       -5.29962212140258        1.76436073046020
H           -4.01384311019920        1.84756507829628        4.48473083889351
H           -4.51737319969350        0.27955003994323        5.15508010930368
H           -5.27312959845843        0.88661212257150        3.64860900898532
H           -5.51561556388412        0.68154913205019        0.26567393941875
H           -4.58542419731867        2.07840292612659       -0.33500002330307
H           -5.07787266166202        2.00485568570082        1.38155250534042
H           -1.70042298018506        6.61183042457483        0.10013142568351
H           -2.66027067082075        5.16092224855272       -0.19636979047340
H           -0.95488406477353        5.18696360302739       -0.63697311108407
H            0.37135649202722        5.23002330127999        2.85604303536810
H           -0.02561350232978        6.68477154439573        1.93734933059774
H            0.81931107260906        5.35111586180198        1.15251782164149