116
 energy: -22.928061455056 gnorm: 0.329736929581 xtb: 6.6.1 (8d0f1dd)
C           -3.31122850772930        0.79849766164622       -0.92477639677520
C           -2.44380812530352       -0.12270372891954       -0.27661132624697
C           -1.41337090092821        0.39579727573559        0.56335275196199
C           -0.89266158675590        1.65801491088749        0.27377586709581
C           -1.72665675402493        2.51431363229076       -0.49448366572522
C           -2.95444148494349        2.13954154133227       -1.01494489940871
C           -0.74098268209890       -0.43411532818871        1.49825021926784
C            0.56872586496315        0.03782116815119        1.86248088067890
C            1.03782416582094        1.29402317993033        1.50887470833621
N            0.31238977034758        2.07067427098208        0.65193736800696
C           -1.29695700510141       -1.39996043042223        2.41574187746061
C           -0.38243517664656       -2.18060797534842        3.13232615520648
N            0.91308504082021       -1.90366887689689        3.30325166013478
C            1.37712470144904       -0.74872102533751        2.81811050966982
C            2.52149331701875       -0.17739833758153        3.39379298866852
C            2.95849061756259        1.02681208890480        2.95105897606587
C            2.24288949469137        1.78498308775960        2.03503020483770
C           -2.74860936222260       -1.74497937691422        2.38401158947411
C           -3.09416315450955       -2.91614440870436        3.00571134491758
C           -2.16786021984049       -3.77788778654213        3.63251872101904
C           -0.85708937311598       -3.40495313382985        3.68547234358092
O           -3.71994433332149       -0.94984598373544        1.67726658385724
O           -2.55702603277562       -1.47241711578389       -0.57241635275616
C           -3.84297843593025        3.13357444054366       -1.60938954875544
C           -2.68769581069131       -5.03867041417370        4.30484659386931
H           -1.39666850744143        3.51251503834900       -0.76806311868865
H           -4.27662633836220        0.55105838579656       -1.33106614114542
H            2.66329581305412        2.73912661909249        1.72562431984580
H            3.05775395548473       -0.69369546277216        4.16536137542516
H           -0.24710966264510       -4.12034095424229        4.22946223699121
H           -4.11477991332403       -3.04712728052358        3.03244694615357
O           -4.21824883374556        4.03433712717988       -0.87713382485991
O           -4.44510595673734        2.90643496899600       -2.81853501752979
C           -5.44216520282800        3.83300025693726       -3.02488532025093
C            4.23586651889298        1.50004220933226        3.59165660008449
O            5.05927614697201        0.66079890002952        3.91714215179376
O            4.47001334453535        2.86385149488593        3.72605651435371
C            5.79457498613219        3.08584475587818        4.15829123132174
O           -3.82227255313510       -5.27347675879771        4.16636005494405
O           -1.85023202017753       -5.79767454267276        5.06656077253571
C           -2.55119635829503       -6.86252441382958        5.62930343183426
C           -5.07197156564436       -1.42399175670916        1.58830531863830
C           -1.33089900128490       -2.23622472573986       -0.99264499351172
H           -2.54510546830388       -7.76426885143998        4.99136022291012
H           -3.57194749219491       -6.44405511486021        5.74196173723541
H           -2.09133598235598       -7.02043774843818        6.64022264233588
H            5.72707967266424        3.46798026205549        5.10135971236643
H            6.34060091246885        3.78468702308830        3.50069950143490
H            6.17933064298187        2.03010500085905        4.19342358084693
H           -0.91862729772622       -2.57650129080332       -0.01361370304871
H           -0.49769766914251       -1.60651221708571       -1.34094446550576
H           -1.52632419730509       -2.94569707152159       -1.75361447637286
H           -5.11788846557077       -2.41810833635233        1.17520213188926
H           -5.67929807973498       -0.69619639428435        1.04301666067831
H           -5.57598832326623       -1.42383358739762        2.57928294206544
H           -6.13050215934830        3.76035386975488       -2.23272855695873
H           -5.86615610071888        3.45938329385866       -4.02668959924245
H           -5.13479557532099        4.87790991548477       -2.98314551356402
C           -1.38192942069774        3.73616555005018        2.91232598411686
C           -1.84821468128685        2.59982427735607        3.49755545445181
C           -1.05946531454833        2.05730632010638        4.60922730982276
C            0.19893954712228        2.69376791964407        4.86302140881997
C            0.50425395911860        3.94630308659851        4.28768785650746
C           -0.26031777722226        4.46998310053134        3.25072669343212
C           -1.20488993561782        0.74454293276906        5.14851520323437
C           -0.06287609782692        0.02744069315890        5.60930570802864
C            1.19208754369866        0.71421540266195        5.78882868583885
N            1.19428660993148        2.06344359410476        5.62744624321596
C           -2.41361422770794        0.07928500213936        5.25249410304426
C           -2.45851584031083       -1.32662100968547        5.60237876023992
N           -1.29466212405906       -1.98318595734370        5.89916817085159
C           -0.14475655767527       -1.32117560077092        5.98824682881008
C            0.97209270935794       -1.98958449505532        6.53157704134458
C            2.21982707914082       -1.36973967291181        6.68703967237737
C            2.30561929262884       -0.09745313075593        6.26436900324455
C           -3.73018485967715        0.71367583494582        5.25810242262992
C           -4.89964478833448       -0.06184623426677        5.21204641615509
C           -4.82617965800088       -1.39228978090841        5.46901303780036
C           -3.67144193418464       -1.98914944386360        5.67265433266067
O           -3.75568638935321        2.07705011038914        5.52067969627343
O           -2.94192434743730        1.91263938797883        3.01658762327703
C            0.21273512614467        5.50086066357994        2.34765104514621
C           -6.06660304520411       -2.17604633098929        5.80641622556876
H            1.41756699010566        4.38133362238595        4.66974005703471
H           -1.82880610647429        4.11982501512100        2.06992133318584
H            3.26888037378556        0.32655662585251        6.31721410015598
H            0.87146188387207       -3.08471526305024        6.57830423410869
H           -3.67716811065157       -3.05999292755990        5.83019634570050
H           -5.77379677507622        0.43595144608221        4.71017130754348
O            1.34459852619901        5.82615848916894        2.44941456579099
O           -0.74718748219123        6.07961784856304        1.59848183464284
C           -0.21473095568964        7.24015934882472        1.05753806029483
C            3.53228080814219       -2.00967610361154        7.02506769044485
O            3.64093082622715       -3.14437803815732        7.50071391725347
O            4.56565258381079       -1.22937033368332        6.69086985080897
C            5.72579357310716       -1.80692399125161        7.22246151275881
O           -7.04801223588612       -1.95726935745904        5.14194115322235
O           -6.01514389321278       -2.93743591896022        6.94765316328794
C           -7.21292732384718       -3.62681918543340        7.15115816329978
C           -4.95459780685163        2.65960679932188        5.86868674392943
C           -3.68284113682406        2.59129188358641        2.05479246020704
H           -7.43119628931628       -4.22607794725959        6.20622607140901
H           -8.06548455146707       -2.91765848248592        7.29781126410398
H           -7.07314693247270       -4.33087306029711        7.91223421050944
H            6.57332189837178       -1.29353136199234        6.78341268688262
H            5.74663761932316       -2.84282155125561        6.88089468184451
H            5.69426191474290       -1.72781984964892        8.29460302186842
H           -4.10481209541493        3.44288266176275        2.60483747673152
H           -4.49244774344916        1.87419893016926        1.82433103764650
H           -3.18901540870812        2.85154642679373        1.06781919454921
H           -5.55414326821421        2.76698137191684        4.93950725322359
H           -4.78658370641210        3.62090640967288        6.25983200635257
H           -5.43485580473958        1.97242995129449        6.65265772412460
H            0.89164886030839        7.38838561720231        1.13776105146914
H           -0.62894889903848        8.04195665205089        1.64837664327952
H           -0.59282546386754        7.45699159724320        0.03719083132488
116
 energy: -22.691539837571 gnorm: 0.516135817901 xtb: 6.6.1 (8d0f1dd)
C           -2.56439120946334        0.57090252709666       -0.89744658857128
C           -1.58639195499068       -0.38054998887188       -0.29012085751733
C           -0.80057946393157        0.25761139431436        0.72936889116656
C           -0.46788469893173        1.66400842337022        0.73210005491213
C           -1.57779965763305        2.44996373525953        0.20035987922673
C           -2.56428859476123        1.94960586678792       -0.59234606007104
C           -0.05259711508364       -0.59171910826759        1.59741330328399
C            1.16367789271213        0.00887550985541        1.93721500814884
C            1.40718033381526        1.43219735197175        1.80710895267885
N            0.66500924421609        2.29304637800760        1.11619953612195
C           -0.41983522455558       -1.80475069940037        2.22300760150443
C            0.64640165653667       -2.49476036696132        3.03000805625762
N            1.90753420994447       -2.08851986463644        3.25322406864009
C            1.98670417952635       -0.78708166537995        2.83683208900981
C            3.18444537434285       -0.12536827384463        3.25948536882259
C            3.53912159204800        1.15738843934321        2.90329236309224
C            2.62525129444001        2.03741609422201        2.33982243615867
C           -1.73639806431705       -2.26862968469209        2.19383156356125
C           -2.09726561308077       -3.41485914210269        2.90458516374418
C           -1.05843452382487       -4.05204511646142        3.66444576470248
C            0.21839616752149       -3.55400553823908        3.79635502476033
O           -2.74394304194795       -1.46730423678769        1.48486087091733
O           -1.60103115847143       -1.67337916938483       -0.77346703749649
C           -3.85880877183359        2.70181800708091       -0.87309899670817
C           -1.35626984697714       -5.28824067402401        4.40539399507015
H           -1.59880066918414        3.50466096035519        0.22717991020843
H           -3.39983900101226        0.20610965791567       -1.40269490781198
H            2.99477208193487        3.05899492465086        2.12815084867333
H            3.86635392225626       -0.64238980029979        3.95640265245353
H            1.05366347857090       -4.13977228714728        4.21159811043414
H           -2.82986086624878       -4.06962686890553        2.60124893710039
O           -4.01266492012959        3.68277254450680       -0.15001576148909
O           -4.85174949658826        2.29974842577342       -1.81630593218007
C           -5.84505753760472        3.29794196547962       -2.12912978166457
C            4.94447787360257        1.54609828473942        3.54975464538369
O            5.57327537917261        0.68457153396352        4.21554612582877
O            5.38997679370251        2.65427329035254        2.86050800037227
C            6.74312322982608        2.73947915371357        2.94259084713324
O           -2.29619317287323       -5.21787619882304        5.23736474500522
O           -0.66974617071313       -6.47059913768127        4.25571731156694
C           -0.90329288319811       -7.43711033635299        5.09240515495441
C           -3.84915576824276       -1.06366074700555        2.20842167233802
C           -1.95598373266399       -1.75179748285515       -2.08812501061868
H           -1.90017082355639       -7.67736124590165        5.25864656479297
H           -0.41229181068392       -7.33952293819941        6.17656117355003
H           -0.39317501140460       -8.29701613837741        4.77863829331930
H            7.09354813638978        3.54436120053975        3.53354141202907
H            7.38668390402098        2.77736288301044        1.93728356724016
H            7.07669827666449        1.88148563583723        3.48835152630071
H           -2.43626145215352       -2.72533937579127       -2.15898623116142
H           -1.02959131572749       -1.98451869654072       -2.58305654661436
H           -2.54279810326123       -0.87017414480797       -2.52111931758135
H           -4.48073982094125       -1.98329613628895        2.38657038740409
H           -4.56400152245911       -0.41513445390220        1.63376716119288
H           -3.66124387976800       -0.68064009044424        3.12862745593811
H           -5.78520082782777        3.97527316380854       -1.36322267549470
H           -6.55514740459574        2.52079155973577       -2.48088117994624
H           -5.66827924799613        3.71409596274834       -3.04121203782204
C           -2.30280309357234        3.74376381214122        3.09191660335384
C           -2.57107516317657        2.50048264699742        3.74746932305272
C           -1.55206053935348        1.97717300821485        4.55782736633444
C           -0.32880347599002        2.52774299418016        4.60570707736798
C           -0.06265331775013        3.77969403366487        4.10037678209860
C           -1.05823743738680        4.43281635156932        3.35355434281902
C           -1.82598227267102        0.80618323144383        5.31252030607041
C           -0.74555203866867       -0.04051603199219        5.54504329566830
C            0.54493749804412        0.47451385349529        5.32263195943015
N            0.82660153141993        1.78787630905482        4.92139343473055
C           -3.15124094587215        0.45857388002098        5.77539395744335
C           -3.38644937187686       -0.88420972002878        6.23901631366401
N           -2.33333950637864       -1.67329979280184        6.54461569288916
C           -1.02700499311433       -1.16759149362889        6.28202026550169
C            0.11296720998999       -1.89499780261591        6.73714146510426
C            1.42219804593126       -1.56232999321539        6.53410516209101
C            1.60708821398087       -0.28173012586224        5.93691735584702
C           -4.10967801630705        1.41250989662144        6.06046041355808
C           -5.41399940969153        0.86943913143009        6.17524737771220
C           -5.72599796487322       -0.44996577003515        5.84975099647919
C           -4.70603003052243       -1.39517459466726        6.20816323941724
O           -4.17383319532209        2.77884524108328        5.97937403455535
O           -3.59613705356916        1.67947929448755        3.32250484866334
C           -0.62016291761146        5.41305687540985        2.34969327338270
C           -7.07327402195093       -0.82528189920443        5.48368435509506
H            0.94540710909917        4.24603225428108        3.96738601420676
H           -2.82142026894701        4.05485075564845        2.21120433538258
H            2.57730827069628       -0.07611347118430        5.71137584701223
H           -0.15883609981716       -2.78085312094559        7.29838056199100
H           -4.93449412746935       -2.53784018700368        6.13140326396568
H           -6.19610726357546        1.59224701300117        6.51553626842597
O            0.04333384267614        6.35150268209348        2.78411293264442
O           -0.96190111041702        5.06726493224555        1.10795094430043
C           -0.59570505256281        6.07118636280278        0.31883227867020
C            2.68883194815136       -2.23503004367176        6.89994167025873
O            2.82275175429391       -3.44590081234308        6.69640665822268
O            3.64013553508593       -1.30499459755415        7.22787083025634
C            4.91428551139968       -1.77152816872318        6.89079379663649
O           -8.12925956427792       -0.35276735163496        5.79067361359217
O           -7.08040439421719       -1.99481531979860        4.74326006234870
C           -8.46313120840015       -2.36291409422944        4.60198808234872
C           -3.22367918493276        3.44560989766070        6.82030500420389
C           -4.93121729917412        2.21068547697605        2.95777698186169
H           -8.73189206527786       -2.97675803968079        5.44212144884722
H           -8.60881422094270       -3.05307404986239        3.62757055283901
H           -8.95505589523941       -1.52908482392535        4.31882534233887
H            5.76484378484762       -1.10480118358618        6.94450293918375
H            5.20523452164080       -2.36199212228639        6.04827265877304
H            5.12727116835715       -2.64045790734176        7.69522186138661
H           -5.58055935599026        2.67639915672838        3.68649699582732
H           -5.57787420173394        1.40650755036828        2.59340276797848
H           -4.81147485976970        2.63416537668393        1.91204970139835
H           -2.26216561723375        3.66682074207620        6.13185523390065
H           -2.94759127687780        2.84604852051746        7.71295189057005
H           -3.75744207678705        4.29481282326554        7.20299171188105
H           -0.99421429619509        5.91466759647720       -0.68455755589474
H            0.53727009704944        5.84628477020006        0.33678336036520
H           -1.14449853704345        6.96955825948362        0.49838441708479
116
 energy: -22.720830341638 gnorm: 0.454600079013 xtb: 6.6.1 (8d0f1dd)
C           -2.48254028914539        0.15296173892934       -0.42573307895594
C           -1.36008613015602       -0.58179910993309       -0.17167905221220
C           -0.16955057428897       -0.03621241288200        0.39376963806437
C           -0.12776223180982        1.40959311048276        0.37005481334831
C           -1.07040173977150        2.13362621101950       -0.32305386236052
C           -2.24431420063990        1.53323271653868       -0.67200139380926
C            0.64617565565758       -0.75209204305882        1.42741989179113
C            1.87656402914491       -0.10556972463839        1.63325953032503
C            1.88362232157349        1.31706606445714        1.45414948974828
N            0.76944589914087        2.04498309313720        1.12774627624306
C            0.48354976707320       -2.05689285533024        1.96691317598535
C            1.61674332360704       -2.72809626110490        2.59146039716045
N            2.84258271273562       -2.25104559712232        2.30114242857841
C            2.97102385898039       -0.96758977113493        1.94489949233176
C            4.08286498742813       -0.21838495578865        2.42648964729925
C            4.12167166611959        1.17288909994304        2.25734064661438
C            3.03650820822586        1.94324531654171        1.80622840353358
C           -0.84813403118559       -2.46757435179118        2.49635870431102
C           -0.95390194331830       -3.61112416103845        3.30569035119039
C            0.12724407933868       -4.46034475009578        3.37743917957538
C            1.39598050140106       -3.96735039624837        3.00640463382638
O           -1.85993087489589       -1.52250568121624        2.53362932332518
O           -1.38029019691454       -2.01336040511712       -0.25405089101627
C           -3.44597950118013        2.28018683680461       -1.29740542833102
C           -0.15360532851026       -5.86012263640507        3.79387570960418
H           -0.96747821555173        3.18600762072788       -0.19186161744333
H           -3.40416280945530       -0.17009693849653       -0.78853348621923
H            3.21433521873955        2.95929923049278        1.76921769399712
H            4.99161669916108       -0.55921275082019        2.95422895324771
H            2.23356786700051       -4.59397745868549        3.34199106474447
H           -1.83850184410509       -3.65314609678522        3.82584598977671
O           -3.10601953018187        3.34405070004086       -1.89274160099285
O           -4.69170858539579        1.75761315504982       -1.10080916473602
C           -5.42775384624038        2.55527797490266       -2.07887608391066
C            5.43830512041178        1.72798203384910        2.74992149972396
O            6.17827083434001        1.10393608786197        3.49638702073044
O            5.64442899642901        3.05380327747552        2.44594672228072
C            6.91949970636832        3.59776418865172        2.85714146069011
O           -1.07514817170950       -6.42310976997272        3.21935832079565
O            0.34988655968221       -6.32724337973752        5.02927219087617
C           -0.39671565417898       -7.46673378796446        5.42002826591392
C           -3.17182680512632       -2.00047822852309        2.73635944648968
C           -2.63256167427087       -2.60919989998966       -0.28585473790062
H           -1.52560798019905       -7.12221980557212        5.54467545394873
H            0.26684342105960       -7.98553174142289        6.02175095670242
H           -0.48394391614303       -8.20577078369801        4.50295066328808
H            7.68330644125217        2.86316861150417        2.84578292052015
H            6.79157073013242        4.03635693946252        3.82314903588641
H            7.17869565693620        4.19972819262297        1.93007731471453
H           -2.71793968204107       -3.67242316820969       -0.41497416394609
H           -3.22947671323669       -2.13267135947350       -1.12653840494306
H           -3.06936018851976       -2.35208805599040        0.64823198427468
H           -3.35014583894178       -1.92724012189437        3.77490087396398
H           -3.34688257679128       -3.02114382566465        2.21189384106159
H           -3.97086938159518       -1.37627594462013        2.47235874656258
H           -6.48811678637155        2.28372452586280       -2.30812170716897
H           -5.01434536115747        2.37855966936754       -3.01273917180557
H           -5.24349173270737        3.60626325015347       -1.86645799907707
C           -2.43870441750855        4.21310260956394        3.05307831234213
C           -2.83303979103017        2.94495829583198        3.48566588851222
C           -2.06436434659658        2.13821894129731        4.47816505186741
C           -0.72545788692658        2.51258881649620        4.45758028128058
C           -0.35946371390524        3.82438910382548        3.98058445145441
C           -1.09876386978829        4.71764095523482        3.29859548170478
C           -2.48610846998441        1.04966349780434        5.32612543291174
C           -1.46073173335809        0.24746430832169        5.80555054820770
C           -0.09169286869240        0.47296316914971        5.31886147054251
N            0.30707002399736        1.66305593107524        4.67744935679996
C           -3.77005816036473        0.67284357647447        5.85187354474456
C           -3.81317241485998       -0.51615352189651        6.64766912258431
N           -2.77932891720218       -1.06894482309287        7.34549207126141
C           -1.63718324574807       -0.78574792232261        6.70361135704801
C           -0.48183809428702       -1.53522439183526        7.07615967340098
C            0.69689092387000       -1.57181045278625        6.33203243559010
C            0.95080901945669       -0.53727820722468        5.48033888441909
C           -4.90440776002840        1.57380296095836        5.88628923152440
C           -6.06705888425349        0.90327815085800        6.03743579675655
C           -6.20835365364462       -0.48901631440297        6.35126231354050
C           -5.08079769919221       -1.16689979223214        6.82693360161253
O           -4.62153536311079        3.01622949541372        5.80545670143715
O           -4.13381615415800        2.51634056129002        3.25494344121203
C           -0.51248505099280        5.98915191239703        2.74875901351006
C           -7.53688675347459       -1.11680213274878        5.96143487272026
H            0.70887803208559        4.02065743524338        4.20696898994938
H           -2.91856736849202        4.95960571705973        2.49388068861481
H            1.89218663642194       -0.50539710214452        4.85680626185293
H           -0.79616504334728       -2.24200440032201        7.76233215235102
H           -4.91897512585584       -2.27543351973516        7.11836085393374
H           -7.05403373964155        1.38362314826660        5.97362563618204
O            0.70726349299571        6.09950011540457        2.91616682985813
O           -1.33412215498793        6.85119112015846        2.03876863082504
C           -0.62728889144026        7.86610473545558        1.44190353471684
C            1.68185371004935       -2.65762113899347        6.62002365283274
O            1.29176831446259       -3.53782210505300        7.41131832840261
O            2.93677805654795       -2.41939531373112        6.01248744643909
C            3.83396194650084       -3.36363198149508        6.54403758485485
O           -7.69421954038454       -2.29660504793468        5.73149237036304
O           -8.55233218263214       -0.17917867229238        5.63827204655853
C           -9.86537518338781       -0.65192376995610        5.57401728529382
C           -5.00541206957965        3.65907290203061        7.02577243975505
C           -4.71150223464112        2.83938536218838        1.99442145146526
H          -10.18613154592843       -0.63846185908483        6.55588266356036
H           -9.95301629332508       -1.74537127850533        5.06767595100135
H          -10.43621599581344       -0.09863255103513        4.81031794132444
H            4.75929848972433       -3.32216727660019        5.94864415943338
H            3.39142055465979       -4.47892877106408        6.75240440294826
H            4.20591010119440       -3.05239260895286        7.54917778602535
H           -4.68413308967530        2.02262694605128        1.28168699478059
H           -4.06146599853880        3.72371225110771        1.64380039586805
H           -5.78663274120194        2.90637282813641        2.05957479966979
H           -4.75334949851130        4.78657713635355        6.92255455068435
H           -4.52956302335300        3.14337937987592        7.85008585274170
H           -6.06051014640095        3.50535799197938        7.09821746162914
H            0.23196798297639        7.98276704182285        2.32397200574647
H           -1.29636078031445        8.58642617897061        0.97694750064661
H           -0.01815377397850        7.44488609354790        0.57672830215121
116
 energy: -22.733081403394 gnorm: 0.441611546575 xtb: 6.6.1 (8d0f1dd)
C           -1.99070582276886        0.31509783079039       -0.98781901608823
C           -1.20979315170013       -0.44361398613561       -0.10271794254273
C           -0.72340053292300        0.15439295411254        1.12782413740274
C           -0.59314845876387        1.53917908970073        1.02989894327694
C           -1.63990196745362        2.23487819899365        0.30958536479469
C           -2.32203529453563        1.59175684142683       -0.72343257930888
C            0.19919858534974       -0.47427868065733        2.04681872648462
C            1.50797201877127        0.23913013712889        2.03927035609193
C            1.64060750054622        1.55973015946118        1.75637238666722
N            0.51879559819149        2.26140601702408        1.39416396777545
C            0.19631259709959       -1.84408393331496        2.52372746244466
C            1.50826785413210       -2.47061212321900        2.98082304992625
N            2.69881893473275       -1.81171648448236        2.74520263792732
C            2.67467929375771       -0.47698483273455        2.58579412096687
C            3.94191283170198        0.25487742533332        2.53317604225195
C            3.96948036181574        1.61891860018717        2.35742647947222
C            2.81521027386616        2.30459245988127        1.93618988794397
C           -0.82950627129170       -2.77690174420282        2.39091848984798
C           -0.67283956898500       -3.96112856897782        2.92985133501631
C            0.48910550600286       -4.50359730756630        3.55489767579962
C            1.61502249910663       -3.71610003102149        3.52318974841728
O           -2.02447889760792       -2.39904191011179        1.81359943071620
O           -0.93356170815043       -1.84038346870696       -0.31713206318597
C           -3.35242366016455        2.35899089215488       -1.51565929388072
C            0.35094409686150       -5.93196917454870        4.07501058488678
H           -1.61616956363142        3.36012704985972        0.25169325224634
H           -2.44196461550144       -0.12475490207661       -1.78889553697575
H            2.74545309924176        3.38488745586818        1.82580542867566
H            4.85493606171464       -0.22287958201094        2.17654643045239
H            2.57508340959532       -4.01663158549641        3.88278434245803
H           -1.42735379312227       -4.61591986739232        2.85981829806756
O           -4.01161604663900        3.30603489910020       -1.13685405077588