116
 energy: -22.928061455056 gnorm: 0.329736929581 xtb: 6.6.1 (8d0f1dd)
C           -3.31122850772930        0.79849766164622       -0.92477639677520
C           -2.44380812530352       -0.12270372891954       -0.27661132624697
C           -1.41337090092821        0.39579727573559        0.56335275196199
C           -0.89266158675590        1.65801491088749        0.27377586709581
C           -1.72665675402493        2.51431363229076       -0.49448366572522
C           -2.95444148494349        2.13954154133227       -1.01494489940871
C           -0.74098268209890       -0.43411532818871        1.49825021926784
C            0.56872586496315        0.03782116815119        1.86248088067890
C            1.03782416582094        1.29402317993033        1.50887470833621
N            0.31238977034758        2.07067427098208        0.65193736800696
C           -1.29695700510141       -1.39996043042223        2.41574187746061
C           -0.38243517664656       -2.18060797534842        3.13232615520648
N            0.91308504082021       -1.90366887689689        3.30325166013478
C            1.37712470144904       -0.74872102533751        2.81811050966982
C            2.52149331701875       -0.17739833758153        3.39379298866852
C            2.95849061756259        1.02681208890480        2.95105897606587
C            2.24288949469137        1.78498308775960        2.03503020483770
C           -2.74860936222260       -1.74497937691422        2.38401158947411
C           -3.09416315450955       -2.91614440870436        3.00571134491758
C           -2.16786021984049       -3.77788778654213        3.63251872101904
C           -0.85708937311598       -3.40495313382985        3.68547234358092
O           -3.71994433332149       -0.94984598373544        1.67726658385724
O           -2.55702603277562       -1.47241711578389       -0.57241635275616
C           -3.84297843593025        3.13357444054366       -1.60938954875544
C           -2.68769581069131       -5.03867041417370        4.30484659386931
H           -1.39666850744143        3.51251503834900       -0.76806311868865
H           -4.27662633836220        0.55105838579656       -1.33106614114542
H            2.66329581305412        2.73912661909249        1.72562431984580
H            3.05775395548473       -0.69369546277216        4.16536137542516
H           -0.24710966264510       -4.12034095424229        4.22946223699121
H           -4.11477991332403       -3.04712728052358        3.03244694615357
O           -4.21824883374556        4.03433712717988       -0.87713382485991
O           -4.44510595673734        2.90643496899600       -2.81853501752979
C           -5.44216520282800        3.83300025693726       -3.02488532025093
C            4.23586651889298        1.50004220933226        3.59165660008449
O            5.05927614697201        0.66079890002952        3.91714215179376
O            4.47001334453535        2.86385149488593        3.72605651435371
C            5.79457498613219        3.08584475587818        4.15829123132174
O           -3.82227255313510       -5.27347675879771        4.16636005494405
O           -1.85023202017753       -5.79767454267276        5.06656077253571
C           -2.55119635829503       -6.86252441382958        5.62930343183426
C           -5.07197156564436       -1.42399175670916        1.58830531863830
C           -1.33089900128490       -2.23622472573986       -0.99264499351172
H           -2.54510546830388       -7.76426885143998        4.99136022291012
H           -3.57194749219491       -6.44405511486021        5.74196173723541
H           -2.09133598235598       -7.02043774843818        6.64022264233588
H            5.72707967266424        3.46798026205549        5.10135971236643
H            6.34060091246885        3.78468702308830        3.50069950143490
H            6.17933064298187        2.03010500085905        4.19342358084693
H           -0.91862729772622       -2.57650129080332       -0.01361370304871
H           -0.49769766914251       -1.60651221708571       -1.34094446550576
H           -1.52632419730509       -2.94569707152159       -1.75361447637286
H           -5.11788846557077       -2.41810833635233        1.17520213188926
H           -5.67929807973498       -0.69619639428435        1.04301666067831
H           -5.57598832326623       -1.42383358739762        2.57928294206544
H           -6.13050215934830        3.76035386975488       -2.23272855695873
H           -5.86615610071888        3.45938329385866       -4.02668959924245
H           -5.13479557532099        4.87790991548477       -2.98314551356402
C           -1.38192942069774        3.73616555005018        2.91232598411686
C           -1.84821468128685        2.59982427735607        3.49755545445181
C           -1.05946531454833        2.05730632010638        4.60922730982276
C            0.19893954712228        2.69376791964407        4.86302140881997
C            0.50425395911860        3.94630308659851        4.28768785650746
C           -0.26031777722226        4.46998310053134        3.25072669343212
C           -1.20488993561782        0.74454293276906        5.14851520323437
C           -0.06287609782692        0.02744069315890        5.60930570802864
C            1.19208754369866        0.71421540266195        5.78882868583885
N            1.19428660993148        2.06344359410476        5.62744624321596
C           -2.41361422770794        0.07928500213936        5.25249410304426
C           -2.45851584031083       -1.32662100968547        5.60237876023992
N           -1.29466212405906       -1.98318595734370        5.89916817085159
C           -0.14475655767527       -1.32117560077092        5.98824682881008
C            0.97209270935794       -1.98958449505532        6.53157704134458
C            2.21982707914082       -1.36973967291181        6.68703967237737
C            2.30561929262884       -0.09745313075593        6.26436900324455
C           -3.73018485967715        0.71367583494582        5.25810242262992
C           -4.89964478833448       -0.06184623426677        5.21204641615509
C           -4.82617965800088       -1.39228978090841        5.46901303780036
C           -3.67144193418464       -1.98914944386360        5.67265433266067
O           -3.75568638935321        2.07705011038914        5.52067969627343
O           -2.94192434743730        1.91263938797883        3.01658762327703
C            0.21273512614467        5.50086066357994        2.34765104514621
C           -6.06660304520411       -2.17604633098929        5.80641622556876
H            1.41756699010566        4.38133362238595        4.66974005703471
H           -1.82880610647429        4.11982501512100        2.06992133318584
H            3.26888037378556        0.32655662585251        6.31721410015598
H            0.87146188387207       -3.08471526305024        6.57830423410869
H           -3.67716811065157       -3.05999292755990        5.83019634570050
H           -5.77379677507622        0.43595144608221        4.71017130754348
O            1.34459852619901        5.82615848916894        2.44941456579099
O           -0.74718748219123        6.07961784856304        1.59848183464284
C           -0.21473095568964        7.24015934882472        1.05753806029483
C            3.53228080814219       -2.00967610361154        7.02506769044485
O            3.64093082622715       -3.14437803815732        7.50071391725347
O            4.56565258381079       -1.22937033368332        6.69086985080897
C            5.72579357310716       -1.80692399125161        7.22246151275881
O           -7.04801223588612       -1.95726935745904        5.14194115322235
O           -6.01514389321278       -2.93743591896022        6.94765316328794
C           -7.21292732384718       -3.62681918543340        7.15115816329978
C           -4.95459780685163        2.65960679932188        5.86868674392943
C           -3.68284113682406        2.59129188358641        2.05479246020704
H           -7.43119628931628       -4.22607794725959        6.20622607140901
H           -8.06548455146707       -2.91765848248592        7.29781126410398
H           -7.07314693247270       -4.33087306029711        7.91223421050944
H            6.57332189837178       -1.29353136199234        6.78341268688262
H            5.74663761932316       -2.84282155125561        6.88089468184451
H            5.69426191474290       -1.72781984964892        8.29460302186842
H           -4.10481209541493        3.44288266176275        2.60483747673152
H           -4.49244774344916        1.87419893016926        1.82433103764650
H           -3.18901540870812        2.85154642679373        1.06781919454921
H           -5.55414326821421        2.76698137191684        4.93950725322359
H           -4.78658370641210        3.62090640967288        6.25983200635257
H           -5.43485580473958        1.97242995129449        6.65265772412460
H            0.89164886030839        7.38838561720231        1.13776105146914
H           -0.62894889903848        8.04195665205089        1.64837664327952
H           -0.59282546386754        7.45699159724320        0.03719083132488
116
 energy: -22.676212640707 gnorm: 0.525966678119 xtb: 6.6.1 (8d0f1dd)
C           -2.88907608452316        0.40961646762250       -1.75628133665792
C           -2.23145868241370       -0.45989223813639       -0.86087515109868
C           -1.36044136878701        0.00691921529315        0.09699811124142
C           -1.13858984917832        1.35414504143636        0.06479953550293
C           -1.78022393198062        2.18430898982727       -0.84003900576782
C           -2.82215699164614        1.80201877538214       -1.64382761474383
C           -0.72881720597994       -0.65939620899949        1.17393943797370
C            0.45703659157343       -0.09620453046861        1.58225753569475
C            0.82329800229403        1.17611324426056        1.14948986175735
N           -0.10649489535150        2.03578272696405        0.69266063075729
C           -1.03560718926938       -1.80874799031135        1.89393428334942
C           -0.04870869877127       -2.62494480885280        2.64976031444828
N            1.23029098929668       -2.21066762873323        2.70587889748790
C            1.39470719384051       -0.93192329028249        2.39815974762170
C            2.65770774990308       -0.46051988410865        2.85364167554653
C            2.81510967866337        0.88768757764236        2.63272371728572
C            1.84613719518243        1.61843797756597        1.83875663284204
C           -2.41528899456860       -2.20804129267708        1.96753009935312
C           -2.66220140132595       -3.38823058632035        2.71082296367781
C           -1.75938884740163       -4.03220228812131        3.51831537075811
C           -0.50079110420573       -3.59213265778663        3.55217329040284
O           -3.40357701363203       -1.24066271965169        1.44078466541360
O           -2.68483298081534       -1.90375323832356       -1.05636503047119
C           -3.55793627385004        2.89610485179589       -2.13540888087894
C           -2.12936744637609       -5.30092401396791        4.17587487024114
H           -1.57086733363331        3.25868054862546       -0.82261077296550
H           -3.66495032590935       -0.14838273861900       -2.18466772828380
H            1.94681702572563        2.73622000130710        1.66586960344325
H            3.11474549657305       -1.00414392475715        3.65188606852166
H            0.12243110955879       -3.95040701056700        4.45357471712433
H           -3.60973459888325       -3.95524028943880        2.56841999576950
O           -2.80250783906803        3.85351345799176       -2.41660223181954
O           -4.83386167458919        2.73934689125816       -2.32255359129823
C           -5.33145786300814        3.93702713959066       -2.64889772722428
C            3.83985118550122        1.63735586385638        3.27083853300426
O            4.64514666197894        1.16987066753923        4.14377785308808
O            3.88990943814533        2.88259121728916        2.75671968195106
C            5.12482675484871        3.48104165926541        3.30766651052131
O           -3.20161642139045       -5.91133979807898        3.88970986925141
O           -1.04608027652936       -5.80537151423687        4.85924766311281
C           -1.31207410864517       -6.98718923657165        5.51798877357464
C           -4.56566100019982       -1.37629545699377        2.09395549426221
C           -2.11411275660334       -2.42227820679899       -2.27281742043016
H           -0.88610945656013       -6.86404319747180        6.61495566793543
H           -1.01826109648228       -7.88317781900275        4.95557101250813
H           -2.36311184423886       -7.07228187794265        5.75612548014081
H            5.86720033075085        2.91942156643988        2.70297238349554
H            4.99754809396332        3.49569047020477        4.46419473972595
H            5.33016563814258        4.57635200909443        3.06591956896305
H           -1.72055046238267       -1.59732571958849       -2.84005701685086
H           -2.89004285844870       -3.12663646024554       -2.75872003838178
H           -1.27741998732384       -3.09463826597598       -2.21727773982299
H           -4.43914858747129       -1.93209971730941        3.01568974159807
H           -5.11759324563085       -2.07876339285142        1.38866318097666
H           -5.08872751054476       -0.39651499441172        2.22022387673183
H           -4.80755553449757        4.92435998806926       -2.44702184803781
H           -6.37141584304126        3.95685821792301       -2.34306745391771
H           -5.38788939811005        4.14777570004796       -3.68486911729327
C           -1.78251830951076        3.90551116616573        3.40630725738600
C           -1.91576477676022        2.55115722539167        3.79021890415276
C           -0.96155726938765        1.97747003732554        4.61964313661668
C            0.33212973733427        2.51613540612819        4.51387182588993
C            0.47299114705020        3.81335314025385        4.21313965636876
C           -0.62786199061155        4.61684630901518        3.84103777828443
C           -1.16597379484888        0.77440834946978        5.29755501083756
C            0.07893527887761       -0.00692301560326        5.45056097640132
C            1.27001885366226        0.53530521141290        5.43764757183982
N            1.38623509573227        1.82879556244070        5.06954005781892
C           -2.48879170706127        0.31488740243658        5.82130395538526
C           -2.51831476574200       -1.04382084356924        6.10840336540710
N           -1.35216086002268       -1.76568852548463        6.16215317645021
C           -0.08714482239722       -1.33089867170567        5.91599768854749
C            1.05421796618639       -2.05740283803625        6.23595286065871
C            2.32094178563747       -1.45628012313575        6.32072676180967
C            2.46707899324391       -0.14198904660159        5.88291432049080
C           -3.64438007629656        1.20923194671125        6.06071544469596
C           -4.78775884959833        0.60842813029003        6.54728232536098
C           -4.89587760786401       -0.79233212094502        6.42048613464080
C           -3.85567092710161       -1.69064056349594        6.12617332652839
O           -3.54274962901992        2.61351616778405        5.92891326269307
O           -2.79952369833912        1.67511842311025        3.19034172681803
C           -0.42714772477622        5.94721997148738        3.45651005216547
C           -6.18926691509995       -1.39794104714049        6.24377150253956
H            1.39474042615598        4.43095450490372        4.39059149880071
H           -2.62270335703983        4.34654934083740        2.83365304604932
H            3.42970038415393        0.41276105331315        6.02776025738116
H            0.97800409181148       -2.98951374544994        6.84128591108445
H           -3.97059542688841       -2.66886800979556        6.06926274834704
H           -5.66996401538191        1.10356574775647        6.64287896522936
O            0.12778290583836        6.84103329180484        4.08904040204696
O           -0.76091860295109        6.03371535470546        2.10993188688403
C           -0.23291063520294        7.32532919790402        1.66087027293287
C            3.39054059072811       -2.18805464702074        7.13976973969929
O            3.32076629282107       -3.39153404642473        7.39501368156885
O            4.31052711709076       -1.43722414673308        7.69543315172774
C            5.22410792489332       -2.22395746237719        8.41272154102451
O           -6.45586185965587       -1.47583576556138        5.09556154142459
O           -6.90394282405342       -1.77503640971212        7.38667824618879
C           -7.88233507645794       -2.65835545340229        7.05969178327567
C           -4.68124519580022        3.33680151202702        6.28904682390246
C           -3.68574518091854        1.95668805276962        2.23621452957766
H           -8.86783628712587       -2.00134682670751        7.08247244775955
H           -7.97600553347481       -3.35541008877007        7.85470862355956
H           -7.66112699929860       -3.30706793734701        6.18959352364615
H            6.24657585892162       -2.49502421981295        7.93533512742354
H            4.68726109718724       -3.06078680544689        8.73209434316157
H            5.34129991676500       -1.61588441791474        9.21898160694896
H           -4.71599727280117        2.17304606303938        2.71094347766718
H           -3.73330966860900        1.07663354512319        1.61046030426499
H           -3.18354966477638        2.81176999533743        1.82992421373001
H           -5.68089301325102        3.39202827828199        5.95667279893757
H           -4.42607895038740        4.42870233696100        6.40264979731374
H           -4.89029489581316        2.87561971975603        7.17380003948893
H           -1.08116716795573        8.03247017795594        1.62871439006911
H           -0.00530309572438        7.17325944152193        0.55449159085294
H            0.65691311410212        7.69546226464000        2.06440124808099
116
 energy: -22.661369869840 gnorm: 0.508814858900 xtb: 6.6.1 (8d0f1dd)
C           -2.89146528499955        0.10016792968409       -1.38003823473858
C           -2.42595050952980       -0.54287821114546       -0.18824186955125
C           -1.48162083849840        0.26307149089197        0.73610985153460
C           -0.99433263305010        1.46773032288916        0.20021482785927
C           -1.64480424094404        1.97546220721670       -0.89972538958037
C           -2.55702379914889        1.39595801494370       -1.70420636972886
C           -0.78295424944179       -0.32713847966125        1.85983949821722
C            0.49568237237681        0.29779978007929        2.03140746345803
C            0.81948257963420        1.60918901080763        1.48731493263484
N            0.07781624915976        2.28259344569673        0.63972268048222
C           -1.25174796787588       -1.34976217155888        2.72569329461395
C           -0.30868080846138       -1.96824338610021        3.61467319143246
N            0.88247925767102       -1.40235652741236        3.74477042394805
C            1.31224271514084       -0.45408474615886        2.94055414094392
C            2.56354037970645        0.22005497956622        3.18775007000120
C            2.88770504143195        1.44669966163997        2.56007573670166
C            2.03477250110472        2.18573812449580        1.79614324256625
C           -2.68099378599804       -1.68312267508862        2.86114673890709
C           -2.89974000228989       -2.94198621294385        3.37649777630870
C           -1.92874433880027       -3.65668352994481        3.92965234686531
C           -0.73965271907116       -3.14434084595802        4.25843705700701
O           -3.61971911605923       -0.90194820910788        2.20179910530983
O           -2.68570296511411       -1.85714458547791        0.16136378984219
C           -3.46231893333560        2.13432919719055       -2.71501880984496
C           -1.92557259673805       -5.15711624618324        3.82033509104969
H           -1.01978276352521        2.91551555867431       -0.90632289127753
H           -3.37334468914224       -0.51126422413896       -2.12847306784968
H            2.04848616506699        3.27986488046867        1.76987981476361
H            3.34239103486260       -0.24908445302966        3.78759570575531
H            0.07312835508399       -3.76011091742954        4.77564226688725
H           -3.93265862261052       -3.23284275297221        3.53929617146896
O           -3.68705532704138        3.26127612845831       -2.41377956313143
O           -4.20545610362182        1.41138861388108       -3.64992700718531
C           -5.31872655523122        2.30638615964899       -3.97291968377461
C            4.23845606054077        2.18385532255226        2.83880823629748
O            5.04041493236218        1.59928072197817        3.47345095082723
O            4.55433016009746        3.37861077800178        2.25863275481244
C            5.86547992541643        3.56433079638034        2.53606011382667
O           -2.92365045608148       -5.70656452603958        4.05925711752340
O           -0.81585397674151       -5.96155084891305        3.45957025697213
C           -0.98906160647820       -7.39572466290385        3.42565649214746
C           -4.62705295764555       -0.30004342575285        3.01921220818314
C           -3.18976586855978       -2.64086679151429       -0.86247756703449
H           -0.46705897120615       -8.08627690675011        4.04239853230092
H           -0.74009521868617       -7.68906728787036        2.38150756059048
H           -2.12869761079121       -7.65050486965281        3.39110235211720
H            6.53854885644436        2.68194791653781        2.46020159990172
H            6.00925492028376        3.84569010615796        3.56430256509359
H            5.94011840450701        4.45335119129607        1.91969532827035
H           -2.81064815453320       -2.26072259503790       -1.88074615021378
H           -4.33961514814017       -2.53458632730743       -0.72387784350163
H           -2.96308402634026       -3.67597484392572       -0.74915767962549
H           -5.40961053591194        0.19762874590581        2.38973493138630
H           -4.28129789667779        0.56534198438877        3.61706055092665
H           -4.92082293110883       -1.07728410987930        3.71890860682256
H           -4.82236549008021        3.30447951465671       -3.92381008224650
H           -6.19553847291249        2.11864543767281       -3.24308295328558
H           -5.36944766300864        1.96683693425795       -5.07066444125420
C           -1.57843341177257        4.13483042796328        3.47495770580206
C           -1.97917762123037        2.88625546738322        3.89407162462654
C           -1.09813041599585        2.10943018286658        4.94981534495521
C            0.28644493251036        2.57301704157248        5.00733654132436
C            0.51619514800416        3.82698615835299        4.42021603642659
C           -0.27793308272070        4.65604435161346        3.70121617249325
C           -1.47865721882680        1.05410760200178        5.80740778909325
C           -0.35504517821954        0.26443069293440        6.06323619505360
C            0.97324494172959        0.76877299669925        6.04546774248217
N            1.27523571624074        1.99428257516229        5.68772197498658
C           -2.69047131123139        0.41725146207427        6.15248099945506
C           -2.71840304416604       -0.92573685450398        6.66146858532212
N           -1.64954548658429       -1.65040629491900        7.03509367089335
C           -0.55158136263967       -1.01985937582079        6.74355397816929
C            0.62662591760996       -1.77978803561319        7.09803036387821
C            1.87028410359540       -1.38949097344978        6.64119441721766
C            1.97273391074425       -0.13876015945783        6.27809391347459
C           -3.95105690469431        1.08082555073281        6.04045941007261
C           -5.10766872788451        0.30296468921514        6.27350157579662
C           -5.14817012386557       -1.17690084208818        6.45188585364591
C           -3.93159208409551       -1.70303922276990        6.86097785232943
O           -3.81682738248095        2.40398348205201        6.00209761624819
O           -3.13087165501705        2.33768950723456        3.20866447365229
C            0.52665962060458        5.71702294724172        2.89794785122106
C           -6.12646170392630       -2.21652269114115        5.72794086176414
H            1.56278195189654        4.21228732053559        4.60487259613256
H           -1.99730275227483        4.41727311186832        2.47371131274083
H            2.98188402145252        0.13172013314154        5.90197398376876
H            0.51017198203683       -2.92102667031164        7.35132464023611
H           -3.93330532028620       -2.67902203166898        6.94821792578058
H           -5.89691305065229        0.78565558142540        5.84247284801677
O            1.55633399525200        5.28458907213822        2.39483117232880
O           -0.11997392474874        6.91704230820665        2.71405455427833
C            0.65908258850855        7.88336805829302        2.05745474359108
C            2.98632219938880       -2.45511261969346        6.81971326036403
O            2.74672988556238       -3.48796831964057        7.49787751793739
O            4.26637989597205       -1.95516323789273        6.57830450803432
C            5.13772333571360       -2.91824888814506        6.87799913929368
O           -6.48083477882029       -1.98628258705569        4.57355406424240
O           -6.47766702357882       -3.37097117522159        6.49640508396029
C           -7.47255976317156       -4.01726095609952        5.76922075467401
C           -5.09535811637682        3.18420980570628        6.33405818094216
C           -3.95844116665385        3.16794490847132        2.40123102008013
H           -8.17463128715880       -3.29068906270711        5.50367415386317
H           -8.05984279392516       -4.93412478780871        6.23429011330609
H           -6.97122226842240       -4.49721548118994        4.84202252218779
H            4.61318229292283       -3.94417157016958        6.99926522767268
H            5.66695257185129       -2.64875068868181        7.75755899329082
H            5.84028815155294       -2.76755497046081        6.03198041428347
H           -4.68028350271115        3.87209073948646        2.80608287020024
H           -4.65394609843661        2.52963159883463        1.86184339519058
H           -3.27928300880140        3.75268955497378        1.79208031683917
H           -5.48119680799946        3.34336541469375        5.39175104855139
H           -4.84148641998869        4.29497355579620        6.50433109772259
H           -5.51208441435253        2.68486736847183        7.22666507147112
H            1.64064263458914        7.88282356195869        2.54521581197417
H            0.49573671326296        8.86239513141210        2.30756698440531
H            0.65908112680154        7.69779182717755        0.89811197872330
116
 energy: -22.703997311208 gnorm: 0.439552564482 xtb: 6.6.1 (8d0f1dd)
C           -3.18451452478313        0.15049198056309       -1.36712233080676
C           -2.51792455226297       -0.70932595881257       -0.47891769098448
C           -1.70670687845079        0.07443679750558        0.42694881902611
C           -1.44860077873246        1.47307441076959        0.16931487702281
C           -1.97130675359839        2.16045296356272       -0.90271639124625
C           -2.81555909742702        1.41795533230636       -1.80126512146947
C           -0.81370694578275       -0.57227471002282        1.32271852386560
C            0.32908462305135        0.23703967338977        1.74413692509609
C            0.53229205838039        1.53064484226444        1.33595026891312
N           -0.52827040720154        2.16489537922904        0.81895822019342
C           -1.20716390702773       -1.65588675718996        2.15008410771599
C           -0.20569361874761       -2.13181836788967        3.10938240169090
N            1.01729918022931       -1.49417353464370        3.37430242121366
C            1.30357184046261       -0.37813302527857        2.65589325735677
C            2.45866551729097        0.42251675768742        2.89818296473598
C            2.70043940207418        1.79965766165923        2.63462250024257
C            1.62822137339337        2.32840898608964        1.87094859882550
C           -2.52777990222630       -2.15749452265221        2.22085296193909
C           -2.82235862690486       -3.38662969470891        2.94081151462420
C           -1.74899358342308       -3.99270732762520        3.71922878618761
C           -0.53298955665810       -3.37251700713151        3.70516342391151
O           -3.82667865256384       -1.68525131500318        1.64561443414973
O           -2.52385706002313       -2.12312047444863       -0.82059513263584
C           -3.43759486806227        2.14842891337313       -2.93044177491677
C           -1.79537987902883       -5.26356668830391        4.45428311960575
H           -1.73651656527439        3.20883933051288       -1.13042551671784
H           -3.73770652713848       -0.27271726164753       -2.18318473316174
H            1.61140734520194        3.39613566195744        1.59617091307731
H            3.11716788684235       -0.19145122268149        3.44681718407250
H            0.31979361802143       -3.73036104256965        4.33161215066045
H           -3.83532244169697       -3.45165514026552        3.35862351876294
O           -3.14087365179938        3.35799867239482       -3.02406656349993