202
 energy: -401.098778866777 gnorm: 0.234217743200 xtb: 6.7.1 (edcfbbe)
C           -0.47010000000000        4.37640000000000       -0.36620000000000
C            0.04950000000000        3.36560000000000        0.43470000000000
C            1.46540000000000        3.15130000000000        0.47620000000000
C            2.29390000000000        4.20870000000000       -0.00280000000000
C            1.71370000000000        5.24650000000000       -0.75210000000000
C            0.35720000000000        5.31710000000000       -0.96030000000000
C            2.08090000000000        2.00390000000000        1.08360000000000
C            3.41280000000000        2.19890000000000        1.48840000000000
C            4.11120000000000        3.39020000000000        1.12830000000000
N            3.59800000000000        4.32700000000000        0.31360000000000
C            1.56690000000000        0.66050000000000        1.19030000000000
C            2.39090000000000       -0.29810000000000        1.86300000000000
N            3.54350000000000        0.00270000000000        2.50420000000000
C            4.08240000000000        1.20570000000000        2.25670000000000
C            5.37350000000000        1.46840000000000        2.72670000000000
C            6.02860000000000        2.64230000000000        2.41230000000000
C            5.41090000000000        3.57710000000000        1.60730000000000
C            0.42910000000000        0.14630000000000        0.46500000000000
C            0.28780000000000       -1.22820000000000        0.31000000000000
C            1.10310000000000       -2.13940000000000        0.95360000000000
C            2.09920000000000       -1.67120000000000        1.76840000000000
O           -0.79240000000000        2.67270000000000        1.27750000000000
O           -0.56870000000000        0.87260000000000       -0.15750000000000
C           -0.22750000000000        6.47500000000000       -1.67010000000000
C            0.91590000000000       -3.58760000000000        0.72110000000000
C            7.38110000000000        2.91840000000000        2.93720000000000
C           -2.06500000000000       -1.35160000000000        2.00480000000000
C           -2.74330000000000       -0.39660000000000        1.26650000000000
C           -3.75130000000000       -0.79120000000000        0.32780000000000
C           -3.90880000000000       -2.19400000000000        0.10340000000000
C           -3.12540000000000       -3.11410000000000        0.82820000000000
C           -2.24520000000000       -2.70250000000000        1.79700000000000
C           -4.73750000000000        0.10080000000000       -0.22080000000000
C           -5.83250000000000       -0.51000000000000       -0.85320000000000
C           -5.79640000000000       -1.89740000000000       -1.17580000000000
N           -4.83670000000000       -2.72160000000000       -0.72500000000000
C           -4.87890000000000        1.52070000000000       -0.00200000000000
C           -6.20170000000000        2.06220000000000       -0.01030000000000
N           -7.24320000000000        1.46100000000000       -0.61710000000000
C           -7.01500000000000        0.24140000000000       -1.13440000000000
C           -8.03380000000000       -0.36590000000000       -1.87560000000000
C           -7.94320000000000       -1.67980000000000       -2.28990000000000
C           -6.84950000000000       -2.44020000000000       -1.92090000000000
C           -3.80450000000000        2.46190000000000        0.20730000000000
C           -4.07790000000000        3.66060000000000        0.86480000000000
C           -5.38750000000000        4.05880000000000        1.10170000000000
C           -6.42280000000000        3.30540000000000        0.60220000000000
O           -2.35820000000000        0.89190000000000        1.53780000000000
O           -2.54410000000000        2.24580000000000       -0.32270000000000
C           -1.46430000000000       -3.62480000000000        2.64550000000000
C           -5.70250000000000        5.29150000000000        1.85280000000000
C           -9.05150000000000       -2.27750000000000       -3.06630000000000
B           -1.56310000000000        1.66670000000000        0.58390000000000
O            7.94590000000000        3.94810000000000        2.62290000000000
O            7.91710000000000        1.98760000000000        3.77730000000000
C            9.15150000000000        2.44210000000000        4.22650000000000
O           -0.00670000000000       -3.91150000000000       -0.23240000000000
C           -0.09720000000000       -5.29260000000000       -0.36150000000000
O            1.56670000000000       -4.40130000000000        1.34590000000000
O           -0.77090000000000       -3.13700000000000        3.51650000000000
O           -1.54170000000000       -4.96570000000000        2.41740000000000
C           -0.59980000000000       -5.59480000000000        3.22710000000000
O           -9.89800000000000       -1.55820000000000       -3.56000000000000
O           -9.06240000000000       -3.63870000000000       -3.16760000000000
C          -10.13380000000000       -4.03380000000000       -3.96160000000000
O           -6.86530000000000        5.55180000000000        2.09530000000000
O           -4.65800000000000        6.06680000000000        2.25900000000000
C           -5.14880000000000        7.09670000000000        3.05480000000000
O            0.46200000000000        7.14120000000000       -2.41650000000000
O           -1.54080000000000        6.73730000000000       -1.40640000000000
C           -1.94890000000000        7.83820000000000       -2.15010000000000
H          -10.01360000000000       -3.59410000000000       -4.95490000000000
H          -11.06170000000000       -3.67020000000000       -3.51300000000000
H          -10.14670000000000       -5.12350000000000       -4.03030000000000
H           -4.31840000000000        7.70730000000000        3.41470000000000
H           -5.67720000000000        6.64800000000000        3.90280000000000
H           -5.84380000000000        7.70050000000000        2.46570000000000
H           -2.99620000000000        8.05320000000000       -1.92630000000000
H           -1.82820000000000        7.60730000000000       -3.21170000000000
H           -1.32020000000000        8.69310000000000       -1.88780000000000
H           -0.81650000000000       -6.66370000000000        3.28020000000000
H           -0.63780000000000       -5.13700000000000        4.22020000000000
H            0.39310000000000       -5.42010000000000        2.80010000000000
H           -0.58270000000000       -5.69520000000000        0.52990000000000
H            0.90940000000000       -5.70710000000000       -0.45930000000000
H           -0.69070000000000       -5.52690000000000       -1.24770000000000
H            9.56780000000000        1.71300000000000        4.92500000000000
H            9.00110000000000        3.40410000000000        4.72920000000000
H            9.81400000000000        2.57350000000000        3.36710000000000
H           -8.93110000000000        0.18720000000000       -2.09110000000000
H           -6.82420000000000       -3.48280000000000       -2.18060000000000
H           -7.42990000000000        3.66610000000000        0.71410000000000
H           -3.26840000000000       -4.16620000000000        0.66360000000000
H           -3.26560000000000        4.28930000000000        1.18090000000000
H           -1.36250000000000       -1.01950000000000        2.75150000000000
H           -1.53620000000000        4.47230000000000       -0.45870000000000
H           -0.51060000000000       -1.59240000000000       -0.31060000000000
H            2.73720000000000       -2.37910000000000        2.26680000000000
H            2.33990000000000        6.03570000000000       -1.12900000000000
H            5.94130000000000        4.47870000000000        1.35730000000000
H            5.87180000000000        0.73530000000000        3.33450000000000
C            0.13830000000000        3.46150000000000        3.97870000000000
C            0.72010000000000        2.53860000000000        4.85010000000000
C            2.14900000000000        2.47410000000000        4.94490000000000
C            2.88010000000000        3.59500000000000        4.44860000000000
C            2.22090000000000        4.56290000000000        3.67350000000000
C            0.87730000000000        4.48720000000000        3.41100000000000
C            2.86000000000000        1.41120000000000        5.59990000000000
C            4.16990000000000        1.74720000000000        5.99350000000000
C            4.77230000000000        2.97200000000000        5.57490000000000
N            4.17170000000000        3.83500000000000        4.74180000000000
C            2.44090000000000        0.04810000000000        5.84090000000000
C            3.30520000000000       -0.75380000000000        6.64920000000000
N            4.46590000000000       -0.33490000000000        7.19340000000000
C            4.92040000000000        0.86640000000000        6.81900000000000
C            6.19690000000000        1.24510000000000        7.24500000000000
C            6.77110000000000        2.43270000000000        6.84390000000000
C            6.06860000000000        3.27670000000000        6.00760000000000
C            1.32250000000000       -0.63540000000000        5.22840000000000
C            1.15150000000000       -2.00480000000000        5.42560000000000
C            1.97130000000000       -2.74100000000000        6.25880000000000
C            3.01550000000000       -2.10770000000000        6.87160000000000
O           -0.06990000000000        1.79160000000000        5.70410000000000
O            0.36250000000000       -0.07010000000000        4.40810000000000
C            0.21580000000000        5.55360000000000        2.62800000000000
C            1.77000000000000       -4.18490000000000        6.50930000000000
C            8.13950000000000        2.77640000000000        7.28670000000000
C           -1.92780000000000       -2.32150000000000        6.50270000000000
C           -2.30890000000000       -1.23340000000000        5.71630000000000
C           -3.40660000000000       -1.38580000000000        4.77770000000000
C           -3.86930000000000       -2.72570000000000        4.56460000000000
C           -3.37390000000000       -3.78430000000000        5.34100000000000
C           -2.46110000000000       -3.58640000000000        6.33920000000000
C           -4.20810000000000       -0.33930000000000        4.17640000000000
C           -5.37160000000000       -0.72950000000000        3.49030000000000
C           -5.59270000000000       -2.09980000000000        3.18560000000000
N           -4.83510000000000       -3.08030000000000        3.69000000000000
C           -4.07480000000000        1.08250000000000        4.31680000000000
C           -5.21620000000000        1.92190000000000        4.13770000000000
N           -6.32590000000000        1.51750000000000        3.49150000000000
C           -6.35120000000000        0.23440000000000        3.09110000000000
C           -7.43590000000000       -0.19170000000000        2.31380000000000
C           -7.59320000000000       -1.51510000000000        1.95240000000000
C           -6.68670000000000       -2.45500000000000        2.39350000000000
C           -2.82440000000000        1.73920000000000        4.55600000000000
C           -2.83470000000000        3.01660000000000        5.11410000000000
C           -4.00060000000000        3.76970000000000        5.14230000000000
C           -5.15130000000000        3.25250000000000        4.59060000000000
O           -1.54080000000000       -0.11380000000000        5.98790000000000
O           -1.67010000000000        1.15600000000000        4.07820000000000
C           -2.12930000000000       -4.69010000000000        7.26650000000000
C           -3.96380000000000        5.14690000000000        5.67800000000000
C           -8.73080000000000       -1.94170000000000        1.11300000000000
B           -0.72990000000000        0.67760000000000        5.05020000000000
O            8.71330000000000        3.73140000000000        6.80120000000000
O            8.68840000000000        1.96150000000000        8.23420000000000
C            9.95440000000000        2.42540000000000        8.57350000000000
O            0.72170000000000       -4.80640000000000        5.89710000000000
C            0.63570000000000       -6.10300000000000        6.39050000000000
O            2.53920000000000       -4.75610000000000        7.25880000000000
O           -1.40620000000000       -4.48990000000000        8.22200000000000
O           -2.71650000000000       -5.89500000000000        6.99690000000000
C           -2.51540000000000       -6.77020000000000        8.06130000000000
O           -9.47940000000000       -1.11190000000000        0.63690000000000
O           -8.85530000000000       -3.28840000000000        0.91690000000000
C           -9.88540000000000       -3.55060000000000        0.01900000000000
O           -4.95800000000000        5.84380000000000        5.64710000000000
O           -2.76560000000000        5.55160000000000        6.19020000000000
C           -2.87070000000000        6.85020000000000        6.67300000000000
O            0.89240000000000        6.40470000000000        2.08590000000000
O           -1.14740000000000        5.52450000000000        2.57640000000000
C           -1.61410000000000        6.60380000000000        1.83510000000000
H           -9.48530000000000       -3.44930000000000       -0.99160000000000
H          -10.69620000000000       -2.83330000000000        0.17710000000000
H          -10.24400000000000       -4.56970000000000        0.17710000000000
H           -1.92770000000000        7.12730000000000        7.14930000000000
H           -3.68780000000000        6.89100000000000        7.39810000000000
H           -3.08260000000000        7.52230000000000        5.83870000000000
H           -2.70500000000000        6.59940000000000        1.86060000000000
H           -1.26220000000000        6.50400000000000        0.80630000000000
H           -1.22400000000000        7.52700000000000        2.27010000000000
H           -2.91760000000000       -7.75060000000000        7.79790000000000
H           -3.03400000000000       -6.37630000000000        8.93850000000000
H           -1.44830000000000       -6.84550000000000        8.27750000000000
H            0.59460000000000       -6.03920000000000        7.48220000000000
H            1.52790000000000       -6.65700000000000        6.08740000000000
H           -0.26700000000000       -6.58430000000000        6.00840000000000
H           10.36850000000000        1.78780000000000        9.35760000000000
H            9.86680000000000        3.45490000000000        8.93000000000000
H           10.59260000000000        2.39740000000000        7.68730000000000
H           -8.16450000000000        0.52740000000000        1.98410000000000
H           -6.84140000000000       -3.48900000000000        2.14360000000000
H           -6.02210000000000        3.87870000000000        4.51030000000000
H           -3.78600000000000       -4.76740000000000        5.19920000000000
H           -1.92660000000000        3.45000000000000        5.49250000000000
H           -1.17910000000000       -2.17110000000000        7.25990000000000
H           -0.90550000000000        3.39290000000000        3.73430000000000
H            0.36490000000000       -2.50440000000000        4.88820000000000
H            3.67000000000000       -2.68560000000000        7.50060000000000
H            2.78090000000000        5.39270000000000        3.28010000000000
H            6.53370000000000        4.18720000000000        5.67380000000000
H            6.75460000000000        0.58340000000000        7.88280000000000
202
 energy: -401.154156796886 gnorm: 0.112402158171 xtb: 6.7.1 (edcfbbe)
C           -0.47634185515172        4.37713831739646       -0.34540003184426
C            0.04024725711641        3.36773303364468        0.45483417841862
C            1.44428710947416        3.15252501886706        0.49369107566328
C            2.28651730196499        4.20644200796513        0.00357411986028
C            1.71869251603372        5.25165671537161       -0.75274200534439
C            0.35976137346996        5.31650612686541       -0.95047581510728
C            2.06682710547213        2.00546828433830        1.08489254488564
C            3.40245464578968        2.19940336144608        1.48939816340841
C            4.10299243294419        3.39010972436867        1.12949926159744
N            3.58240010060724        4.31335640029162        0.31633754434881
C            1.54979969391317        0.66624415996888        1.17383205110178
C            2.38257096146656       -0.29418890061885        1.85225015401475
N            3.52777955338456        0.00680382244067        2.48634349598506
C            4.07241830497692        1.20236993608936        2.25445913208871
C            5.36783353946840        1.45983686603310        2.73628099590219
C            6.02142099915699        2.63821642959643        2.41677747108328
C            5.40865918036235        3.58189268437015        1.60664322215082
C            0.40565303898075        0.15565032667814        0.47027460014443
C            0.27298918178149       -1.21929945147675        0.31068935525442
C            1.10443598192869       -2.13376070777877        0.95010988990823
C            2.09927719953260       -1.67326309867645        1.77496393330480
O           -0.78725273707647        2.67685957104473        1.27893249594284
O           -0.56536613077176        0.86523790986590       -0.16207498588684
C           -0.20749465965357        6.47082888244665       -1.68165647172562
C            0.92637765180329       -3.58371689701661        0.73354988902294
C            7.37698312604390        2.93316802587562        2.92802755649891
C           -2.05812234165740       -1.34785165580131        2.00151314728035
C           -2.72657949638764       -0.38555218694809        1.26183229083456
C           -3.74477521315492       -0.77492508296882        0.34014882152436
C           -3.91152541452186       -2.18593236243000        0.10966749665046
C           -3.13101422421046       -3.12417645910721        0.81943367062510
C           -2.25602776033356       -2.70923240712533        1.79058089959605
C           -4.73174809816605        0.10821380204933       -0.21477240838101
C           -5.82879136285922       -0.50654282332505       -0.84887006547448
C           -5.79349348514510       -1.89584824488192       -1.16687353403273
N           -4.83507586091513       -2.70520458485639       -0.71304264571623
C           -4.85717944222357        1.52456160100313       -0.00646233253774
C           -6.19097216795209        2.05904523452266       -0.00940225898904
N           -7.22073911418303        1.45399355988812       -0.61177859035241
C           -7.01198831021636        0.24116097927390       -1.13089464565698
C           -8.03911719490547       -0.36241291363859       -1.87191501753251
C           -7.93914631092322       -1.68338723395461       -2.28445965052275
C           -6.84480164213809       -2.45034139252660       -1.91767044578090
C           -3.79242480013641        2.45695178086222        0.19460123548731
C           -4.06643954942265        3.65389333624826        0.85019120302737
C           -5.38392068438685        4.05054500473508        1.09898805781986
C           -6.42679268496219        3.30358548438253        0.60342048717715
O           -2.36000796610586        0.88180309948873        1.54106271820658
O           -2.55475801577542        2.23279757142273       -0.32712364424749
C           -1.46853892057276       -3.61249917311315        2.64663095026839
C           -5.72138828007281        5.27896814161611        1.85004234303433
C           -9.05288802122253       -2.25797559736657       -3.07183594237049
B           -1.56325800492539        1.66195800603467        0.58564851344633
O            7.95284091619279        3.94958416205562        2.62315829991073
O            7.90383825713929        2.00970048445401        3.75928712684863
C            9.16007663308495        2.44065632964437        4.22432718409893
O            0.01612883012786       -3.90513170721113       -0.21149920107766
C           -0.09768519094795       -5.29873226790338       -0.36699611517209
O            1.56660784379728       -4.40804963865475        1.34454887466763
O           -0.77197983767363       -3.14107948984298        3.51608168225502
O           -1.53999158002039       -4.93662322865325        2.41962018687387
C           -0.60024213912824       -5.60696119517758        3.23053434840809
O           -9.90070975669325       -1.55832990622880       -3.56880014769508
O           -9.05772489096719       -3.60740631237036       -3.17734481237834
C          -10.13767380393988       -4.03854293673444       -3.96829958977154
O           -6.87083365606512        5.55709705925534        2.09724889357065
O           -4.68620112034457        6.04510344738253        2.25341906289662
C           -5.15260482735052        7.10548425866496        3.05498852134954
O            0.46178114651556        7.14512544933773       -2.42553972532784
O           -1.51014124761431        6.72824300738571       -1.42174721434416
C           -1.95299386114391        7.84292293009670       -2.15474272760470
H          -10.03422612383763       -3.60718494343142       -4.96689638533563
H          -11.07255616924099       -3.68284869028052       -3.52674398652035
H          -10.13210807051143       -5.12568005489574       -4.02149481935915
H           -4.30890866851304        7.70075998118322        3.40043717798631
H           -5.68395765115330        6.68153583155962        3.91110845250456
H           -5.84527703316493        7.71986612998143        2.47582963155763
H           -2.99693680506717        8.03951303854050       -1.91561935002526
H           -1.83978788502592        7.63016754812530       -3.22073530453905
H           -1.33383013696939        8.70719433090729       -1.89993782736102
H           -0.83205169080622       -6.66909549592009        3.26412138199159
H           -0.63086184073785       -5.16548568975021        4.22814110259087
H            0.40049487474078       -5.44159090872104        2.81810284339940
H           -0.58516246299392       -5.71711566280042        0.51521776395224
H            0.90188627719118       -5.73019876924445       -0.46590593030302
H           -0.69241376696199       -5.51033033511951       -1.25372586942293
H            9.55737760499937        1.70109373602703        4.91758902875407
H            9.03472844032224        3.40282565578737        4.72927258649774
H            9.83427079460868        2.57346832598067        3.37542181408331
H           -8.93488182312217        0.19542214242710       -2.09104681622717
H           -6.81220195140971       -3.49401472849795       -2.18115094655752
H           -7.43699946709560        3.66480002531656        0.70551488687871
H           -3.27963657407914       -4.17557246824331        0.64728122909184
H           -3.25315073737934        4.28274550501008        1.17090320873568
H           -1.35649953073716       -1.01371726695870        2.75078401890467
H           -1.54389391415398        4.46284134529856       -0.45507041603777
H           -0.51809847046115       -1.58447874796923       -0.32163883740448
H            2.74246585197858       -2.37615092820586        2.27922917394548
H            2.35069055731381        6.03889294782430       -1.12850340643491
H            5.94087324691487        4.48426888077503        1.35124357830481
H            5.86686134073487        0.72115780004046        3.34052245642726
C            0.13228395967393        3.45404452598056        3.99307756545975
C            0.71107985421366        2.53802723708773        4.86916427541252
C            2.12980026924182        2.47149255272646        4.95712623693896
C            2.87640205507854        3.58882743043315        4.44777242717778
C            2.22744626769524        4.56513784516043        3.66755969356971
C            0.88008755222275        4.47903925110969        3.41434133996808
C            2.84916371899562        1.41045041635238        5.59739598943040
C            4.16351379960957        1.74393215292673        5.98978630702851
C            4.76772386875994        2.96862148753076        5.57338997575812
N            4.16079175244707        3.81965419184813        4.74239933242433
C            2.42500070745566        0.05102006148731        5.82358493450190
C            3.29915368035548       -0.75201153269878        6.64004869166157
N            4.45153528597277       -0.33297541021872        7.17709883550411
C            4.91547630126540        0.85987750239122        6.81328669348686
C            6.19560560503597        1.23343874269360        7.25177917442609
C            6.76664515572026        2.42729548970153        6.84827813847343
C            6.06896506138242        3.27860099776649        6.00428348380846
C            1.30926006312752       -0.62763208292414        5.22532645859668
C            1.14866531151887       -1.99799646941660        5.41939041636815
C            1.97541245055787       -2.73827879319915        6.25629810218444
C            3.02055211559858       -2.10961882023344        6.87960689537073
O           -0.06023551107756        1.79338288073277        5.70867161710790
O            0.36685840376624       -0.07405271327449        4.40991144042011
C            0.23440792061028        5.54700205573582        2.61873110715554
C            1.78783210009951       -4.18050439461751        6.52208993582761
C            8.13278847949652        2.79061719859664        7.28291491881127
C           -1.92231996016927       -2.31732072525134        6.49777173987966
C           -2.28487961870107       -1.22560790997850        5.70696566462371
C           -3.39054843660971       -1.36869065919234        4.78534747973127
C           -3.86305688209363       -2.71543137945310        4.56758832065347
C           -3.37724023075415       -3.79178177892924        5.33101738732913
C           -2.46784657769441       -3.58709065907138        6.33454442953587
C           -4.19442184831934       -0.33333251768515        4.17508384709715
C           -5.36341023802982       -0.72724382159536        3.49066373986484
C           -5.58642696698952       -2.09896390792431        3.18944795121875
N           -4.82659733484431       -3.06306425918566        3.70146257767338
C           -4.05236331098282        1.08360727220850        4.30644430953728
C           -5.20688054284146        1.91899007074940        4.13544997930387
N           -6.30765371316090        1.50833944575796        3.49695999708404
C           -6.34446791751701        0.23421601996005        3.09154768012987
C           -7.43551527779982       -0.18676386396908        2.31161833623099
C           -7.58836805423689       -1.51924855038302        1.95471476418120
C           -6.68102616854270       -2.46677706368144        2.39269900222736
C           -2.81153763664774        1.73645498836731        4.53266368134710
C           -2.82256919500059        3.00663755349046        5.10198176576118
C           -3.99898040754392        3.75844602717927        5.14222233255729
C           -5.15585237985006        3.25396502919909        4.58927227498867
O           -1.54134883664262       -0.12260361810197        5.99571796097488
O           -1.68661829433780        1.14944951261212        4.07062592236501
C           -2.11791743343500       -4.67565764407178        7.27123226394806
C           -3.97834478658616        5.13623744575378        5.67844474558921
C           -8.73294884054492       -1.92194141063573        1.11223413257698
B           -0.73596637912052        0.67681735632431        5.04816759273424
O            8.71307645038394        3.74473629182430        6.82065115147842
O            8.67601804117524        1.98114930945562        8.21586000513922
C            9.96023865079110        2.42539469349486        8.57737728952933
O            0.74137321517502       -4.78872985308371        5.92497040558524
C            0.63504565107536       -6.11036819173620        6.39419303134781
O            2.54148656468270       -4.76711734031469        7.26341476167279
O           -1.40581044253093       -4.49159754313817        8.22900089042549
O           -2.70538937523448       -5.86737025003088        7.00745971328655
C           -2.51658252837873       -6.77543491903200        8.06604584700772
O           -9.48046751236802       -1.10670575659992        0.62756515758676
O           -8.85673817451359       -3.25394103903320        0.92139636391572
C           -9.89306363444407       -3.55800988629044        0.01967661037170
O           -4.96032698016423        5.84153264809563        5.66597036675195
O           -2.79136796369187        5.54066880530783        6.17909459559568
C           -2.86875420513615        6.85343137279425        6.67505424463930
O            0.89052578590173        6.40631434313726        2.07517614503278
O           -1.11336847421957        5.52553219355584        2.58436421841959
C           -1.61491727909863        6.60871892067446        1.83868198926367
H           -9.50442808619055       -3.46223601786118       -0.99343878922705
H          -10.71295364259292       -2.84912043215425        0.16258651256045
H          -10.23482739390277       -4.57705170591792        0.19103878686289
H           -1.92122375078396        7.11311799926317        7.14466705730499
H           -3.68203837595441        6.91373412084379        7.40349818655758
H           -3.08153955973346        7.53917120616144        5.85090111335995
H           -2.70085458711526        6.58780970693130        1.87165773258263
H           -1.27250362489040        6.52398251032877        0.80666868708767