116
 energy: -22.928061455056 gnorm: 0.329736929581 xtb: 6.6.1 (8d0f1dd)
C           -3.31122850772930        0.79849766164622       -0.92477639677520
C           -2.44380812530352       -0.12270372891954       -0.27661132624697
C           -1.41337090092821        0.39579727573559        0.56335275196199
C           -0.89266158675590        1.65801491088749        0.27377586709581
C           -1.72665675402493        2.51431363229076       -0.49448366572522
C           -2.95444148494349        2.13954154133227       -1.01494489940871
C           -0.74098268209890       -0.43411532818871        1.49825021926784
C            0.56872586496315        0.03782116815119        1.86248088067890
C            1.03782416582094        1.29402317993033        1.50887470833621
N            0.31238977034758        2.07067427098208        0.65193736800696
C           -1.29695700510141       -1.39996043042223        2.41574187746061
C           -0.38243517664656       -2.18060797534842        3.13232615520648
N            0.91308504082021       -1.90366887689689        3.30325166013478
C            1.37712470144904       -0.74872102533751        2.81811050966982
C            2.52149331701875       -0.17739833758153        3.39379298866852
C            2.95849061756259        1.02681208890480        2.95105897606587
C            2.24288949469137        1.78498308775960        2.03503020483770
C           -2.74860936222260       -1.74497937691422        2.38401158947411
C           -3.09416315450955       -2.91614440870436        3.00571134491758
C           -2.16786021984049       -3.77788778654213        3.63251872101904
C           -0.85708937311598       -3.40495313382985        3.68547234358092
O           -3.71994433332149       -0.94984598373544        1.67726658385724
O           -2.55702603277562       -1.47241711578389       -0.57241635275616
C           -3.84297843593025        3.13357444054366       -1.60938954875544
C           -2.68769581069131       -5.03867041417370        4.30484659386931
H           -1.39666850744143        3.51251503834900       -0.76806311868865
H           -4.27662633836220        0.55105838579656       -1.33106614114542
H            2.66329581305412        2.73912661909249        1.72562431984580
H            3.05775395548473       -0.69369546277216        4.16536137542516
H           -0.24710966264510       -4.12034095424229        4.22946223699121
H           -4.11477991332403       -3.04712728052358        3.03244694615357
O           -4.21824883374556        4.03433712717988       -0.87713382485991
O           -4.44510595673734        2.90643496899600       -2.81853501752979
C           -5.44216520282800        3.83300025693726       -3.02488532025093
C            4.23586651889298        1.50004220933226        3.59165660008449
O            5.05927614697201        0.66079890002952        3.91714215179376
O            4.47001334453535        2.86385149488593        3.72605651435371
C            5.79457498613219        3.08584475587818        4.15829123132174
O           -3.82227255313510       -5.27347675879771        4.16636005494405
O           -1.85023202017753       -5.79767454267276        5.06656077253571
C           -2.55119635829503       -6.86252441382958        5.62930343183426
C           -5.07197156564436       -1.42399175670916        1.58830531863830
C           -1.33089900128490       -2.23622472573986       -0.99264499351172
H           -2.54510546830388       -7.76426885143998        4.99136022291012
H           -3.57194749219491       -6.44405511486021        5.74196173723541
H           -2.09133598235598       -7.02043774843818        6.64022264233588
H            5.72707967266424        3.46798026205549        5.10135971236643
H            6.34060091246885        3.78468702308830        3.50069950143490
H            6.17933064298187        2.03010500085905        4.19342358084693
H           -0.91862729772622       -2.57650129080332       -0.01361370304871
H           -0.49769766914251       -1.60651221708571       -1.34094446550576
H           -1.52632419730509       -2.94569707152159       -1.75361447637286
H           -5.11788846557077       -2.41810833635233        1.17520213188926
H           -5.67929807973498       -0.69619639428435        1.04301666067831
H           -5.57598832326623       -1.42383358739762        2.57928294206544
H           -6.13050215934830        3.76035386975488       -2.23272855695873
H           -5.86615610071888        3.45938329385866       -4.02668959924245
H           -5.13479557532099        4.87790991548477       -2.98314551356402
C           -1.38192942069774        3.73616555005018        2.91232598411686
C           -1.84821468128685        2.59982427735607        3.49755545445181
C           -1.05946531454833        2.05730632010638        4.60922730982276
C            0.19893954712228        2.69376791964407        4.86302140881997
C            0.50425395911860        3.94630308659851        4.28768785650746
C           -0.26031777722226        4.46998310053134        3.25072669343212
C           -1.20488993561782        0.74454293276906        5.14851520323437
C           -0.06287609782692        0.02744069315890        5.60930570802864
C            1.19208754369866        0.71421540266195        5.78882868583885
N            1.19428660993148        2.06344359410476        5.62744624321596
C           -2.41361422770794        0.07928500213936        5.25249410304426
C           -2.45851584031083       -1.32662100968547        5.60237876023992
N           -1.29466212405906       -1.98318595734370        5.89916817085159
C           -0.14475655767527       -1.32117560077092        5.98824682881008
C            0.97209270935794       -1.98958449505532        6.53157704134458
C            2.21982707914082       -1.36973967291181        6.68703967237737
C            2.30561929262884       -0.09745313075593        6.26436900324455
C           -3.73018485967715        0.71367583494582        5.25810242262992
C           -4.89964478833448       -0.06184623426677        5.21204641615509
C           -4.82617965800088       -1.39228978090841        5.46901303780036
C           -3.67144193418464       -1.98914944386360        5.67265433266067
O           -3.75568638935321        2.07705011038914        5.52067969627343
O           -2.94192434743730        1.91263938797883        3.01658762327703
C            0.21273512614467        5.50086066357994        2.34765104514621
C           -6.06660304520411       -2.17604633098929        5.80641622556876
H            1.41756699010566        4.38133362238595        4.66974005703471
H           -1.82880610647429        4.11982501512100        2.06992133318584
H            3.26888037378556        0.32655662585251        6.31721410015598
H            0.87146188387207       -3.08471526305024        6.57830423410869
H           -3.67716811065157       -3.05999292755990        5.83019634570050
H           -5.77379677507622        0.43595144608221        4.71017130754348
O            1.34459852619901        5.82615848916894        2.44941456579099
O           -0.74718748219123        6.07961784856304        1.59848183464284
C           -0.21473095568964        7.24015934882472        1.05753806029483
C            3.53228080814219       -2.00967610361154        7.02506769044485
O            3.64093082622715       -3.14437803815732        7.50071391725347
O            4.56565258381079       -1.22937033368332        6.69086985080897
C            5.72579357310716       -1.80692399125161        7.22246151275881
O           -7.04801223588612       -1.95726935745904        5.14194115322235
O           -6.01514389321278       -2.93743591896022        6.94765316328794
C           -7.21292732384718       -3.62681918543340        7.15115816329978
C           -4.95459780685163        2.65960679932188        5.86868674392943
C           -3.68284113682406        2.59129188358641        2.05479246020704
H           -7.43119628931628       -4.22607794725959        6.20622607140901
H           -8.06548455146707       -2.91765848248592        7.29781126410398
H           -7.07314693247270       -4.33087306029711        7.91223421050944
H            6.57332189837178       -1.29353136199234        6.78341268688262
H            5.74663761932316       -2.84282155125561        6.88089468184451
H            5.69426191474290       -1.72781984964892        8.29460302186842
H           -4.10481209541493        3.44288266176275        2.60483747673152
H           -4.49244774344916        1.87419893016926        1.82433103764650
H           -3.18901540870812        2.85154642679373        1.06781919454921
H           -5.55414326821421        2.76698137191684        4.93950725322359
H           -4.78658370641210        3.62090640967288        6.25983200635257
H           -5.43485580473958        1.97242995129449        6.65265772412460
H            0.89164886030839        7.38838561720231        1.13776105146914
H           -0.62894889903848        8.04195665205089        1.64837664327952
H           -0.59282546386754        7.45699159724320        0.03719083132488
116
 energy: -22.486171439138 gnorm: 0.623893576871 xtb: 6.6.1 (8d0f1dd)
C           -2.72609929851997        0.38546897848489       -2.08695038422226
C           -1.78690161224012       -0.35974122375195       -1.27196723201125
C           -1.18869394148035        0.24250437542106       -0.15522480552553
C           -1.02497343736331        1.74989590752465       -0.07981224714637
C           -1.92355046820144        2.36467996103746       -1.01394553048297
C           -2.52146794239281        1.77108940857658       -2.08678909672137
C           -0.46240928298579       -0.55231053049037        0.77608635646409
C            0.73593852523155        0.11256936888999        1.33266716833472
C            0.97236507797167        1.54963156472888        1.15476088229754
N            0.03220319783039        2.37827526213230        0.56129070184761
C           -0.91869670048411       -1.83855006675290        1.35638848479108
C            0.12520201009071       -2.52119784072125        1.98055793675050
N            1.43541540036318       -2.17152575838325        1.73395727584384
C            1.70341136692437       -0.79806479931013        1.80129962247295
C            2.85082831192798       -0.44643341168911        2.22704370845621
C            3.26946772503967        0.94370700009325        1.93802958007043
C            2.43135385002260        1.82218913729017        1.33236365058869
C           -2.24113013195495       -2.20396278584935        1.70888440976972
C           -2.51980185746032       -3.49000233189955        2.23949024598018
C           -1.48816938292023       -4.17217921427880        2.78982789418586
C           -0.18199530776373       -3.62694770120259        2.75503864221656
O           -3.34336365982687       -1.36805063417769        1.60894326733362
O           -1.84585060088441       -1.77634648528750       -1.26467794709872
C           -3.58172977513204        2.55519272742121       -2.88916544246618
C           -1.88147404164328       -5.15643967000552        3.79717775304508
H           -1.88084171458873        3.53904621373648       -0.92139153455358
H           -3.51172910159910       -0.02894977347066       -2.75462168818526
H            2.91222630292078        2.76377884615122        1.13482643145370
H            3.57208994541923       -1.23822026434389        2.57745903931611
H            0.64220596666620       -4.27244477411528        3.09266193221517
H           -3.58101228672170       -3.87859028783478        2.03524082882180
O           -3.31241747678297        3.53647958612913       -3.64202566986287
O           -4.90608771870054        2.29009327809177       -2.56175130898208
C           -5.81594356836889        3.47914476777492       -2.66674380484472
C            4.74382729660591        0.99804642010744        2.22723041114369
O            5.29757241502952       -0.03879476579146        2.68270081279175
O            5.21103699166444        2.23438867703815        2.09563552983873
C            6.40423784015217        1.97241642089160        2.72300308420392
O           -2.88443316390292       -5.87441421651136        3.85222519791020
O           -0.71993103985175       -5.57696032322638        4.52262522416919
C           -0.87500153805162       -5.87896050514349        5.81598009605599
C           -4.06432638967199       -1.07474972912729        2.80212667100010
C           -1.62125696192450       -2.38225892491483       -2.47513543291676
H           -0.80078304987006       -4.80092522453131        6.24141120636349
H           -0.05848259283584       -6.44172356155391        6.16989362520799
H           -1.73680735576843       -6.47204470650984        5.52132849912937
H            6.87833367666075        1.38842006670219        2.05043714696310
H            6.13024723556096        1.39799964366367        3.61277920779807
H            6.78243782002887        2.92035916859646        3.11639026762642
H           -2.30802656056916       -2.26992840426861       -3.39443434601278
H           -1.08874736377438       -3.30787861709886       -2.17185625328871
H           -0.79424257095373       -1.71943254020359       -2.95002177040770
H           -4.39940428649976       -2.17451139500295        3.02426937664611
H           -4.89221400567376       -0.26921455959851        2.40741677853934
H           -3.60842893267724       -0.52210856410855        3.56147321263369
H           -5.78311958783433        4.00961541657096       -1.76161613486397
H           -6.96834984053335        3.39011609032296       -2.77014392008668
H           -5.26735216871280        4.30296193537069       -3.07908514350348
C           -1.93954222743819        3.69559331548538        3.24530199694451
C           -2.20395605507702        2.43058675282414        3.47746317145590
C           -1.38464818140406        1.78662826611427        4.38420729493771
C           -0.08087694218006        2.27546598968025        4.58174713196380
C            0.28339492193062        3.59022051069398        4.19058150689512
C           -0.80169538111904        4.43998093803228        3.83669159143935
C           -1.55904616512914        0.66731230956976        5.24062292397332
C           -0.51620071042651       -0.07930654275656        5.89207215998644
C            0.82672529933401        0.31603635475563        5.73250215825628
N            0.99546493847895        1.65359566047563        5.36848112624904
C           -2.83627855745547        0.21935845666441        5.84245829406450
C           -2.97271504034386       -1.11237140014360        6.21424315713732
N           -1.91590195596655       -1.95059288885243        6.31294164712835
C           -0.75676174204494       -1.38899581883031        6.46139419570677
C            0.33634210694903       -2.02466927589796        7.08107168413008
C            1.65902294711315       -1.59917193502548        7.03236166014244
C            1.86441477919913       -0.38712966086648        6.38562996225249
C           -3.90374084494319        1.15989039756736        6.13187243576599
C           -5.15440411638635        0.68254864512998        6.59383457341454
C           -5.39455229298854       -0.81633149955662        6.43671926599495
C           -4.25491415032465       -1.72163660216863        6.40513526801738
O           -3.86745357697611        2.59686596345086        6.04256536272550
O           -3.26243073703301        1.74279942794483        2.88948393057445
C           -0.65360816271252        5.90894229881193        3.83953395718954
C           -6.56582970394715       -1.48858002752916        6.85153326569713
H            1.26692381071396        3.87366859836890        4.39453527216006
H           -2.64211731436991        4.25554636986125        2.66806139806485
H            2.75391407479578        0.12762535798991        6.82371541631065
H            0.14882840553234       -2.75440820977716        7.83526811859758
H           -4.24640108876277       -2.69584287190425        6.76235382216944
H           -5.99468941798433        1.06441339250781        7.08460148263429
O           -1.11378791467448        6.53097307959355        4.84223678574263
O            0.04536972977069        6.30730908405924        2.79235698017268
C           -0.15478135702766        7.68593038457863        2.82763167154176
C            2.77768487895299       -1.82721994897196        8.02968164693060
O            2.49072387166557       -2.75662164000773        8.75695466225979
O            3.93194895185110       -1.08300325884617        8.14389453484263
C            4.51093369993814       -1.00479322366729        9.41369597370413
O           -6.96281618820021       -1.11197523538396        7.95974681452787
O           -7.33958316675590       -2.45496176224507        6.23891026813170
C           -8.39922632364860       -2.95484239201332        7.02167315298947
C           -3.04523003123199        3.37539495498327        6.94973486489017
C           -4.06287615051433        2.36820648312844        1.76807665506617
H           -8.12438333293812       -3.84608621885458        7.82760206677056
H           -9.34251676964175       -3.48326962566653        6.64888623499839
H           -8.68368544705463       -2.07794294047201        7.82756278887985
H            5.54142889340063       -1.37954648164757        9.02279030272729
H            4.20502650533824       -1.65835412899354       10.07483858087762
H            4.35149448459756        0.06429043895057        9.71393909178590
H           -3.65983981059504        1.77579054599621        1.08582530810548
H           -3.89889017257060        3.48866951849617        1.52574954377422
H           -5.08697504241313        2.20743889581232        1.83698001783774
H           -2.27193532271079        2.84323722508352        7.18957868267790
H           -3.76070624229115        3.43112233165958        7.80570887531779
H           -3.19891656507396        4.46622484784309        6.65600496397275
H           -0.10875716545174        8.08608811470746        3.78614333359982
H           -1.03770397543928        7.94475019275608        2.32976283696238
H            0.53883085210973        8.10845888612637        2.18046735581743
116
 energy: -22.541394733887 gnorm: 0.590895147968 xtb: 6.6.1 (8d0f1dd)
C           -3.30562229859734        0.18647538134946       -0.78512570566970
C           -2.15186199382109       -0.29164022599718       -0.05952517554246
C           -1.03499023759246        0.39591445930351        0.57240957474866
C           -0.68751227438863        1.56269850050893       -0.06674095056046
C           -1.86710844645617        2.17133506725588       -0.91459650466439
C           -2.98218127306062        1.51171056931336       -1.19598148307500
C           -0.22686466743398       -0.02155841060659        1.67697006720491
C            1.07193031767637        0.38288314998031        1.83038875729819
C            1.38354424462316        1.51480699808821        0.99632232912933
N            0.51047035258291        2.07279345922416        0.06901041394208
C           -0.43119030279707       -1.20070793979602        2.44686717656637
C            0.68473791958558       -1.92278442037685        3.06841095100771
N            1.91802875453079       -1.49894493091866        3.02008739132145
C            2.18803370702616       -0.26654054632667        2.42744911810116
C            3.47346547201365        0.06929522305623        2.12578142008262
C            3.81323348794174        1.30009437531321        1.43973461087188
C            2.73811737025186        1.94707688059387        0.92076556683471
C           -1.77427355873204       -1.45040562934918        2.87286583381723
C           -1.86658848483838       -2.81769022493161        3.49228965660366
C           -0.74136813409968       -3.71216141860695        3.67839831100102
C            0.55101964571426       -3.16845511147601        3.64222364221845
O           -2.84530407413101       -0.54434099310637        3.01800104938242
O           -2.27074344895622       -1.49894663952395        0.47025623064398
C           -4.00787935793907        2.23199121990161       -1.92999170926966
C           -0.89843543948841       -5.10874752671525        4.32991721048265
H           -1.80191458366072        3.16713153536893       -1.26343796964265
H           -4.04032346557269       -0.38922543301357       -1.28474383226731
H            2.75326336929064        2.80232582975654        0.20005452919755
H            4.44235061026193       -0.47352239166525        2.25803857700720
H            1.47948352933016       -3.71693806773415        3.60843496876647
H           -2.83578979883647       -3.24394136783037        3.86581857340898
O           -4.63081556807022        3.11080225736258       -1.30684614315720
O           -4.33465322565433        1.78193250384322       -3.14371401909224
C           -4.93969657960748        2.80928345030417       -3.81000521416007
C            5.29806139451295        1.68364966323865        1.81144732491434
O            5.83703072831508        1.06545370741697        2.70565969357167
O            5.96288651714713        2.32945155146367        0.72079829557133
C            7.27014255759045        1.85495617393871        0.81801712213640
O           -1.61753357339806       -5.19877480950475        5.28997074978089
O            0.23787861951730       -5.98280442891026        4.32110210462827
C            0.67205674544437       -6.69578588273649        5.46119625732184
C           -4.24472289910010       -0.89836618158025        2.83234876512842
C           -2.90645511386664       -2.44688870849009       -0.48104998701640
H            0.01543469704481       -7.31938237145803        5.79725989625599
H            0.84536316189270       -5.98896823558668        6.21617777674368
H            1.51963366951300       -7.28137976721578        5.05705925387623
H            7.49805875641245        0.79883560152493        1.20415890626046
H            7.69872810802124        2.39470574750311        1.65309203869989
H            7.82693771974730        2.11493824764869       -0.14160583156430
H           -3.80986123296983       -2.06896104171589       -0.88761582109847
H           -3.08071120717482       -3.26807998563929        0.21874673473090
H           -2.11504137381962       -2.69560208169685       -1.11773070541690
H           -4.44770232741004       -2.01294144831042        2.85233649480212
H           -4.37913425168082       -0.49236567270882        1.78190517666159
H           -4.72332564551601       -0.49478100133930        3.60040748385116
H           -4.98184594156136        2.78757451652462       -4.89312456805232
H           -4.31692771187550        3.71570725410129       -3.51624160852748
H           -6.04438302285545        2.71091838289056       -3.76788075557511
C           -1.76018152442648        3.88080578485022        3.30800473937539
C           -2.31995276903977        2.86218775284365        4.00904323458367
C           -1.59456270850554        2.19291939454711        5.19269391945441
C           -0.17150019362039        2.53200294070661        5.16316411900650
C            0.22714733370121        3.77648185796834        4.74844411004019
C           -0.57810877344033        4.42135696238934        3.74618087619282
C           -2.16634820136691        0.98244285712460        5.77928408521911
C           -1.19775113304446        0.16305057395915        6.16294376301892
C            0.20479996184653        0.53109756476988        6.14886368088137
N            0.62628775364504        1.79237045571897        5.90334626002141
C           -3.51685504702474        0.34639491618830        6.12444504873570
C           -3.65271222936706       -1.08377667231114        6.28967106337883
N           -2.59749420283040       -2.00292968793585        6.41864011626226
C           -1.37825190468194       -1.31839373570967        6.48542872050355
C           -0.21588442239175       -2.10718197800894        6.48063031856829
C            1.08370218170625       -1.68161920801798        6.46796032179163
C            1.29890810701460       -0.30419834063169        6.45786037480042
C           -4.70755490226725        1.14247026943013        6.24468959254718
C           -5.91962522137870        0.57747485848624        6.38982034506716
C           -6.08309508921343       -0.77749299965977        6.38863380251965
C           -4.93695766192112       -1.55928471188457        6.43628529614123
O           -4.33716341491399        2.49403803757796        6.54551934019132
O           -3.32609925417512        2.22407397781903        3.32493607855723
C           -0.03787979451892        5.65845205417663        3.12697228911224
C           -7.14520891097786       -1.69337916136094        6.24490380136887
H            1.28759943043980        4.08565174721471        4.64246812535023
H           -2.25024879067639        4.00174739379172        2.34366757181582
H            2.14969778458774        0.26794435943915        6.74452136417795
H           -0.35250633451912       -3.19087057454541        6.51882279609395
H           -5.05213835691880       -2.49363158321390        6.25586845021358
H           -6.82345492626829        1.09087857351540        6.94126383028869
O           -0.60346963003377        6.12754626100790        2.08423642685419
O            1.05665827952353        6.29400074390937        3.77610722552896
C            1.10111270100594        7.40320897655003        2.97733221798657
C            2.27458901977117       -2.74843392112774        6.52167227343955
O            2.07821188248290       -3.94552040529505        6.37195309163377
O            3.56293825407963       -2.19148853533335        6.43804174382105
C            4.53424482069399       -2.95981407640359        7.09759371659654
O           -6.78079533990915       -2.90346182187109        6.44528230833372
O           -8.48530071694148       -1.36028645335745        5.91055665024615
C           -9.36796574746980       -2.41152698650337        5.73409642534370
C           -5.18905068866422        3.41206701098689        5.85184867222925
C           -4.16273560501098        2.99172496125695        2.47112563597629
H          -10.12177553039577       -2.24344336486036        6.61512039406890
H           -8.82030066439105       -3.37411940563338        5.74418598880568
H           -9.84452893862652       -2.22534571249470        4.83053102405717
H            4.16360610519759       -2.87534791516701        8.15107545471919
H            5.49962890105949       -2.66687927763459        7.22461833586308
H            4.66836905652340       -3.95501648761022        6.55971048481612
H           -3.99464247370100        3.99164779260325        2.10088107397166
H           -4.95628853599688        3.40334570505277        3.13568240243556
H           -4.69987578858419        2.34917615642707        1.84304191249545
H           -4.73816256807588        4.53305977525954        5.78566327931715
H           -6.05635714757971        3.60497058946612        6.55883427662383
H           -5.25964939679230        3.10462057809618        4.85512862777723
H            0.24017916642755        8.12787552083869        3.26098611221357
H            1.22190671657057        7.21466090163425        1.83727837180860
H            2.19618295090011        7.72293617629003        3.28925642805442
116
 energy: -22.579951474389 gnorm: 0.582904808630 xtb: 6.6.1 (8d0f1dd)
C           -2.92074030970945       -0.19832275235527       -1.12455253633576
C           -2.01318318753113       -0.80772115189548       -0.22135959118337
C           -1.43100269068378       -0.01536868466342        0.88295659056554
C           -1.27588793843170        1.29039568450478        0.48902220486248
C           -2.32641468462601        1.93486231389383       -0.27011302830519
C           -3.21759964340364        1.25565752585441       -0.96396625980065
C           -0.30857585129592       -0.48856060564365        1.74357085327593
C            0.77182840409013        0.27218154624685        1.94584441863885
C            0.82866563942465        1.61015619505402        1.51122180972483
N           -0.34588151700703        2.17771288178192        0.93116428680479
C           -0.36916100329529       -1.65459942362318        2.48185730053485
C            0.87492893026133       -2.20623664309820        2.98669714298771
N            1.91885296370757       -1.50907871328560        3.10624596077588
C            1.94608962376884       -0.37676589845421        2.54434473526165
C            3.14398743145533        0.41688430115690        2.27636227719960
C            3.25023331090205        1.75822993655622        1.81402253715982
C            1.99803530253569        2.36482820957493        1.69091453465830
C           -1.53829232390043       -2.45247354947613        2.79054884143253
C           -1.49091275714296       -3.77711538084749        3.05346570441205
C           -0.28406080763564       -4.29013001871254        3.43540457932390
C            0.76239002704299       -3.44637348988606        3.60927522392828
O           -2.78497722719402       -1.80069609931152        2.39084060529058
O           -1.57165093678303       -2.19584307552012       -0.20132618778165
C           -4.12639010909596        2.08139450190791       -1.87709793111051
C           -0.23348041310753       -5.44755246236126        4.50543454237236
H           -2.14644014973806        3.00269503274696       -0.50435107274806
H           -3.02014909607486       -0.74240783543242       -2.05255416424008
H            1.76293923374333        3.38528592022524        1.96858221473858
H            4.04498797985721        0.00682284221468        2.36871011797671
H            1.63738059688157       -3.75836902654634        4.15147143900371
H           -2.32700889586488       -4.36693751799761        2.90723941611401
O           -5.17531974240733        2.51356019231372       -1.45775851571975