116
 energy: -22.928061455056 gnorm: 0.329736929581 xtb: 6.6.1 (8d0f1dd)
C           -3.31122850772930        0.79849766164622       -0.92477639677520
C           -2.44380812530352       -0.12270372891954       -0.27661132624697
C           -1.41337090092821        0.39579727573559        0.56335275196199
C           -0.89266158675590        1.65801491088749        0.27377586709581
C           -1.72665675402493        2.51431363229076       -0.49448366572522
C           -2.95444148494349        2.13954154133227       -1.01494489940871
C           -0.74098268209890       -0.43411532818871        1.49825021926784
C            0.56872586496315        0.03782116815119        1.86248088067890
C            1.03782416582094        1.29402317993033        1.50887470833621
N            0.31238977034758        2.07067427098208        0.65193736800696
C           -1.29695700510141       -1.39996043042223        2.41574187746061
C           -0.38243517664656       -2.18060797534842        3.13232615520648
N            0.91308504082021       -1.90366887689689        3.30325166013478
C            1.37712470144904       -0.74872102533751        2.81811050966982
C            2.52149331701875       -0.17739833758153        3.39379298866852
C            2.95849061756259        1.02681208890480        2.95105897606587
C            2.24288949469137        1.78498308775960        2.03503020483770
C           -2.74860936222260       -1.74497937691422        2.38401158947411
C           -3.09416315450955       -2.91614440870436        3.00571134491758
C           -2.16786021984049       -3.77788778654213        3.63251872101904
C           -0.85708937311598       -3.40495313382985        3.68547234358092
O           -3.71994433332149       -0.94984598373544        1.67726658385724
O           -2.55702603277562       -1.47241711578389       -0.57241635275616
C           -3.84297843593025        3.13357444054366       -1.60938954875544
C           -2.68769581069131       -5.03867041417370        4.30484659386931
H           -1.39666850744143        3.51251503834900       -0.76806311868865
H           -4.27662633836220        0.55105838579656       -1.33106614114542
H            2.66329581305412        2.73912661909249        1.72562431984580
H            3.05775395548473       -0.69369546277216        4.16536137542516
H           -0.24710966264510       -4.12034095424229        4.22946223699121
H           -4.11477991332403       -3.04712728052358        3.03244694615357
O           -4.21824883374556        4.03433712717988       -0.87713382485991
O           -4.44510595673734        2.90643496899600       -2.81853501752979
C           -5.44216520282800        3.83300025693726       -3.02488532025093
C            4.23586651889298        1.50004220933226        3.59165660008449
O            5.05927614697201        0.66079890002952        3.91714215179376
O            4.47001334453535        2.86385149488593        3.72605651435371
C            5.79457498613219        3.08584475587818        4.15829123132174
O           -3.82227255313510       -5.27347675879771        4.16636005494405
O           -1.85023202017753       -5.79767454267276        5.06656077253571
C           -2.55119635829503       -6.86252441382958        5.62930343183426
C           -5.07197156564436       -1.42399175670916        1.58830531863830
C           -1.33089900128490       -2.23622472573986       -0.99264499351172
H           -2.54510546830388       -7.76426885143998        4.99136022291012
H           -3.57194749219491       -6.44405511486021        5.74196173723541
H           -2.09133598235598       -7.02043774843818        6.64022264233588
H            5.72707967266424        3.46798026205549        5.10135971236643
H            6.34060091246885        3.78468702308830        3.50069950143490
H            6.17933064298187        2.03010500085905        4.19342358084693
H           -0.91862729772622       -2.57650129080332       -0.01361370304871
H           -0.49769766914251       -1.60651221708571       -1.34094446550576
H           -1.52632419730509       -2.94569707152159       -1.75361447637286
H           -5.11788846557077       -2.41810833635233        1.17520213188926
H           -5.67929807973498       -0.69619639428435        1.04301666067831
H           -5.57598832326623       -1.42383358739762        2.57928294206544
H           -6.13050215934830        3.76035386975488       -2.23272855695873
H           -5.86615610071888        3.45938329385866       -4.02668959924245
H           -5.13479557532099        4.87790991548477       -2.98314551356402
C           -1.38192942069774        3.73616555005018        2.91232598411686
C           -1.84821468128685        2.59982427735607        3.49755545445181
C           -1.05946531454833        2.05730632010638        4.60922730982276
C            0.19893954712228        2.69376791964407        4.86302140881997
C            0.50425395911860        3.94630308659851        4.28768785650746
C           -0.26031777722226        4.46998310053134        3.25072669343212
C           -1.20488993561782        0.74454293276906        5.14851520323437
C           -0.06287609782692        0.02744069315890        5.60930570802864
C            1.19208754369866        0.71421540266195        5.78882868583885
N            1.19428660993148        2.06344359410476        5.62744624321596
C           -2.41361422770794        0.07928500213936        5.25249410304426
C           -2.45851584031083       -1.32662100968547        5.60237876023992
N           -1.29466212405906       -1.98318595734370        5.89916817085159
C           -0.14475655767527       -1.32117560077092        5.98824682881008
C            0.97209270935794       -1.98958449505532        6.53157704134458
C            2.21982707914082       -1.36973967291181        6.68703967237737
C            2.30561929262884       -0.09745313075593        6.26436900324455
C           -3.73018485967715        0.71367583494582        5.25810242262992
C           -4.89964478833448       -0.06184623426677        5.21204641615509
C           -4.82617965800088       -1.39228978090841        5.46901303780036
C           -3.67144193418464       -1.98914944386360        5.67265433266067
O           -3.75568638935321        2.07705011038914        5.52067969627343
O           -2.94192434743730        1.91263938797883        3.01658762327703
C            0.21273512614467        5.50086066357994        2.34765104514621
C           -6.06660304520411       -2.17604633098929        5.80641622556876
H            1.41756699010566        4.38133362238595        4.66974005703471
H           -1.82880610647429        4.11982501512100        2.06992133318584
H            3.26888037378556        0.32655662585251        6.31721410015598
H            0.87146188387207       -3.08471526305024        6.57830423410869
H           -3.67716811065157       -3.05999292755990        5.83019634570050
H           -5.77379677507622        0.43595144608221        4.71017130754348
O            1.34459852619901        5.82615848916894        2.44941456579099
O           -0.74718748219123        6.07961784856304        1.59848183464284
C           -0.21473095568964        7.24015934882472        1.05753806029483
C            3.53228080814219       -2.00967610361154        7.02506769044485
O            3.64093082622715       -3.14437803815732        7.50071391725347
O            4.56565258381079       -1.22937033368332        6.69086985080897
C            5.72579357310716       -1.80692399125161        7.22246151275881
O           -7.04801223588612       -1.95726935745904        5.14194115322235
O           -6.01514389321278       -2.93743591896022        6.94765316328794
C           -7.21292732384718       -3.62681918543340        7.15115816329978
C           -4.95459780685163        2.65960679932188        5.86868674392943
C           -3.68284113682406        2.59129188358641        2.05479246020704
H           -7.43119628931628       -4.22607794725959        6.20622607140901
H           -8.06548455146707       -2.91765848248592        7.29781126410398
H           -7.07314693247270       -4.33087306029711        7.91223421050944
H            6.57332189837178       -1.29353136199234        6.78341268688262
H            5.74663761932316       -2.84282155125561        6.88089468184451
H            5.69426191474290       -1.72781984964892        8.29460302186842
H           -4.10481209541493        3.44288266176275        2.60483747673152
H           -4.49244774344916        1.87419893016926        1.82433103764650
H           -3.18901540870812        2.85154642679373        1.06781919454921
H           -5.55414326821421        2.76698137191684        4.93950725322359
H           -4.78658370641210        3.62090640967288        6.25983200635257
H           -5.43485580473958        1.97242995129449        6.65265772412460
H            0.89164886030839        7.38838561720231        1.13776105146914
H           -0.62894889903848        8.04195665205089        1.64837664327952
H           -0.59282546386754        7.45699159724320        0.03719083132488
116
 energy: -22.792584297664 gnorm: 0.416706341480 xtb: 6.6.1 (8d0f1dd)
C           -3.17989223822085        0.71346356833853       -0.93625183965179
C           -2.41184554011050       -0.27571044648252       -0.22589480439116
C           -1.38622346821030        0.22843134407218        0.67826725555051
C           -0.93153146173592        1.55596966705110        0.46654088660412
C           -1.55140872931931        2.41690731486331       -0.47147955161787
C           -2.61847545688485        1.97223038981374       -1.22323696442332
C           -0.66495451543015       -0.58967550192324        1.61794647351280
C            0.63306120586920       -0.24201064198691        2.00191373799603
C            1.13591221461661        1.03649107625720        1.54852895847514
N            0.38916982287475        1.94527353442386        0.81342093309794
C           -1.02740886177907       -1.76961374966269        2.25470505921181
C           -0.07455357391176       -2.68959682026459        3.01640456678491
N            1.19163602418625       -2.26707168876046        3.23298080488214
C            1.53545896012886       -1.07863147910599        2.74032557236929
C            2.90869446243241       -0.62118817329380        2.89530868978382
C            3.30667360794561        0.65426653996686        2.56622886357610
C            2.36935300268001        1.50051214842715        2.00723776919779
C           -2.33341899418338       -2.26799369697646        2.33824829670961
C           -2.76878075541547       -3.54489606366961        2.80108384670375
C           -1.87002106002852       -4.34225963766198        3.48386119857983
C           -0.56017771241518       -3.86202072651723        3.65146854007098
O           -3.27938104632310       -1.30101835762270        2.10485513296908
O           -2.60124388613022       -1.72003308347718       -0.44494001599106
C           -3.43172784300563        2.83841539498111       -2.02893863284283
C           -2.37257464150797       -5.60402282625984        4.18890707007827
H           -0.87081782307236        3.22714720069994       -0.83616311649368
H           -4.06978720030805        0.22839236279465       -1.44058182934119
H            2.78300160062211        2.42164725558604        1.75507588887872
H            3.64167775565637       -1.16903200226633        3.42335442087776
H            0.12059114562929       -4.35981784662161        4.28922188636291
H           -3.74218354601170       -3.87509934055132        2.73395322563492
O           -3.08706965907308        4.02170161664837       -2.05644637990491
O           -4.48722692275844        2.37320677547090       -2.74255174649974
C           -5.07391764603700        3.45104246940668       -3.30967992620416
C            4.47478766268327        1.15533652393652        3.31071957716010
O            5.56368803886159        0.61868588255871        3.21030532677913
O            4.33566991235657        2.39063437384556        3.85879235590030
C            5.27800901873212        2.66955933918896        4.74868160606003
O           -3.53457513457737       -5.97196926459807        4.46481364235601
O           -1.29193434000504       -6.32951783754826        4.63753752057548
C           -1.66087505719735       -7.54430360705311        5.28326551276696
C           -4.57052892827571       -1.51108351618436        2.42681089401629
C           -1.70981755722592       -2.64038316998725       -0.77893809296620
H           -2.45302773704546       -7.93565124002954        4.73624402341983
H           -1.98231301300180       -7.35001900343078        6.32265696679106
H           -0.78714991912228       -8.21519863320007        5.26841276634480
H            5.62021801071789        3.69889819759487        4.57918854403133
H            6.05669420671927        1.94895269056859        4.41500814187347
H            5.04524156130415        2.36641184970218        5.79611549851305
H           -1.81009825639043       -3.34071902120953        0.03560281660870
H           -0.71902973461114       -2.06906069833236       -0.87398193029389
H           -2.03114024338416       -3.10756896662343       -1.73869058592647
H           -5.24524772415462       -2.04363081204734        1.69510603976694
H           -5.09237412002512       -0.58496172032173        2.60118744282285
H           -4.55605423939306       -2.09274145386771        3.40915535538609
H           -4.66533070592020        4.59468140708383       -3.36684464391488
H           -5.89034672877959        3.53659344546502       -2.64056925432977
H           -5.45743073265698        3.27359254245256       -4.32235760705510
C           -2.00863983412743        4.46524265372069        3.61212163889569
C           -2.23595577278625        3.12943725167915        4.08241975448610
C           -1.18888860651747        2.46958426796520        4.80416924206335
C            0.09308966170660        3.07377472357323        4.98044462538772
C            0.31367476169063        4.30422432878606        4.37493879665015
C           -0.69885112835319        5.01663199454094        3.65909660040088
C           -1.38452519192853        1.11192377191463        5.20157240280447
C           -0.20580977027538        0.37058516400913        5.42986080097679
C            1.07712494399969        1.04492849772406        5.46723250442583
N            1.28329589106602        2.37416728853445        5.27623476492803
C           -2.69842808305370        0.42024090218012        5.53015717203710
C           -2.69532008395437       -1.00888435939895        5.70218296066131
N           -1.55750537617015       -1.67757246639924        5.83724292616670
C           -0.36479818428690       -1.06328033463783        5.71519581170043
C            0.89227373315299       -1.74535263393079        5.87367766711405
C            2.14905875750937       -1.12984377969965        5.84682086858335
C            2.22539732698823        0.27003876754074        5.63470716713732
C           -3.82437403133800        1.26098278217452        5.93249475208122
C           -5.05362219698246        0.54585380510814        5.98892035008829
C           -5.09825608744011       -0.80870423540807        5.75479543286575
C           -3.96639647597521       -1.61669162185059        5.71618263901085
O           -3.84683767916912        2.68271104663262        6.28537516184848
O           -3.50972307651921        2.71679096113234        3.77586682287920
C           -0.33777604233134        6.14827209022810        2.75936307390424
C           -6.41365781590780       -1.45088582613018        5.96693618669737
H            1.25328359732049        4.71428026814416        4.56881006583564
H           -2.71221437922205        5.08342520856949        3.13895063486266
H            3.20496106424297        0.58250644862009        5.45159883320499
H            1.01904933566068       -2.71453663399776        6.31626961743768
H           -4.19329346560812       -2.63148762743265        5.54243115835448
H           -6.00210574429026        1.04515235370275        6.29473718594376
O            0.59816981476232        6.85379940638371        3.24601062054214
O           -1.13764911947389        6.33433995776707        1.65284857428465
C           -0.51642224940210        7.18802017048018        0.74973359794689
C            3.38760216988260       -1.96846208172297        6.34362362253961
O            3.33890872941126       -3.20911600443124        6.14596076236510
O            4.53852798370275       -1.27137174356040        6.77733561386105
C            5.58251362427132       -2.15769427739596        6.95526924432857
O           -7.35028684981885       -0.75729779603076        6.36596580549934
O           -6.52654391892195       -2.77655609420541        5.68384686738574
C           -7.87311749379189       -3.10165957744395        5.97682942258121
C           -4.92471572179123        3.39773117625712        6.77001364162207
C           -3.53234354778562        2.14289207741364        2.44752835528556
H           -8.57231582421952       -2.69571411277485        5.27528168642359
H           -8.26403207958020       -2.89260651620579        7.06142512203423
H           -8.14425209142191       -4.28224140491957        6.18011936896426
H            5.18304186569760       -2.97088932117972        7.52243009319714
H            6.38368014202402       -1.76132372438419        7.63828566316635
H            5.92520850776143       -2.68749142968543        6.02999913906623
H           -2.81296659729478        2.80347001439814        1.81934264460462
H           -4.50708319526772        1.96072738412391        1.92006498150238
H           -2.93675944135308        1.15978252033370        2.44402409314546
H           -5.71649158934557        3.47563785965373        6.09126935801288
H           -4.56466716965536        4.36347278594119        7.06510653955052
H           -5.33547207325553        2.83498705700153        7.59710166932098
H            0.45564567304448        7.61626713619352        1.12797249343171
H           -1.34633793849877        7.95684966743233        0.48345645985349
H            0.02796174882926        6.51301296239846       -0.02064100627630
116
 energy: -22.815661534599 gnorm: 0.382834086351 xtb: 6.6.1 (8d0f1dd)
C           -2.67222797779842        0.39166484399501       -0.81405071147786
C           -1.80901627384544       -0.45318226387351       -0.03017962242705
C           -0.98376555890596        0.12770898388891        0.95091394055944
C           -0.78897523442705        1.50681260794174        0.94109904896869
C           -1.41491479351499        2.26164583734436       -0.00229988552404
C           -2.39223245090876        1.77499391399416       -0.82319813777249
C           -0.39042164283309       -0.66691859469280        2.03451432152496
C            0.79477278649077       -0.13788247458580        2.55594032275280
C            1.15677141049372        1.21662081257863        2.23659623530880
N            0.25423130568504        1.99853947467814        1.57654295665922
C           -0.79824481651272       -1.94900956465446        2.54857712794467
C            0.22960622203741       -2.71256674575575        3.27616132736042
N            1.53489109148700       -2.22613211088847        3.45738571257281
C            1.80249500617033       -1.03696250323976        3.03468299743591
C            3.11927772531816       -0.60899118899938        2.95442366187239
C            3.41239756409878        0.65912653267362        2.56320858484261
C            2.43858853508372        1.66360939459901        2.38492957117600
C           -2.21253709746882       -2.35867495374790        2.68191990567578
C           -2.47125762634800       -3.66183604314887        3.15266500555841
C           -1.46929550618176       -4.50434391491170        3.58094276628800
C           -0.11883652752228       -4.05133162473192        3.66078852649460
O           -3.18051249921205       -1.42538048724546        2.37440184183875
O           -1.80697357978298       -1.86446084362761        0.00424339565432
C           -3.15551796859706        2.63070401780947       -1.70134952177444
C           -1.72702808041286       -5.97001920746189        3.93648530331177
H           -1.07358534742756        3.25596911204521        0.15781905671029
H           -3.66856224441127        0.24225155453428       -1.29190178490301
H            2.50813994680501        2.77825324042760        2.47285642303283
H            3.85470869502226       -1.39654637721696        2.92958511805142
H            0.55442623516286       -4.63753330609738        4.11348191914169
H           -3.45041213919978       -4.06122596699108        3.17615994532795
O           -2.87479791486139        3.79575236597169       -1.64608793024377
O           -4.26222831343663        2.05147714561685       -2.34831443138788
C           -4.84584542543794        3.08442739833031       -3.07038179974745
C            4.85651639220899        1.02372771350889        2.41185459208174
O            5.53763078254286        1.23613409325406        3.36363740737719
O            5.24836614342082        1.09188086231297        1.06938447400714
C            6.44249229624936        1.91576509357144        0.92969851677717
O           -2.91019863274810       -6.28581735769772        3.95838514800628
O           -0.62702388225839       -6.66285016442025        4.26527014821577
C           -0.88906362010190       -7.95847689308159        4.81715904110790
C           -4.45051888361539       -1.89030073887514        2.83619602751914
C           -1.76633272642437       -2.38175474629958       -1.30038607016687
H           -0.09722113853746       -8.68096122829614        4.42276466783354
H           -1.90262949188829       -8.34647984813226        4.46548111450312
H           -0.88102760461648       -7.80739589406405        5.88912024155297
H            6.34241008604954        2.79176952937302        0.32778271122210
H            7.11415654579737        1.30498738422455        0.31759630906813
H            6.82650811653778        2.18692629124031        1.91323524792837
H           -2.88710827460070       -2.30975231286310       -1.72320725104983
H           -1.39887704778997       -3.35827664263151       -1.27698918206618
H           -0.94469630207175       -1.96117867398373       -1.91686062802984
H           -4.95704983462718       -2.44675832411025        2.00943794890425
H           -5.22502164559171       -1.07979200440582        2.96098123430235
H           -4.41201110424955       -2.57069946457462        3.75784187876508
H           -4.82364902341285        2.74271295898025       -4.09140797604678
H           -4.11668220185732        3.88389945520024       -3.21491675576684
H           -5.82855342740600        3.55218541995974       -2.69715744475834
C           -2.17027699905538        4.57658435455638        3.50860075097961
C           -2.44851017626458        3.31864015306904        4.03048532103161
C           -1.48271537318080        2.54428790796880        4.84019724491151
C           -0.08078438410517        2.93265480848765        4.75694183961384
C            0.16075010408412        4.16788337137494        4.03704015207418
C           -0.79138579797504        4.96099090444025        3.45469552480351
C           -1.75451617374719        1.38113531803993        5.64461796494454
C           -0.64370661545222        0.67654912102266        6.02583878133675
C            0.71921530390809        1.16466066935276        5.89573259764193
N            0.96592369403187        2.25155480787630        5.23441354084523
C           -2.92667403495428        0.59674919618598        5.88220028434474
C           -3.00527824735347       -0.79955800455281        6.06989659977534
N           -1.90348344705872       -1.52765555297216        6.13352231653139
C           -0.75607134331098       -0.76969491193606        6.21613914724012
C            0.35254203887341       -1.46881432637491        6.67918127766084
C            1.67129459806146       -0.96523069783847        6.69142231224284
C            1.82862964811021        0.35464230148662        6.22467806841711
C           -4.10506839895541        1.39021013977954        6.30834078752468
C           -5.35622613612439        0.81436933443291        6.15263722289474
C           -5.40992967166807       -0.56004046904137        6.04347181338018
C           -4.33840781596575       -1.37755818452235        6.04577223765372
O           -3.86020149777628        2.70070672959305        6.58053248633973
O           -3.76940497713597        2.77286575346951        3.68985686227917
C           -0.44029726174919        6.17115708807793        2.78801051734056
C           -6.82297979718514       -1.05020191510450        5.63923382016875
H            1.12188533621433        4.54356701855796        3.87941487517890
H           -2.90758219033807        5.20090759513887        3.12787857777236
H            2.79474685390925        0.68373441632980        5.93566071841775
H            0.09068950821088       -2.47493537241102        7.03200987793317
H           -4.55463127307776       -2.36315640049150        5.79014590728921
H           -6.27071093146072        1.28912574236194        5.85039378746896
O            0.67766440541671        6.36519277128293        2.36559504784431
O           -1.55993937731340        7.01867330396546        2.67798377479848
C           -1.09230022058290        8.22157684377768        2.14812325681235
C            2.75924351466466       -1.95659088437503        6.99379980603288
O            2.70292861377990       -2.84194940691413        7.85128993437679
O            3.93568813768002       -1.45835308030031        6.39700074198134
C            5.04671675176919       -2.32167205927586        6.60264617722926
O           -7.72245922378235       -0.53521590927025        6.28356719407530
O           -6.93188758564406       -1.88187754022571        4.44641278517595
C           -8.25997826478800       -2.23701295188030        4.22551933689541
C           -5.12220424369815        3.35235249484957        6.49126237899268
C           -3.74864019847557        1.57873592426940        2.95247828869823
H           -8.89179041822873       -1.37234143537795        4.42035189574256
H           -8.51145516435008       -3.15411330080009        4.81505797291844
H           -8.46433183551435       -2.60816504711883        3.18578290379879
H            5.62831012472643       -1.97384743258905        7.54324909489364
H            5.75670838031073       -2.17627240533416        5.85953844502219
H            4.66942314002895       -3.43446760076765        6.70840011418212
H           -4.32589158534094        0.61461347063989        3.36799005627481
H           -2.72402077447433        1.22858398384027        2.75108401454275
H           -4.29292179640661        1.82313165572487        2.02795045572151
H           -5.55190689581292        3.18354107134668        5.48054221426017
H           -4.71030549293989        4.43144465359001        6.46024902770305
H           -5.94286963425711        3.28379732539086        7.23498742547133
H           -0.04002086467477        8.12112974319869        1.94190216862063
H           -0.99994190363600        8.99988347807310        2.82560311616440
H           -1.67861065548619        8.50333299580290        1.31149609140689
116
 energy: -22.843303943693 gnorm: 0.366994819365 xtb: 6.6.1 (8d0f1dd)
C           -2.63597883257196        0.34766027789094       -0.91372664669774
C           -1.93606989323054       -0.53105428774243       -0.04097301478663
C           -0.82596790231646        0.01665933206187        0.73305548068513
C           -0.24801480201119        1.26953259002249        0.46454898778312
C           -1.08930322675366        2.14552798144655       -0.23856806327455
C           -2.37860985370188        1.69212833893723       -0.67728067415542
C           -0.13494164651371       -0.75446056346905        1.76301712606982
C            1.19170365577574       -0.31555071318881        2.07487346852044
C            1.66272023565405        0.95316732223151        1.59636369256108
N            0.83007177654528        1.88675761014676        0.97586926148653
C           -0.60793423424119       -1.90766610356686        2.49844201428030
C            0.41164699655494       -2.64734533227578        3.18257875824364
N            1.81252951361651       -2.49949236421220        2.91168849214407
C            2.15160529296140       -1.24208705972660        2.61179698346851
C            3.48994674914170       -0.82795547965950        2.75370925896929
C            3.88506558871426        0.49020527833875        2.38237630627281
C            2.96115500952738        1.46418395425321        1.92900965130734
C           -2.01959603576832       -2.28918961626014        2.65570073753911
C           -2.17427492164910       -3.56689086973946        3.09411153542742
C           -1.19335532833968       -4.26348540942692        3.77570339481962
C            0.09507385828635       -3.80143342734620        3.91225936655510
O           -3.07070055123190       -1.38793197225192        2.51996744233924
O           -1.92386401971017       -1.92475864270616       -0.01096311316300
C           -3.38798900061631        2.66617292005592       -1.19164722571415
C           -1.50436274632942       -5.55878476189085        4.33301491913359
H           -0.67110085322547        3.12401928445615       -0.29491640730022
H           -3.48366755432469       -0.02733779858751       -1.36407911841116
H            3.10729620899098        2.47748795490549        1.41679033706877
H            4.32719668130492       -1.42680134688416        3.07432699145681
H            0.77960450684737       -4.23512230504435        4.55931429931513
H           -3.06602743947760       -4.17604722396451        3.06519057703494
O           -3.21615785892287        3.87584352046545       -1.06659090274123