192
 energy: -249.242092049046 gnorm: 0.084594280757 xtb: 6.7.1 (edcfbbe)
C            0.07580000000000        3.11250000000000       -3.78410000000000
C            1.87190000000000       -1.50270000000000        1.75410000000000
C           -4.36300000000000        1.34530000000000       -2.14930000000000
C           -3.41560000000000        0.63860000000000       -1.41410000000000
C           -2.07160000000000        1.13270000000000       -1.39290000000000
C           -1.68670000000000        2.09080000000000       -2.36520000000000
C           -2.68800000000000        2.76690000000000       -3.06690000000000
C           -4.02650000000000        2.43980000000000       -2.93380000000000
C           -1.09320000000000        0.68230000000000       -0.44120000000000
C            0.27730000000000        0.80400000000000       -0.78750000000000
C            0.66240000000000        1.60980000000000       -1.88930000000000
N           -0.32150000000000        2.28790000000000       -2.62550000000000
C           -1.42500000000000        0.09860000000000        0.83290000000000
C           -0.47530000000000       -0.77550000000000        1.42900000000000
N            0.86360000000000       -0.71950000000000        1.01740000000000
C            1.26180000000000        0.09790000000000       -0.05010000000000
C            2.59110000000000        0.19290000000000       -0.45620000000000
C            2.98760000000000        0.99210000000000       -1.51540000000000
C            2.01670000000000        1.70220000000000       -2.20370000000000
C           -2.66070000000000        0.32070000000000        1.53350000000000
C           -3.04930000000000       -0.63180000000000        2.47450000000000
C           -2.22480000000000       -1.68770000000000        2.84780000000000
C           -0.91790000000000       -1.68330000000000        2.39290000000000
O           -3.51510000000000        1.42420000000000        1.37490000000000
O           -3.70450000000000       -0.55780000000000       -0.75570000000000
H           -5.38790000000000        1.02980000000000       -2.11900000000000
H           -2.41280000000000        3.58730000000000       -3.69990000000000
H           -4.01740000000000       -0.51190000000000        2.92270000000000
H           -0.25030000000000       -2.44820000000000        2.74070000000000
H            3.33910000000000       -0.39130000000000        0.04330000000000
H            2.32060000000000        2.34200000000000       -3.00760000000000
C            2.12560000000000       -2.85920000000000        1.11360000000000
C            3.22640000000000       -3.64450000000000        1.80710000000000
C            0.40670000000000        4.54180000000000       -3.38310000000000
C            0.82600000000000        5.40030000000000       -4.56460000000000
C           -2.90840000000000        2.61920000000000        0.91590000000000
C           -5.07370000000000       -0.80120000000000       -0.53610000000000
C           -5.13870000000000        3.22580000000000       -3.64430000000000
C           -5.86870000000000        2.29890000000000       -4.63260000000000
C           -6.13330000000000        3.75190000000000       -2.59220000000000
C           -4.57940000000000        4.43060000000000       -4.42560000000000
C           -2.72460000000000       -2.87610000000000        3.68430000000000
C           -2.47660000000000       -4.17930000000000        2.90070000000000
C           -4.23280000000000       -2.76690000000000        3.97090000000000
C           -1.96920000000000       -2.93330000000000        5.01910000000000
C            4.46890000000000        1.02430000000000       -1.92560000000000
C            4.72750000000000        2.03650000000000       -3.05900000000000
C            4.88370000000000       -0.37480000000000       -2.41660000000000
C            5.33300000000000        1.42370000000000       -0.71540000000000
H            5.92770000000000       -0.38540000000000       -2.72920000000000
H            4.27350000000000       -0.68110000000000       -3.26600000000000
H            4.76220000000000       -1.12100000000000       -1.63210000000000
H            5.78520000000000        2.06140000000000       -3.32090000000000
H            4.43800000000000        3.04350000000000       -2.75910000000000
H            4.17470000000000        1.76950000000000       -3.95940000000000
H            6.38280000000000        1.50500000000000       -0.99640000000000
H            5.26250000000000        0.68620000000000        0.08280000000000
H            5.01490000000000        2.38660000000000       -0.31630000000000
H           -2.25980000000000       -3.80810000000000        5.60000000000000
H           -2.19490000000000       -2.05200000000000        5.61370000000000
H           -0.89170000000000       -2.96990000000000        4.86660000000000
H           -4.58140000000000       -3.62360000000000        4.54710000000000
H           -4.80590000000000       -2.72940000000000        3.04480000000000
H           -4.45240000000000       -1.87150000000000        4.54850000000000
H           -5.38480000000000        4.98970000000000       -4.90170000000000
H           -3.89570000000000        4.10780000000000       -5.21040000000000
H           -4.04960000000000        5.11540000000000       -3.76350000000000
H           -6.92660000000000        4.33360000000000       -3.06110000000000
H           -5.62630000000000        4.39220000000000       -1.87050000000000
H           -6.59970000000000        2.93490000000000       -2.04310000000000
H           -6.65230000000000        2.83720000000000       -5.16540000000000
H           -6.33300000000000        1.45820000000000       -4.11880000000000
H           -5.17300000000000        1.89800000000000       -5.36930000000000
H           -2.86040000000000       -5.04120000000000        3.44610000000000
H           -1.41360000000000       -4.34260000000000        2.72800000000000
H           -2.97240000000000       -4.14390000000000        1.93090000000000
H            1.55980000000000       -1.61050000000000        2.79640000000000
H            2.79390000000000       -0.92340000000000        1.81350000000000
H            2.37240000000000       -2.71360000000000        0.05390000000000
H            1.19090000000000       -3.43460000000000        1.10520000000000
H            4.17890000000000       -3.11290000000000        1.76330000000000
H            3.37920000000000       -4.62600000000000        1.35220000000000
H            2.99470000000000       -3.80360000000000        2.86150000000000
H           -3.28460000000000        2.85840000000000       -0.07820000000000
H           -1.82420000000000        2.52310000000000        0.88370000000000
H           -3.17130000000000        3.43740000000000        1.58340000000000
H           -5.17080000000000       -1.66920000000000        0.11670000000000
H           -5.57450000000000       -1.01190000000000       -1.48130000000000
H           -5.52410000000000        0.06170000000000       -0.04350000000000
H           -0.71810000000000        3.09350000000000       -4.53490000000000
H            0.92090000000000        2.64180000000000       -4.29270000000000
H            1.19650000000000        4.52790000000000       -2.62070000000000
H           -0.46220000000000        4.98310000000000       -2.87770000000000
H            1.71080000000000        4.99010000000000       -5.05560000000000
H            1.06100000000000        6.42450000000000       -4.26570000000000
H            0.03530000000000        5.45030000000000       -5.31590000000000
C           -0.30200000000000        3.12820000000000        3.32860000000000
C            1.99320000000000       -2.88140000000000        6.97810000000000
C           -4.49900000000000        1.24880000000000        5.43910000000000
C           -3.49040000000000        0.39590000000000        5.87340000000000
C           -2.12890000000000        0.79010000000000        5.67600000000000
C           -1.86080000000000        1.89610000000000        4.82970000000000
C           -2.91990000000000        2.73060000000000        4.46260000000000
C           -4.23450000000000        2.43790000000000        4.77820000000000
C           -1.02190000000000        0.07640000000000        6.25250000000000
C            0.24650000000000        0.18620000000000        5.62730000000000
C            0.48650000000000        1.22180000000000        4.69210000000000
N           -0.55830000000000        2.08600000000000        4.34010000000000
C           -1.12310000000000       -0.77540000000000        7.41040000000000
C           -0.20140000000000       -1.85060000000000        7.53330000000000
N            1.00500000000000       -1.79700000000000        6.81770000000000
C            1.28320000000000       -0.72510000000000        5.95310000000000
C            2.54130000000000       -0.52860000000000        5.38540000000000
C            2.81300000000000        0.52380000000000        4.52530000000000
C            1.77510000000000        1.37650000000000        4.18660000000000
C           -2.10870000000000       -0.61570000000000        8.44050000000000
C           -2.38230000000000       -1.70680000000000        9.26160000000000
C           -1.64060000000000       -2.87900000000000        9.20600000000000
C           -0.52630000000000       -2.90930000000000        8.38570000000000
O           -2.79160000000000        0.58210000000000        8.71550000000000
O           -3.78130000000000       -0.86340000000000        6.40810000000000
H           -5.51990000000000        0.95330000000000        5.58160000000000
H           -2.70740000000000        3.63740000000000        3.93270000000000
H           -3.17900000000000       -1.59790000000000        9.97250000000000
H            0.07920000000000       -3.79480000000000        8.38220000000000
H            3.34360000000000       -1.18820000000000        5.64640000000000
H            1.98280000000000        2.20580000000000        3.54080000000000
C            1.84320000000000       -3.93690000000000        5.89290000000000
C            2.92150000000000       -5.00500000000000        5.95310000000000
C            0.24940000000000        4.40690000000000        3.93890000000000
C            0.54150000000000        5.47040000000000        2.89380000000000
C           -2.00580000000000        1.74960000000000        8.57700000000000
C           -5.03430000000000       -0.96050000000000        7.04960000000000
C           -5.40310000000000        3.31590000000000        4.30660000000000
C           -6.06820000000000        2.63740000000000        3.09610000000000
C           -6.43400000000000        3.47690000000000        5.44180000000000
C           -4.92980000000000        4.72560000000000        3.90080000000000
C           -1.99320000000000       -4.11260000000000       10.04950000000000
C           -2.17660000000000       -5.32560000000000        9.11750000000000
C           -3.30190000000000       -3.90840000000000       10.83690000000000
C           -0.85650000000000       -4.39060000000000       11.04850000000000
C            4.25580000000000        0.82010000000000        4.08240000000000
C            4.28240000000000        1.66690000000000        2.79330000000000
C            5.03480000000000       -0.48460000000000        3.81880000000000
C            4.95510000000000        1.60400000000000        5.20630000000000
H            6.02290000000000       -0.26920000000000        3.41240000000000
H            4.51180000000000       -1.11670000000000        3.10460000000000
H            5.18090000000000       -1.05730000000000        4.73340000000000
H            5.30140000000000        1.77330000000000        2.42200000000000
H            3.89930000000000        2.67160000000000        2.96760000000000
H            3.68390000000000        1.20580000000000        2.00930000000000
H            5.98410000000000        1.84120000000000        4.93700000000000
H            4.97110000000000        1.02620000000000        6.13010000000000
H            4.43310000000000        2.53930000000000        5.40730000000000
H           -1.08760000000000       -5.25420000000000       11.67170000000000
H           -0.70160000000000       -3.53320000000000       11.70310000000000
H            0.08210000000000       -4.59210000000000       10.53370000000000
H           -3.55990000000000       -4.80650000000000       11.39790000000000
H           -4.13160000000000       -3.68780000000000       10.16550000000000
H           -3.20800000000000       -3.09150000000000       11.55190000000000
H           -5.77940000000000        5.36050000000000        3.64990000000000
H           -4.28250000000000        4.69530000000000        3.02640000000000
H           -4.38650000000000        5.20310000000000        4.71600000000000
H           -7.23780000000000        4.14970000000000        5.14380000000000
H           -5.96260000000000        3.88940000000000        6.33360000000000
H           -6.88960000000000        2.52540000000000        5.71130000000000
H           -6.88700000000000        3.24210000000000        2.70710000000000
H           -6.46850000000000        1.66120000000000        3.36790000000000
H           -5.34670000000000        2.48450000000000        2.29460000000000
H           -2.45920000000000       -6.21320000000000        9.68330000000000
H           -1.25930000000000       -5.55500000000000        8.57690000000000
H           -2.95750000000000       -5.13040000000000        8.38270000000000
H            1.90170000000000       -3.32460000000000        7.97240000000000
H            3.00150000000000       -2.46260000000000        6.97570000000000
H            1.85090000000000       -3.44050000000000        4.91410000000000
H            0.84750000000000       -4.39290000000000        5.96840000000000
H            3.91540000000000       -4.56860000000000        5.83480000000000
H            2.79780000000000       -5.75770000000000        5.17100000000000
H            2.90970000000000       -5.52360000000000        6.91380000000000
H           -2.31480000000000        2.47300000000000        9.33190000000000
H           -2.15920000000000        2.18600000000000        7.59100000000000
H           -0.95030000000000        1.51410000000000        8.71860000000000
H           -5.05590000000000       -1.88260000000000        7.63110000000000
H           -5.84020000000000       -0.98800000000000        6.31620000000000
H           -5.16060000000000       -0.11380000000000        7.72580000000000
H           -1.22000000000000        3.33750000000000        2.78070000000000
H            0.37220000000000        2.72900000000000        2.56560000000000
H            1.15560000000000        4.17450000000000        4.51300000000000
H           -0.46350000000000        4.78530000000000        4.68320000000000
H            1.27470000000000        5.11650000000000        2.16620000000000
H            0.93500000000000        6.38730000000000        3.33880000000000
H           -0.36040000000000        5.73490000000000        2.33810000000000
192
 energy: -249.258122017093 gnorm: 0.038344142944 xtb: 6.7.1 (edcfbbe)
C            0.07190228875128        3.10192016505858       -3.76689240680917
C            1.85858403245109       -1.49533838725918        1.74272227044079
C           -4.36008855220594        1.34451842204821       -2.15824086273842
C           -3.41228408880738        0.65039505746991       -1.42219072403548
C           -2.06764747723594        1.11620697681156       -1.40054092737730
C           -1.68165852185879        2.06900275787233       -2.37548711303406
C           -2.67422196425465        2.76402224677499       -3.06814996687588
C           -4.01963285802655        2.44699616989158       -2.93365779376178
C           -1.09552981049711        0.67463019077293       -0.44368316942872
C            0.27549242372091        0.79613205252268       -0.79132912324764
C            0.65924011691398        1.60299043306861       -1.89030558538636
N           -0.32183200927028        2.28330929391277       -2.61940398308048
C           -1.41840032711201        0.10015660632257        0.83026596795438
C           -0.47297168379663       -0.77191272082900        1.42773346888276
N            0.85943237280384       -0.72019915688602        1.01131207526081
C            1.25875316758264        0.09163668835824       -0.05274072189896
C            2.58871410795127        0.18491396591609       -0.45619619359741
C            2.98311025862130        0.98999032040521       -1.51833908217948
C            2.01140541336032        1.70563499554064       -2.20578489105547
C           -2.63787530393687        0.30600273903138        1.52904586805070
C           -3.04298084043485       -0.62832459494493        2.47225952873247
C           -2.23007607096158       -1.69622446902123        2.83291145381729
C           -0.91459470598825       -1.68460004945482        2.38283878951591
O           -3.48099514907694        1.39543620227752        1.34666928561297
O           -3.70004203041574       -0.52090389104630       -0.74989460295286
H           -5.38835915344508        1.02993162167630       -2.12724531434015
H           -2.39502742817078        3.58293223095452       -3.70338438486535
H           -4.01390308731609       -0.49465184845875        2.91641507567820
H           -0.24295429147223       -2.44334038701744        2.74305823466644
H            3.34167753709476       -0.39482307910669        0.04629028982014
H            2.31549212257914        2.34576778879121       -3.01088137801731
C            2.11826285189222       -2.85880964424693        1.10401521438437
C            3.22198120413882       -3.63552542074836        1.80799639514922
C            0.40427041000351        4.53933528701495       -3.37140646105361
C            0.82247092576776        5.38910709119392       -4.56294299327232
C           -2.91059345762472        2.61340950307886        0.90872488251620
C           -5.06430213604884       -0.79267088418115       -0.53302254340646
C           -5.12886242378875        3.22703700464461       -3.64202457200944
C           -5.86107668448889        2.30194198525295       -4.62744030540719
C           -6.12532436337533        3.74918413372414       -2.59387291013740
C           -4.58130966412543        4.42852488206374       -4.42415133637522
C           -2.72614853727916       -2.87428933700781        3.67389380867132
C           -2.47679740100660       -4.17436166792642        2.89210476921668
C           -4.22867948108655       -2.77478120233746        3.95935215728903
C           -1.97060535448600       -2.93922498729562        5.00532739427750
C            4.45923927580555        1.02783696790078       -1.92518880138385
C            4.72643984542808        2.03318674976872       -3.05452576506118
C            4.87622149591232       -0.36882653106874       -2.41396686061469
C            5.32668601853910        1.42347629611014       -0.72011522508843
H            5.92048467744578       -0.37069570306879       -2.72377367869666
H            4.26726728311212       -0.67290432984668       -3.26352913926405
H            4.75648232935660       -1.11335866780301       -1.62984627431127
H            5.78646263698822        2.04681449344264       -3.30347398725636
H            4.44106960694829        3.03988812341237       -2.75403938115724
H            4.18003341018396        1.76301019369794       -3.95628728691156
H            6.37333558300030        1.50287469006539       -1.01083954366402
H            5.25892770315412        0.68551161269882        0.07498013450983
H            5.00838219139509        2.38516902739471       -0.32178672560372
H           -2.26405790668337       -3.81705875364582        5.57893799636763
H           -2.20035007448544       -2.06542200032152        5.60165581992774
H           -0.89474297124542       -2.97437598312274        4.85159421213451
H           -4.56166145513973       -3.63464419798776        4.53854301191885
H           -4.80042397353395       -2.74058685343095        3.03371622716080
H           -4.44431089139678       -1.88416072545292        4.53723214389140
H           -5.39754385646498        4.97581217574879       -4.89289047074735
H           -3.90352815284971        4.10513939474066       -5.21205842753863
H           -4.05522533393843        5.11434067378164       -3.76233267298230
H           -6.91520854750061        4.32783031581411       -3.07078220555515
H           -5.61838239110331        4.39033361207889       -1.87467500021892
H           -6.59132185200460        2.93261181708931       -2.04719847411313
H           -6.64293247808467        2.84614745078054       -5.15557855916597
H           -6.32576063177058        1.46342459425399       -4.11379970885321
H           -5.16538787368831        1.90276027163635       -5.36346895270017
H           -2.86429154929926       -5.02773105133381        3.44728850095244
H           -1.41481938815044       -4.33926393193372        2.72495481306908
H           -2.97288591778036       -4.13885826632733        1.92397488256562
H            1.53316025864345       -1.60407689913747        2.78101050378605
H            2.78267349535742       -0.91628154465795        1.79141885228168
H            2.38208530874968       -2.71215765900962        0.05143281356900
H            1.19021749403765       -3.43916161569916        1.11217601878334
H            4.17203184287744       -3.10339728477429        1.75739309285842
H            3.36553895537485       -4.61220416647209        1.34724874168188
H            2.98370579260552       -3.79421595033410        2.85926837961646
H           -3.28570871738565        2.86795045762315       -0.08424915938666
H           -1.82428542144143        2.54931232251699        0.87532126767779
H           -3.20273265284503        3.40905224893265        1.59927724989279
H           -5.12469035834903       -1.66435719688526        0.11889887168297
H           -5.57684219978051       -1.02113955548240       -1.47301882878398
H           -5.54377189640164        0.05545007497795       -0.03660183380277
H           -0.73264682019068        3.08769842996317       -4.50685549505132
H            0.92739711305018        2.63541829060975       -4.26392019992810
H            1.20487425408089        4.52666819885980       -2.62464860193982
H           -0.46924597269047        4.98512761652910       -2.88439262864911
H            1.70840932739444        4.97767562018577       -5.04642726090423
H            1.05422016719473        6.40777638938423       -4.25396709980337
H            0.02832836702032        5.43893683301933       -5.30769985228292
C           -0.30101668119275        3.11538961372677        3.34557786390960
C            1.98078834916570       -2.86817501275777        6.97315784048844
C           -4.49797475041691        1.25117052437491        5.42869371355987
C           -3.48651169666044        0.42239372889024        5.88345099323868
C           -2.12729413101696        0.78313034209727        5.67401450508703
C           -1.85992547729769        1.87793281115788        4.81365949963674
C           -2.90797060989574        2.72824285194821        4.45688621947711
C           -4.22969101464937        2.44082100579457        4.76728832526689
C           -1.02380930884364        0.07357935774626        6.25534966451399
C            0.24218382668972        0.18016105428825        5.62474528136545
C            0.48197920073656        1.21685523591510        4.69272566712903
N           -0.55793984536107        2.07974141170690        4.34501540425283
C           -1.11385247009388       -0.76816893547602        7.41421371900236
C           -0.19464423299334       -1.84189159851721        7.53859821374762
N            0.99979272199561       -1.79545364312160        6.81422778901024
C            1.27881371230548       -0.72800665367451        5.95267419086312
C            2.53976178766626       -0.53040458128790        5.39474217816433
C            2.81152466747325        0.53263357315673        4.54085809918416
C            1.77019601968616        1.38282687508891        4.19174493625707
C           -2.09337730842455       -0.62768172179067        8.43105967061780
C           -2.37383863695450       -1.69936085199495        9.26559119830717
C           -1.64406454067851       -2.87797497611144        9.20091945242566
C           -0.52022194227535       -2.90402486082900        8.38121006935529
O           -2.77234571148618        0.55840828760342        8.68995164748324
O           -3.76782769655299       -0.80871812921979        6.45104520154006
H           -5.52134260906438        0.95760030644450        5.58045098143596
H           -2.69040018856593        3.63817816650692        3.93152591972302
H           -3.17433751537121       -1.57796375992347        9.97441358481191
H            0.09012949537565       -3.78954363077989        8.38342633428946
H            3.34323500200654       -1.19579592439050        5.64933656692222
H            1.97696997995645        2.20545338343582        3.53521273309728
C            1.83481187622199       -3.93265423221439        5.88799926172308
C            2.92002248309023       -4.99669931174297        5.95891634252396
C            0.25083791827316        4.40337901697695        3.95263382855591
C            0.53758036776546        5.46005734383564        2.89494822398692
C           -2.00623107373909        1.74063297959865        8.56981926292026
C           -5.03012074339823       -0.94442278331178        7.06386293766488
C           -5.39583705309786        3.31896377114540        4.31077101536670
C           -6.06448243143011        2.63990582260714        3.10474776470826
C           -6.42672737288730        3.47850944959514        5.44100383295511
C           -4.93212912190809        4.72443256298279        3.90298487418811
C           -1.99471733551149       -4.10513457031930       10.04441806906143
C           -2.17583886499343       -5.31826968582417        9.11763671863097
C           -3.29646003886274       -3.90955957199758       10.83389065402744
C           -0.86037365903014       -4.38620622851169       11.04239691905277
C            4.24588507588688        0.81675350557987        4.08242338135051
C            4.28137172951384        1.66339439641621        2.79988829788108
C            5.03118302987642       -0.47924221327840        3.82039727060008
C            4.94666990878138        1.59911549548642        5.20466751371499
H            6.01551995116560       -0.25127723405673        3.41337203027917
H            4.50711556048747       -1.11267578096463        3.10919520195192
H            5.18384192907536       -1.04813198927805        4.73419042448712
H            5.30407349884885        1.75915696935753        2.43849988678710
H            3.90864478462141        2.66969877049210        2.97683301810708
H            3.68102395950855        1.20883517627769        2.01472412077436
H            5.97386597618790        1.83239082216116        4.92725940304424
H            4.96384458087214        1.02100359713820        6.12680643920214
H            4.42536959301439        2.53401005419933        5.40295918624094
H           -1.09854529435813       -5.24997820387066       11.66171171638611
H           -0.70832807537634       -3.52897649667999       11.69592674543829
H            0.07676311239177       -4.58923995035451       10.52869584187132
H           -3.54171689472889       -4.81443517433794       11.38820187133253
H           -4.12518595520617       -3.69137854421655       10.16307314770912
H           -3.20101271102664       -3.09713686240353       11.55141696390484
H           -5.79083540339230        5.34745321527383        3.65811242577976
H           -4.29346585577655        4.69438453436164        3.02317596937062
H           -4.38808302555092        5.20047773359343        4.71721548115075
H           -7.22566000311917        4.15184647658466        5.13372366710540
H           -5.95507589824539        3.88993840227686        6.33156563637173
H           -6.88465628640341        2.52908256741398        5.70660656460467
H           -6.88186610143206        3.24998277949512        2.72216656691864
H           -6.46591457624545        1.66693467417046        3.38098101514800
H           -5.34504941459681        2.48259296449239        2.30552497554672
H           -2.45806751626611       -6.20018614779856        9.69128065901604
H           -1.25932082104627       -5.54826409539234        8.57925998596326
H           -2.95704827659118       -5.12069307654504        8.38596603457449
H            1.87396108188042       -3.31232722110549        7.96538104606566
H            2.98869746664948       -2.44601336998468        6.95618747852421
H            1.86299194627058       -3.43758362092044        4.91131705019550
H            0.84795711235652       -4.39866650495324        5.97603404007753
H            3.90972492456282       -4.55651883176912        5.83608638552727
H            2.78694782978293       -5.74223528703811        5.17569803642312
H            2.90041580930384       -5.51334412189850        6.91819942385982
H           -2.34155470035542        2.43999299162049        9.33923093559249
H           -2.15156410834887        2.19964938652579        7.58920065582840
H           -0.94463725753012        1.53022359499659        8.71821554946416
H           -5.01676575652755       -1.87787530113401        7.62712725209606
H           -5.83704677711506       -0.99786155141059        6.32575633158672
H           -5.19577443733027       -0.11020290597161        7.74891112483227
H           -1.22570536813016        3.32965267388395        2.81197001041123
H            0.38472333613218        2.71700395732582        2.59061468609649
H            1.16467465636209        4.17731004453538        4.51106609571321
H           -0.47068962610974        4.79007600465041        4.67989351315087
H            1.27245917741316        5.10286274678710        2.17345101991862