116
 energy: -22.928061455056 gnorm: 0.329736929581 xtb: 6.6.1 (8d0f1dd)
C           -3.31122850772930        0.79849766164622       -0.92477639677520
C           -2.44380812530352       -0.12270372891954       -0.27661132624697
C           -1.41337090092821        0.39579727573559        0.56335275196199
C           -0.89266158675590        1.65801491088749        0.27377586709581
C           -1.72665675402493        2.51431363229076       -0.49448366572522
C           -2.95444148494349        2.13954154133227       -1.01494489940871
C           -0.74098268209890       -0.43411532818871        1.49825021926784
C            0.56872586496315        0.03782116815119        1.86248088067890
C            1.03782416582094        1.29402317993033        1.50887470833621
N            0.31238977034758        2.07067427098208        0.65193736800696
C           -1.29695700510141       -1.39996043042223        2.41574187746061
C           -0.38243517664656       -2.18060797534842        3.13232615520648
N            0.91308504082021       -1.90366887689689        3.30325166013478
C            1.37712470144904       -0.74872102533751        2.81811050966982
C            2.52149331701875       -0.17739833758153        3.39379298866852
C            2.95849061756259        1.02681208890480        2.95105897606587
C            2.24288949469137        1.78498308775960        2.03503020483770
C           -2.74860936222260       -1.74497937691422        2.38401158947411
C           -3.09416315450955       -2.91614440870436        3.00571134491758
C           -2.16786021984049       -3.77788778654213        3.63251872101904
C           -0.85708937311598       -3.40495313382985        3.68547234358092
O           -3.71994433332149       -0.94984598373544        1.67726658385724
O           -2.55702603277562       -1.47241711578389       -0.57241635275616
C           -3.84297843593025        3.13357444054366       -1.60938954875544
C           -2.68769581069131       -5.03867041417370        4.30484659386931
H           -1.39666850744143        3.51251503834900       -0.76806311868865
H           -4.27662633836220        0.55105838579656       -1.33106614114542
H            2.66329581305412        2.73912661909249        1.72562431984580
H            3.05775395548473       -0.69369546277216        4.16536137542516
H           -0.24710966264510       -4.12034095424229        4.22946223699121
H           -4.11477991332403       -3.04712728052358        3.03244694615357
O           -4.21824883374556        4.03433712717988       -0.87713382485991
O           -4.44510595673734        2.90643496899600       -2.81853501752979
C           -5.44216520282800        3.83300025693726       -3.02488532025093
C            4.23586651889298        1.50004220933226        3.59165660008449
O            5.05927614697201        0.66079890002952        3.91714215179376
O            4.47001334453535        2.86385149488593        3.72605651435371
C            5.79457498613219        3.08584475587818        4.15829123132174
O           -3.82227255313510       -5.27347675879771        4.16636005494405
O           -1.85023202017753       -5.79767454267276        5.06656077253571
C           -2.55119635829503       -6.86252441382958        5.62930343183426
C           -5.07197156564436       -1.42399175670916        1.58830531863830
C           -1.33089900128490       -2.23622472573986       -0.99264499351172
H           -2.54510546830388       -7.76426885143998        4.99136022291012
H           -3.57194749219491       -6.44405511486021        5.74196173723541
H           -2.09133598235598       -7.02043774843818        6.64022264233588
H            5.72707967266424        3.46798026205549        5.10135971236643
H            6.34060091246885        3.78468702308830        3.50069950143490
H            6.17933064298187        2.03010500085905        4.19342358084693
H           -0.91862729772622       -2.57650129080332       -0.01361370304871
H           -0.49769766914251       -1.60651221708571       -1.34094446550576
H           -1.52632419730509       -2.94569707152159       -1.75361447637286
H           -5.11788846557077       -2.41810833635233        1.17520213188926
H           -5.67929807973498       -0.69619639428435        1.04301666067831
H           -5.57598832326623       -1.42383358739762        2.57928294206544
H           -6.13050215934830        3.76035386975488       -2.23272855695873
H           -5.86615610071888        3.45938329385866       -4.02668959924245
H           -5.13479557532099        4.87790991548477       -2.98314551356402
C           -1.38192942069774        3.73616555005018        2.91232598411686
C           -1.84821468128685        2.59982427735607        3.49755545445181
C           -1.05946531454833        2.05730632010638        4.60922730982276
C            0.19893954712228        2.69376791964407        4.86302140881997
C            0.50425395911860        3.94630308659851        4.28768785650746
C           -0.26031777722226        4.46998310053134        3.25072669343212
C           -1.20488993561782        0.74454293276906        5.14851520323437
C           -0.06287609782692        0.02744069315890        5.60930570802864
C            1.19208754369866        0.71421540266195        5.78882868583885
N            1.19428660993148        2.06344359410476        5.62744624321596
C           -2.41361422770794        0.07928500213936        5.25249410304426
C           -2.45851584031083       -1.32662100968547        5.60237876023992
N           -1.29466212405906       -1.98318595734370        5.89916817085159
C           -0.14475655767527       -1.32117560077092        5.98824682881008
C            0.97209270935794       -1.98958449505532        6.53157704134458
C            2.21982707914082       -1.36973967291181        6.68703967237737
C            2.30561929262884       -0.09745313075593        6.26436900324455
C           -3.73018485967715        0.71367583494582        5.25810242262992
C           -4.89964478833448       -0.06184623426677        5.21204641615509
C           -4.82617965800088       -1.39228978090841        5.46901303780036
C           -3.67144193418464       -1.98914944386360        5.67265433266067
O           -3.75568638935321        2.07705011038914        5.52067969627343
O           -2.94192434743730        1.91263938797883        3.01658762327703
C            0.21273512614467        5.50086066357994        2.34765104514621
C           -6.06660304520411       -2.17604633098929        5.80641622556876
H            1.41756699010566        4.38133362238595        4.66974005703471
H           -1.82880610647429        4.11982501512100        2.06992133318584
H            3.26888037378556        0.32655662585251        6.31721410015598
H            0.87146188387207       -3.08471526305024        6.57830423410869
H           -3.67716811065157       -3.05999292755990        5.83019634570050
H           -5.77379677507622        0.43595144608221        4.71017130754348
O            1.34459852619901        5.82615848916894        2.44941456579099
O           -0.74718748219123        6.07961784856304        1.59848183464284
C           -0.21473095568964        7.24015934882472        1.05753806029483
C            3.53228080814219       -2.00967610361154        7.02506769044485
O            3.64093082622715       -3.14437803815732        7.50071391725347
O            4.56565258381079       -1.22937033368332        6.69086985080897
C            5.72579357310716       -1.80692399125161        7.22246151275881
O           -7.04801223588612       -1.95726935745904        5.14194115322235
O           -6.01514389321278       -2.93743591896022        6.94765316328794
C           -7.21292732384718       -3.62681918543340        7.15115816329978
C           -4.95459780685163        2.65960679932188        5.86868674392943
C           -3.68284113682406        2.59129188358641        2.05479246020704
H           -7.43119628931628       -4.22607794725959        6.20622607140901
H           -8.06548455146707       -2.91765848248592        7.29781126410398
H           -7.07314693247270       -4.33087306029711        7.91223421050944
H            6.57332189837178       -1.29353136199234        6.78341268688262
H            5.74663761932316       -2.84282155125561        6.88089468184451
H            5.69426191474290       -1.72781984964892        8.29460302186842
H           -4.10481209541493        3.44288266176275        2.60483747673152
H           -4.49244774344916        1.87419893016926        1.82433103764650
H           -3.18901540870812        2.85154642679373        1.06781919454921
H           -5.55414326821421        2.76698137191684        4.93950725322359
H           -4.78658370641210        3.62090640967288        6.25983200635257
H           -5.43485580473958        1.97242995129449        6.65265772412460
H            0.89164886030839        7.38838561720231        1.13776105146914
H           -0.62894889903848        8.04195665205089        1.64837664327952
H           -0.59282546386754        7.45699159724320        0.03719083132488
116
 energy: -22.520537574636 gnorm: 0.625494612438 xtb: 6.6.1 (8d0f1dd)
C           -2.89133298643479        0.66918813178321       -0.53116504829584
C           -2.01396761554251       -0.32689489838639        0.03556641772518
C           -0.84337709848047        0.09603889758983        0.73420545885059
C           -0.43015675261252        1.38453235319512        0.65444196820308
C           -1.33566659687046        2.30818337860536        0.05503754585315
C           -2.56918371808452        1.99596679899970       -0.43189536459958
C           -0.11638845683300       -0.75828763483803        1.60071877513981
C            1.25938098986584       -0.34886508978799        1.86276003192872
C            1.62171530622477        0.94490071117075        1.52083533184296
N            0.80904054707960        1.91493751548518        1.04489068176115
C           -0.70032920526721       -2.05926466117019        2.16070638619797
C            0.42787826992939       -2.75958873868414        2.75508288023517
N            1.75553664682514       -2.55894901703351        2.73963140975697
C            2.16721461758288       -1.32330179392881        2.34731762293070
C            3.53031834356506       -0.82059707741184        2.42944581147189
C            3.90985987336135        0.41845657363744        1.95098498153800
C            2.96695639102285        1.30383903003203        1.57200764778433
C           -1.98969047319216       -2.53650283967455        2.27870117640214
C           -2.16459455784510       -4.04937289181657        2.48388701272428
C           -1.16999828393695       -4.51733484623742        3.30618509669030
C            0.06435994649294       -3.91318432284891        3.37476887352150
O           -3.01660415713537       -1.61740194359336        2.20148236779889
O           -2.26204149226772       -1.64802591073504       -0.41716700475452
C           -3.52700124910269        2.91719031711904       -1.14869108699239
C           -1.20516077769670       -5.72271643681150        4.36487275535169
H           -1.04267852182337        3.33361856957390        0.11572016816476
H           -3.78205643903761        0.34363883055987       -1.03084369573968
H            3.29873879283473        2.30899704812577        1.29593383702229
H            4.30348877648307       -1.33890285105818        2.97020352756558
H            0.91563723276952       -4.54806702949184        3.61201052122465
H           -2.66834114182126       -4.82880882941163        1.97177579955942
O           -3.20052044879088        4.11023100295963       -1.06909971990382
O           -4.50347438424349        2.20174176497407       -1.61880978969350
C           -5.14848506495547        2.94831487835202       -2.60363768909604
C            5.26760428392735        0.83052027344371        2.49937414362470
O            5.92866295008491        0.09884834656928        3.23998907569242
O            5.66339352389652        2.15240234761221        2.16581663674374
C            6.91572339857651        2.56089877238702        2.79324711976766
O           -2.30993921381200       -6.21081705250904        4.39299285739794
O           -0.16447636302938       -5.95425956175203        5.08777011706826
C           -0.26761034783039       -7.13685896953457        5.64264292097678
C           -4.31949892608616       -2.19832797974725        2.26108816866411
C           -1.24349500621696       -2.31685637457287       -1.27161297294918
H           -1.20012485136213       -7.65067377298303        6.28497376203973
H            0.70782842382538       -7.50404580870735        5.95277094311559
H           -0.56036996412240       -7.80260930348664        4.69640232978787
H            7.51220361779759        3.51254641452916        2.60154582907879
H            7.57276490398792        1.59342911207235        2.70893256568247
H            6.68686835549865        2.39624939729585        3.85979691808908
H           -0.37457271010117       -1.55482949828342       -1.19178708233279
H           -1.48032432078677       -2.56107738635571       -2.23137728072685
H           -1.01555574134032       -3.18878947073355       -0.73727690525577
H           -5.08704420518119       -1.45966687079048        1.54809426310690
H           -4.61848592024091       -2.47545407563180        3.25871756015288
H           -4.41158944877094       -3.22769768481694        1.71780150689302
H           -6.16990916329298        2.50112517111450       -2.65064823627448
H           -4.59298137789228        2.97088814371686       -3.56296746126072
H           -5.42595194214076        4.22653494815963       -2.39496343447812
C           -2.19308122909327        4.21051759372998        3.62446904187153
C           -2.54328345717077        2.99102141339840        4.10963969538542
C           -1.48736355567533        2.15219084718434        4.56562577784551
C           -0.09821306542414        2.53274659404527        4.38865722484560
C            0.21189073085754        3.83186803504106        3.83312806150816
C           -0.87180619521589        4.72609911678678        3.46056123454531
C           -1.87055681575380        0.93931530191066        5.25832990911795
C           -0.69501468013724        0.11129656224727        5.49822752485922
C            0.63260465380545        0.47883823306155        5.21119267613771
N            0.91843878319421        1.74902199417706        4.91160951467174
C           -3.13059717114735        0.55191529485511        5.87529320892108
C           -3.30847532377912       -0.88526469254844        6.10859572984465
N           -2.28179499688463       -1.71436983361319        6.03367932209725
C           -0.96470405677450       -1.18458927788800        5.97013425387033
C            0.24711907524485       -1.88314813038506        6.34172583072147
C            1.55574121394202       -1.47866028984869        5.95214354077960
C            1.73014284068124       -0.29745128029202        5.35383903829404
C           -4.34033011952147        1.25062815739076        5.74453828238211
C           -5.59039240002258        0.58561479025501        5.83384415046791
C           -5.69797093525284       -0.83975056142930        6.07834062258584
C           -4.62477850705104       -1.59890876409441        6.04218971823329
O           -4.40582396576317        2.62408708982575        5.95498329050893
O           -3.68297924951708        2.32786674048042        3.44611106691647
C           -0.70311847048285        6.27517446990677        3.08774822462535
C           -7.09814852498019       -1.32549541848650        5.86029425297472
H            1.25305483399160        4.24687779692479        4.19238845036899
H           -2.93549100110851        4.69512119879296        2.95544562616960
H            2.81422388803886       -0.03745065013052        5.32633390079227
H            0.15362359770313       -2.40840748014412        7.24949798689054
H           -4.75168089334857       -2.62790841799769        6.16200315732333
H           -6.42762916381741        1.22256878693976        5.64549951946075
O           -0.01590546035514        6.84213240401153        3.87740884917342
O           -1.34213985978970        6.83122744923849        1.94620854623611
C           -1.32215798148628        8.16488011393911        1.78769292554439
C            2.83352089166862       -1.89555599442503        6.59095271357386
O            3.06763999243040       -2.01309729752230        7.80701607608303
O            4.04132757788570       -1.62329995021945        6.01856554788742
C            5.08434727507145       -1.82050069739605        6.87473058290225
O           -7.32832442519505       -2.24895717034345        5.16010641694656
O           -8.14781208369278       -0.48812010241871        6.23635030911824
C           -9.50058516798075       -0.84674375337687        5.69677837705155
C           -5.23200916124398        2.89005753371876        6.96914621211245
C           -4.83710577597379        3.17244815309915        3.10029278366592
H           -9.90477099652809       -1.48771968737929        6.30726539694765
H           -9.38234442601448       -1.34887207123552        4.71093677555986
H          -10.23746035528158        0.04662757422872        5.37567627408327
H            4.85721069366449       -1.18576367254075        7.84704255819074
H            5.87690482420757       -1.57531550812386        6.18673189502122
H            4.87831642614075       -2.76188498239986        7.07825258512835
H           -4.70551339830721        3.45837620451821        2.11884043707810
H           -4.48952023285836        4.01107062606820        3.60662869201692
H           -5.77093985236225        2.56911644205220        2.88010927873780
H           -5.27651722793572        2.06188099439271        7.64691187730365
H           -6.22487069987501        3.18516783121668        6.55582444884456
H           -4.91000838394429        3.64356980522582        7.42153110832379
H           -2.07421618064907        8.60925420040792        2.33029538935852
H           -1.18273759697222        8.43192871707996        0.76838252703988
H           -0.38863489114774        8.50213193148035        2.20648314581108
116
 energy: -22.546506027509 gnorm: 0.592044696849 xtb: 6.6.1 (8d0f1dd)
C           -2.27020461454171        0.17712269480616       -0.55410283313908
C           -1.29015800560291       -0.81038338117877       -0.08352163318283
C           -0.26862087934837       -0.26852124950224        0.79019277322935
C           -0.18007387456711        1.09570392725706        1.05578689221170
C           -1.17580632500615        2.02882515860127        0.66369909534371
C           -2.25489238850944        1.48871478666578       -0.07278725333832
C            0.68059791024602       -1.20210798209210        1.40220740492878
C            1.84148051226785       -0.49672196587848        2.02002999015562
C            2.07921754302771        0.91610737200830        1.86605121187177
N            0.96442559249056        1.62241726831767        1.63161433672484
C            0.33624511963035       -2.40681663241779        2.07338975602022
C            1.53305807126295       -3.06788577599225        2.58310313382376
N            2.69974137100475       -2.62063050923384        2.78070229288960
C            2.93421828119734       -1.21346436774132        2.62731745342548
C            4.19792909386375       -0.58979572115479        2.85279333422483
C            4.40209972011692        0.68831164018682        2.43941506814716
C            3.28599446104326        1.50066423799264        2.16356971143750
C           -1.05417325877047       -3.09718233728643        2.13006049752967
C           -1.05743746993236       -4.44298695773856        2.66045372751870
C            0.09244549721761       -5.05285771805855        3.08937514218116
C            1.24609421131249       -4.32503115588246        3.11140572260047
O           -2.17649716515223       -2.12492257353869        2.13448486258990
O           -1.15118098161507       -2.05381642265537       -0.73853260520870
C           -3.15712555202491        2.43754833028036       -0.72289285270153
C           -0.19139296097016       -6.43590718463741        3.69188375772925
H           -0.82954152266389        3.06158203490813        0.72292349366360
H           -2.90315177057642        0.04018363504251       -1.36046264544617
H            3.26253973113647        2.53884728227055        2.51461321311169
H            4.90967046667249       -1.27844835326885        3.20196108387416
H            1.86459261221606       -4.73530510609213        3.90710933427086
H           -2.08240978900674       -4.81349490687161        2.85864630530931
O           -2.84146308034391        3.48223121004578       -1.10903136735235
O           -4.48493404326334        1.87564952816532       -0.87097934820486
C           -5.20072110084415        2.64812848052740       -1.64544802474090
C            5.74627922072422        1.20093584793632        2.46059440959023
O            6.52785292426939        0.99594820215039        3.31977886621786
O            5.93954419148723        1.90387539909176        1.20070464629132
C            6.75141117286005        3.09099685678675        1.40323618545660
O           -1.38259542956657       -6.73624482125691        3.84012306690095
O            0.81446101819841       -7.41042337542835        3.98560416906517
C            0.38369821309911       -8.66581733351447        3.96500616084188
C           -3.34377443152084       -2.63239229711508        1.50726737607936
C            0.14178075173711       -2.28701415363419       -1.42699224683050
H           -0.39339445400374       -8.50668601471390        4.82052672515270
H            1.00464336093540       -9.48346011166721        4.12235145411434
H           -0.24962154512297       -9.01183118542421        2.99269905937798
H            7.46835323896339        3.25321120942511        0.54834654054040
H            7.41601250417892        2.55983066210338        2.13274454144772
H            6.08333050276658        3.84525457864785        1.93222540592436
H            0.33167322000299       -3.41117063171560       -1.38395356246911
H            1.01970756227710       -2.06864437763990       -0.94676525176212
H            0.32683993700185       -2.03598987125548       -2.42516595962951
H           -3.63106182443253       -1.96279782406192        0.75536082987716
H           -4.05097446654979       -2.91764063456905        2.27460636833686
H           -2.96047204918156       -3.66503617270697        1.02405572735672
H           -6.19692364059060        2.57465430953827       -1.07003419903171
H           -5.22796998098833        2.65536793755366       -2.77182412555668
H           -4.82866240072499        3.79298277296613       -1.48927946339085
C           -2.65648783482827        4.25828872536618        2.97912656643871
C           -3.16484714056076        3.17790410401531        3.62373144127887
C           -2.22969489569693        2.53883323521919        4.46579888271795
C           -0.84019208910807        2.84499858298683        4.53612396702650
C           -0.58119057361543        4.04280327514289        4.04444258049007
C           -1.35864810333660        4.81441977116961        3.27262748948826
C           -2.52294373518192        1.41108735618118        5.36819523860567
C           -1.46878408771599        0.60824429088917        5.93193645078186
C           -0.17272257147787        0.91247440005761        5.64454536411183
N            0.18496392521809        2.12587312807375        5.14304478739165
C           -3.90112584504956        0.76187565845296        5.57474918125260
C           -4.07818355932392       -0.57040896208511        5.96860871370617
N           -3.05280827943816       -0.99205976708767        6.78717053114092
C           -1.79339947301259       -0.69073349983077        6.45847773436877
C           -0.76284111293765       -1.64423377181576        6.53530655687299
C            0.54408740806951       -1.34897932129698        6.27363462509452
C            0.92583462640217       -0.05895986068484        5.80472191915919
C           -4.83271310724171        1.78656464003294        5.90150196493753
C           -6.10350012452936        1.48229922436317        6.07958430112831
C           -6.31062612294568        0.11900755814082        6.26459095262330
C           -5.39395333372857       -0.86302466923569        6.30562028157616
O           -4.60684194979551        3.22140547134707        5.87295994819607
O           -4.52578626717803        2.88584576496626        3.47694216020225
C           -0.94514114112176        6.13136577315087        2.78274534453889
C           -7.64184259374447       -0.28356833525000        6.69400757491518
H            0.42524145905336        4.45333821896396        4.23750153465790
H           -3.33515146895409        4.42392911069564        2.05301596018225
H            2.03876222999714        0.28814648713402        5.85068106358402
H           -0.95434452842015       -2.55209321812945        7.08148996146146
H           -5.78067071820051       -1.93430620582717        6.52722192692477
H           -6.99006944983688        1.98709470296637        5.97798449543340
O            0.30507706716133        6.14431032601751        2.68355493162458
O           -1.80626863415916        7.14831222513281        2.37601951298615
C           -1.18174871227411        8.36768953875855        1.82127580104368
C            1.67884278915779       -2.40563322458391        6.77896106551027
O            1.38367671036641       -3.39555499044653        7.38090582994032
O            3.07494757565551       -2.11443935621032        6.50146773908994
C            3.71121474272485       -3.23155453576650        5.99055158244433
O           -7.61761753944898       -1.38333734676465        7.33405545919659
O           -8.74340849581657        0.58639617739148        6.38874944378683
C           -9.66918910297428        0.33423102801655        7.26889178708991
C           -5.59586136850179        4.00147434674061        6.27707765640306
C           -5.36806892254716        3.65121988715123        2.67064760270180
H          -10.06944794351798        1.26126229643568        7.80484198933787
H           -9.52048463729677       -0.60435221296887        7.85395810928173
H          -10.43768956354698       -0.06086149011256        6.60783433051758
H            2.94878839964819       -3.55695892070686        5.19567166312660
H            3.76417204031756       -4.13939067898065        6.58468797079291
H            4.88429881330211       -2.96978502239843        5.77968919044679
H           -5.32034905758871        4.73315470349786        2.84659155659110
H           -6.38589017714560        3.56159164916307        3.16660371765470
H           -5.86641933995868        3.31132193151819        1.76267776991340
H           -6.33770744467263        3.54173243106921        6.75450406076845
H           -5.95320603863407        4.47682586612969        5.32553141573339
H           -5.04423043406804        4.55419164643445        7.06716996682240
H           -0.92407144909848        8.89851559036615        2.79004869469639
H           -1.89439112184497        8.73676598944236        1.11860188678873
H           -0.31721601504196        8.19641669516323        1.21958185543871
116
 energy: -22.609333655612 gnorm: 0.535429379725 xtb: 6.6.1 (8d0f1dd)
C           -2.37107279949179        0.10336945153393       -0.36768780901434
C           -1.44461160789177       -0.69512072877310        0.10345202570302
C           -0.24668168254450       -0.26450067629384        0.76983948128498
C           -0.02335711984036        1.11964043105976        0.82119460866672
C           -1.10292611304926        1.92925171270657        0.43327742349081
C           -2.36131792924605        1.48555672073167        0.07886757708276
C            0.75552934467144       -1.17877808606011        1.40349258281832
C            1.99687302447706       -0.56216290611995        1.77272747481303
C            2.10944320258678        0.87600406207419        1.78361181896250
N            1.13735271037260        1.65463289318755        1.26857282463677
C            0.70144501144409       -2.62524475576101        1.79403636221274
C            1.99966138658447       -3.28998830381294        1.63573511711506
N            3.19531453028134       -2.79843042282133        1.96598969822648
C            3.08644561883050       -1.39085758399027        2.15815666398421
C            4.35620333780856       -0.59923702616468        2.27420096013811
C            4.45119540377120        0.86772078134659        2.31393798634557
C            3.24476795810274        1.45896925537941        2.30145611859296
C           -0.36277164935378       -3.36748843821841        2.23726317007483
C           -0.38395765825898       -4.78232975963789        2.20012828054873
C            0.82561440671131       -5.47610275928571        1.90690061286372
C            2.00369520877943       -4.65562998569422        1.71850229650286
O           -1.68366522430578       -3.00853373965495        2.67109296168347
O           -1.41405127627559       -2.09317333193454       -0.15256394015821
C           -3.33486352256555        2.41418835058098       -0.58255164792413
C            0.88809659545872       -7.07081885359069        1.86294577437364
H           -0.70112310953043        2.84934582517607        0.10918160496343
H           -3.12674010765705       -0.32403449324328       -1.08761268267141
H            3.13107823417541        2.50265819367561        2.59294277884033
H            5.38409641559379       -1.02877742410838        2.29359035917521
H            3.01943142189046       -5.06541611437903        1.85700984979116
H           -1.06505489007684       -5.47951943264824        2.77296732509149
O           -3.82401690714103        3.47698688353707       -0.08530447376639