116
 energy: -22.928061455056 gnorm: 0.329736929581 xtb: 6.6.1 (8d0f1dd)
C           -3.31122850772930        0.79849766164622       -0.92477639677520
C           -2.44380812530352       -0.12270372891954       -0.27661132624697
C           -1.41337090092821        0.39579727573559        0.56335275196199
C           -0.89266158675590        1.65801491088749        0.27377586709581
C           -1.72665675402493        2.51431363229076       -0.49448366572522
C           -2.95444148494349        2.13954154133227       -1.01494489940871
C           -0.74098268209890       -0.43411532818871        1.49825021926784
C            0.56872586496315        0.03782116815119        1.86248088067890
C            1.03782416582094        1.29402317993033        1.50887470833621
N            0.31238977034758        2.07067427098208        0.65193736800696
C           -1.29695700510141       -1.39996043042223        2.41574187746061
C           -0.38243517664656       -2.18060797534842        3.13232615520648
N            0.91308504082021       -1.90366887689689        3.30325166013478
C            1.37712470144904       -0.74872102533751        2.81811050966982
C            2.52149331701875       -0.17739833758153        3.39379298866852
C            2.95849061756259        1.02681208890480        2.95105897606587
C            2.24288949469137        1.78498308775960        2.03503020483770
C           -2.74860936222260       -1.74497937691422        2.38401158947411
C           -3.09416315450955       -2.91614440870436        3.00571134491758
C           -2.16786021984049       -3.77788778654213        3.63251872101904
C           -0.85708937311598       -3.40495313382985        3.68547234358092
O           -3.71994433332149       -0.94984598373544        1.67726658385724
O           -2.55702603277562       -1.47241711578389       -0.57241635275616
C           -3.84297843593025        3.13357444054366       -1.60938954875544
C           -2.68769581069131       -5.03867041417370        4.30484659386931
H           -1.39666850744143        3.51251503834900       -0.76806311868865
H           -4.27662633836220        0.55105838579656       -1.33106614114542
H            2.66329581305412        2.73912661909249        1.72562431984580
H            3.05775395548473       -0.69369546277216        4.16536137542516
H           -0.24710966264510       -4.12034095424229        4.22946223699121
H           -4.11477991332403       -3.04712728052358        3.03244694615357
O           -4.21824883374556        4.03433712717988       -0.87713382485991
O           -4.44510595673734        2.90643496899600       -2.81853501752979
C           -5.44216520282800        3.83300025693726       -3.02488532025093
C            4.23586651889298        1.50004220933226        3.59165660008449
O            5.05927614697201        0.66079890002952        3.91714215179376
O            4.47001334453535        2.86385149488593        3.72605651435371
C            5.79457498613219        3.08584475587818        4.15829123132174
O           -3.82227255313510       -5.27347675879771        4.16636005494405
O           -1.85023202017753       -5.79767454267276        5.06656077253571
C           -2.55119635829503       -6.86252441382958        5.62930343183426
C           -5.07197156564436       -1.42399175670916        1.58830531863830
C           -1.33089900128490       -2.23622472573986       -0.99264499351172
H           -2.54510546830388       -7.76426885143998        4.99136022291012
H           -3.57194749219491       -6.44405511486021        5.74196173723541
H           -2.09133598235598       -7.02043774843818        6.64022264233588
H            5.72707967266424        3.46798026205549        5.10135971236643
H            6.34060091246885        3.78468702308830        3.50069950143490
H            6.17933064298187        2.03010500085905        4.19342358084693
H           -0.91862729772622       -2.57650129080332       -0.01361370304871
H           -0.49769766914251       -1.60651221708571       -1.34094446550576
H           -1.52632419730509       -2.94569707152159       -1.75361447637286
H           -5.11788846557077       -2.41810833635233        1.17520213188926
H           -5.67929807973498       -0.69619639428435        1.04301666067831
H           -5.57598832326623       -1.42383358739762        2.57928294206544
H           -6.13050215934830        3.76035386975488       -2.23272855695873
H           -5.86615610071888        3.45938329385866       -4.02668959924245
H           -5.13479557532099        4.87790991548477       -2.98314551356402
C           -1.38192942069774        3.73616555005018        2.91232598411686
C           -1.84821468128685        2.59982427735607        3.49755545445181
C           -1.05946531454833        2.05730632010638        4.60922730982276
C            0.19893954712228        2.69376791964407        4.86302140881997
C            0.50425395911860        3.94630308659851        4.28768785650746
C           -0.26031777722226        4.46998310053134        3.25072669343212
C           -1.20488993561782        0.74454293276906        5.14851520323437
C           -0.06287609782692        0.02744069315890        5.60930570802864
C            1.19208754369866        0.71421540266195        5.78882868583885
N            1.19428660993148        2.06344359410476        5.62744624321596
C           -2.41361422770794        0.07928500213936        5.25249410304426
C           -2.45851584031083       -1.32662100968547        5.60237876023992
N           -1.29466212405906       -1.98318595734370        5.89916817085159
C           -0.14475655767527       -1.32117560077092        5.98824682881008
C            0.97209270935794       -1.98958449505532        6.53157704134458
C            2.21982707914082       -1.36973967291181        6.68703967237737
C            2.30561929262884       -0.09745313075593        6.26436900324455
C           -3.73018485967715        0.71367583494582        5.25810242262992
C           -4.89964478833448       -0.06184623426677        5.21204641615509
C           -4.82617965800088       -1.39228978090841        5.46901303780036
C           -3.67144193418464       -1.98914944386360        5.67265433266067
O           -3.75568638935321        2.07705011038914        5.52067969627343
O           -2.94192434743730        1.91263938797883        3.01658762327703
C            0.21273512614467        5.50086066357994        2.34765104514621
C           -6.06660304520411       -2.17604633098929        5.80641622556876
H            1.41756699010566        4.38133362238595        4.66974005703471
H           -1.82880610647429        4.11982501512100        2.06992133318584
H            3.26888037378556        0.32655662585251        6.31721410015598
H            0.87146188387207       -3.08471526305024        6.57830423410869
H           -3.67716811065157       -3.05999292755990        5.83019634570050
H           -5.77379677507622        0.43595144608221        4.71017130754348
O            1.34459852619901        5.82615848916894        2.44941456579099
O           -0.74718748219123        6.07961784856304        1.59848183464284
C           -0.21473095568964        7.24015934882472        1.05753806029483
C            3.53228080814219       -2.00967610361154        7.02506769044485
O            3.64093082622715       -3.14437803815732        7.50071391725347
O            4.56565258381079       -1.22937033368332        6.69086985080897
C            5.72579357310716       -1.80692399125161        7.22246151275881
O           -7.04801223588612       -1.95726935745904        5.14194115322235
O           -6.01514389321278       -2.93743591896022        6.94765316328794
C           -7.21292732384718       -3.62681918543340        7.15115816329978
C           -4.95459780685163        2.65960679932188        5.86868674392943
C           -3.68284113682406        2.59129188358641        2.05479246020704
H           -7.43119628931628       -4.22607794725959        6.20622607140901
H           -8.06548455146707       -2.91765848248592        7.29781126410398
H           -7.07314693247270       -4.33087306029711        7.91223421050944
H            6.57332189837178       -1.29353136199234        6.78341268688262
H            5.74663761932316       -2.84282155125561        6.88089468184451
H            5.69426191474290       -1.72781984964892        8.29460302186842
H           -4.10481209541493        3.44288266176275        2.60483747673152
H           -4.49244774344916        1.87419893016926        1.82433103764650
H           -3.18901540870812        2.85154642679373        1.06781919454921
H           -5.55414326821421        2.76698137191684        4.93950725322359
H           -4.78658370641210        3.62090640967288        6.25983200635257
H           -5.43485580473958        1.97242995129449        6.65265772412460
H            0.89164886030839        7.38838561720231        1.13776105146914
H           -0.62894889903848        8.04195665205089        1.64837664327952
H           -0.59282546386754        7.45699159724320        0.03719083132488
116
 energy: -22.773473392361 gnorm: 0.415266679046 xtb: 6.6.1 (8d0f1dd)
C           -3.11955996670145        0.60913659377335       -1.04000007571117
C           -2.25656231164024       -0.26389690816987       -0.38127410149349
C           -1.23364977238237        0.20963967753621        0.39933817280520
C           -0.84653836963886        1.57272199519353        0.36576867179446
C           -1.83177967950495        2.43997077899770       -0.15572136288264
C           -2.91695087868331        1.99508217630391       -0.89201195729373
C           -0.52600877151233       -0.56390841744337        1.38074170666495
C            0.77942261336876       -0.10368961157240        1.74213817173420
C            1.10805794148675        1.22208315875164        1.48262783720518
N            0.27839408102119        2.10308523688150        0.90597050580902
C           -1.06832878316660       -1.61817103878920        2.14132644185922
C           -0.18344390505769       -2.38719061475996        2.89879231987159
N            1.13239340778631       -2.10972148896243        3.13154470321111
C            1.60592038946013       -1.01044869541369        2.46864791485661
C            2.89529531906299       -0.61871022314813        2.79069929221997
C            3.26683279363344        0.73696890599724        2.51039629866671
C            2.35641573846984        1.64953582121715        1.91721123866257
C           -2.44915882982621       -2.08235167026649        2.20008693137520
C           -2.86959863662274       -3.27525144401655        2.76608206239179
C           -1.92570642539171       -3.99256790426074        3.50478439127536
C           -0.62949526491489       -3.47354283057976        3.61459501581805
O           -3.22547250796438       -1.03139455892789        1.76214501960950
O           -2.32422737701716       -1.68110466456122       -0.51212049364808
C           -3.99247346052927        2.88775544527467       -1.29571445013255
C           -2.36695752373386       -5.00108827652770        4.56203241184983
H           -1.57280300242733        3.51828557997715       -0.09443967736315
H           -3.86985070485616        0.18035254643602       -1.64266967517010
H            2.86982760040213        2.55317939987349        1.56562604439976
H            3.34049153419638       -1.28494992445351        3.57627278516374
H            0.13644103411228       -3.99570178335770        4.16840541525175
H           -3.84932985767917       -3.58003591554097        2.67007102240445
O           -4.21126503995745        4.00508290660185       -0.91923151424785
O           -4.94235111572247        2.21985788780202       -2.00927681692079
C           -5.97531767565803        3.08239810435910       -2.41105066642817
C            4.61840561198102        1.02889714646799        3.02191283649756
O            5.29925131163454        0.15493443316987        3.56852259545436
O            5.07551050113198        2.32099630756601        3.02585509824424
C            6.25922466540820        2.25052717645401        3.74493469146311
O           -3.57706319323246       -5.32177288289274        4.71338200802298
O           -1.39484751704056       -5.59611504968166        5.30622874055044
C           -1.86900998065492       -6.79836494316625        5.84489319991525
C           -4.60196918717923       -1.15703269410968        1.36769355782428
C           -1.81820889187007       -2.37244647196407       -1.56933773993536
H           -1.56380736872541       -7.49168164086970        5.03420109580428
H           -2.89506617238534       -6.93175788962568        6.19696168520484
H           -1.16005270673921       -7.08141162438295        6.79610540682662
H            5.98049527912522        2.21449017075133        4.84813076415565
H            6.60649000312235        3.35294679661188        3.48768889179296
H            6.86191930516624        1.27362473184988        3.46884353211477
H           -1.10363004484165       -1.69478232938218       -2.00099114912122
H           -2.59865340416476       -2.65091667991713       -2.33657449783165
H           -1.50550404128017       -3.32661604528712       -1.14222230573329
H           -4.82807505543922       -1.93345036232232        0.65232387896643
H           -5.07764187131476       -0.32570233548991        1.00043093474411
H           -5.02532029644193       -1.47749511791823        2.24614953318570
H           -6.57114897718611        3.56404476216248       -1.53484615345406
H           -6.60152126714829        2.38507479288885       -3.04356054487029
H           -5.84918603983061        4.03808602714544       -2.98679518301070
C           -1.68452826164219        3.95415250751039        3.02569198509917
C           -2.05783120309601        2.65776831781107        3.64070114086112
C           -1.02541558882122        2.10362763487259        4.52316974951408
C            0.33357979834875        2.67764462241994        4.43280069471624
C            0.57882448745343        3.91122015703994        3.89957537097716
C           -0.42665427187398        4.58700377781809        3.20023975484791
C           -1.11834314628453        0.83315444216800        5.27735261461541
C            0.08401596262033        0.08522701284176        5.44852871823739
C            1.30868242165623        0.74240433137538        5.32996732021423
N            1.50014991427349        2.04149020049436        4.97694411466838
C           -2.40167736494591        0.31421139213389        5.73652675882305
C           -2.37595639710012       -1.07050324910610        6.02185325682146
N           -1.28250506260441       -1.86107181871087        5.88196173114575
C           -0.05229567785775       -1.20991239529267        5.92353074161139
C            1.08831928443948       -1.76321201641654        6.55620496193551
C            2.34740109028215       -1.16301002807342        6.57224270401766
C            2.51603920451383        0.03630567058367        5.84855042803287
C           -3.66107357570683        0.92322548348376        5.93509463035061
C           -4.90038118927065        0.14224043346522        5.85887364291912
C           -4.77976022499897       -1.15997835333970        5.47585928337565
C           -3.56772845975518       -1.82785714388051        5.72487965872560
O           -3.56691924324564        2.27245481566412        6.13460132665214
O           -3.23800994936116        2.01925041575278        3.37676014974554
C           -0.33174523952170        6.02636762799180        2.65780168149659
C           -5.98991363998136       -2.03397550307658        5.33438385100499
H            1.49717165882007        4.46689143997141        4.03070217328368
H           -2.06620332047407        4.32400329329810        2.15757417287026
H            3.40098133324706        0.58113408943775        5.74240218014424
H            0.91770549236561       -2.67468273543198        7.09681543351781
H           -3.61933365241226       -2.87396845866943        5.48075196667975
H           -5.96076724435386        0.36856227244948        6.00598308489511
O            0.74342785383741        6.31064879841313        2.14213733357426
O           -1.55341207784368        6.68533289480085        2.43783983063887
C           -1.39631118859710        7.85640774248914        1.69896626055135
C            3.35571149860705       -1.85990808460974        7.43542665101923
O            2.94275490388839       -2.90143474961338        7.86771378283309
O            4.54645359250237       -1.22405468940446        7.61283733608462
C            5.39833030384258       -2.12319406459541        8.40168140826297
O           -6.01082492268041       -2.99613516564999        4.57976591015778
O           -7.05053555984764       -1.67498614253280        6.10195371340405
C           -8.26501126068527       -2.19716297315634        5.61423725238139
C           -4.85653409009774        2.97698143318337        5.95784962851798
C           -3.99911595591297        2.70395261560876        2.51281999004401
H           -8.27177119020757       -3.13848538851996        5.02926502278638
H           -8.55492077514955       -1.45225404477505        4.84804407790793
H           -9.01110902044044       -2.14871584096998        6.46598485279389
H            6.33956611029206       -1.50440080905374        8.30092496014267
H            5.63705733558351       -3.10058400711941        7.90212498199968
H            5.04981691884660       -2.16719089043204        9.51848370866397
H           -4.39814646500762        3.72875992743229        2.75877558809460
H           -4.82731714920510        2.08366050640830        2.59178302649283
H           -3.74483154360502        2.55290874754636        1.38677788274918
H           -5.23193592761368        2.59040439531421        4.88766056538933
H           -4.52436267086773        3.98128903237683        5.88116279081320
H           -5.77053428153523        2.83143604249554        6.49135808714906
H           -1.45802956301457        7.63731952413393        0.65585948440570
H           -0.31680267223534        8.00590175619649        1.96822136805854
H           -2.04797342320680        8.64751011055436        2.03496974991556
116
 energy: -22.786419742327 gnorm: 0.436372021656 xtb: 6.6.1 (8d0f1dd)
C           -3.19412194362276        0.31031244062175       -0.46375321945328
C           -2.36519081774537       -0.73220763785198        0.08239334551032
C           -1.08869715336191       -0.26731117596966        0.73133414414724
C           -0.69845732778414        1.15869703153885        0.49812609078696
C           -1.51256507009810        2.00783791856195       -0.21425181063943
C           -2.70068993101572        1.60686307468225       -0.67680400863006
C           -0.30963690329988       -0.97299556808476        1.62071251590775
C            0.97260327793114       -0.46094593318003        1.85722021819151
C            1.23928207804689        0.94728419836575        1.71839285154579
N            0.50209829081527        1.64894355160359        0.85872016873259
C           -0.67218971568147       -2.09269919846527        2.43860770709864
C            0.41965356598013       -2.85428836943809        3.08240580393807
N            1.67244430594824       -2.36112962709986        3.22019895959690
C            1.90592617480034       -1.14056439701346        2.70719774204928
C            3.05625585855216       -0.55062114550588        3.13364468362947
C            3.45398472932811        0.64272852161036        2.57007115276204
C            2.54564657091656        1.40936803481660        1.81466446264694
C           -2.03459804894433       -2.42193399561600        2.65160194647976
C           -2.36259903536587       -3.66945449190070        3.28183443908370
C           -1.28276934362862       -4.45304536100137        3.87133014258296
C            0.01260252587711       -4.11023290293900        3.59273608627345
O           -2.99132609252760       -1.46983853135119        2.41624995438492
O           -2.62236366191866       -2.02123031533901       -0.37789778818085
C           -3.60449325194975        2.64066386845947       -1.27262076654333
C           -1.61417542658940       -5.81859081691665        4.40387547197161
H           -1.20916751104721        3.05902973756243       -0.49722219487077
H           -4.12202622140313        0.11464027497213       -0.81707884229751
H            2.72967881164910        2.36762508056206        1.31695006773345
H            3.49078162451107       -0.87756352078207        4.07903711094218
H            0.75679789981940       -4.75737841234764        3.96940621345445
H           -3.37373398942381       -3.92184150726650        3.52157623403804
O           -4.16680662907098        3.55453153856436       -0.65673729903708
O           -3.88215075354962        2.42409873083213       -2.58097562192290
C           -4.82246377794497        3.38821091402456       -3.12263004360665
C            4.58113788255068        1.37202894884960        3.14485477489358
O            5.03501581999338        1.16188412205176        4.26001698232925
O            5.11555840502851        2.22354748816351        2.20733318396645
C            6.12119810145447        2.97327562132831        2.75499444297425
O           -2.54109384721560       -6.09921453228785        5.04207706856009
O           -0.68251046046479       -6.88584430366136        4.11753066273629
C           -1.09904092551550       -8.11729012604606        4.61176465669080
C           -4.32294707836094       -1.94178134851553        2.10984653415784
C           -2.64015347606925       -2.36911357808995       -1.80579323299836
H           -0.33791686575989       -8.55281129886673        5.37514590712936
H           -1.29577045696764       -8.77129380518811        3.79370489402584
H           -1.96908177162527       -8.07042837574153        5.29618244528619
H            7.04705348232195        2.36441441074388        3.10484650359888
H            5.71083636892047        3.63157814148595        3.63624122199151
H            6.61156740944147        3.69549470380604        1.94550628555662
H           -3.38091825716466       -3.13462402408884       -1.89354199143333
H           -1.58435911439814       -2.71475333128896       -2.03994370996063
H           -2.85571084065701       -1.60726351599783       -2.63669733400469
H           -4.17372378624347       -2.77176183172806        1.40711770557260
H           -4.71367626672950       -1.16112623130616        1.40204009108112
H           -5.03117517884724       -2.09440596064654        2.99840846691075
H           -4.87237825615761        4.28484467723408       -2.49212529521192
H           -5.66637623215182        2.90982887770835       -3.54304057404644
H           -4.38494709451704        3.83407022947176       -4.12933929779519
C           -1.78865829381069        4.29047640710413        2.98172273522597
C           -2.14487399448778        3.04770835004721        3.50506949093993
C           -1.41083018149406        2.57212242555545        4.71876169203742
C           -0.17003918215878        3.24017639335440        5.05048384916526
C           -0.00029511451319        4.59618229493822        4.54545757398088
C           -0.83469421377204        5.15409596907979        3.55368994160530
C           -1.73225666485655        1.29225869617085        5.30000712439348
C           -0.49483910553621        0.61284917326793        5.55756482778896
C            0.78404637697689        1.20811286005583        5.52960765340875
N            0.89066060207781        2.53583515517128        5.45184361232889
C           -2.94021954644133        0.56149008824449        5.48340548185609
C           -2.90182029977139       -0.82836648961862        5.77119217617934
N           -1.75616882957197       -1.46056575123054        5.97447507872267
C           -0.59849514640405       -0.75745987230369        6.00457270101034
C            0.57389603078177       -1.39975892644309        6.38399664049933
C            1.85742290425370       -0.81156845022855        6.22595925938916
C            1.95983914061201        0.50559473589150        5.92681455795274
C           -4.20594063832063        1.23125920214922        5.69889411456943
C           -5.39622325136741        0.43468324382488        5.65608167123126
C           -5.35149002960447       -0.95980907515823        5.67451784641004
C           -4.10815611809418       -1.60241858034324        5.73118075986341
O           -4.28451543205374        2.66482134170168        5.82494988568100
O           -3.04010069095704        2.20536899039036        2.83284272088046
C           -0.27592903915308        6.47200681722910        3.03155488813961
C           -6.57423430067124       -1.74381273096439        5.72122316373725
H            0.91601826326710        5.10253648151988        4.48102074622993
H           -2.16269366597501        4.65711976853631        2.13910260060675
H            2.82922182852823        1.07784042601900        6.34223597998723
H            0.38838633090358       -2.33832588680319        6.97217608350302
H           -4.00750195316658       -2.61564362794740        5.84588807849944
H           -6.34440955921793        0.91925724837994        5.72221427201654
O            0.41095131860004        7.36529848971627        3.56781371393310
O           -0.81931427726934        6.74301212748224        1.71944632765253
C           -0.26476014486151        8.05701197712698        1.27123291659187
C            2.90321094763683       -1.82102772123876        6.62073899210765
O            2.48322763261560       -2.81382325826208        7.25049252560503
O            4.22389189572924       -1.48596233786784        6.61952962244229
C            4.91057250530093       -2.63368602698580        7.04860583733894
O           -6.44557512988890       -2.91927331777859        5.78873830160222
O           -7.75834740220183       -0.98838653054023        5.68927336134353
C           -8.87747853911493       -1.78245300714380        5.87727390779321
C           -4.31689963307748        3.02997491557954        7.17240783455603
C           -4.26514326237605        2.70832016481729        2.38243635172819
H           -8.69543048001001       -2.24946317864218        6.79253752996850
H           -8.95056985345699       -2.67001788129536        5.20737783306828
H           -9.73786131483841       -1.15561959968837        5.85247524222845
H            4.56371221327541       -3.57518281418628        6.79270909427157
H            4.78887472000976       -2.53464012616872        8.14024531240613
H            5.97936102126635       -2.65285424577747        7.04811179278376
H           -4.47554034217267        3.67096726341453        2.87554309796206
H           -5.02817386209951        2.03877570441551        2.89131873182985
H           -4.33674203724953        2.74005676028771        1.34022598145820
H           -5.25789393675938        3.26617808841753        7.53659916049999
H           -3.65861484441198        3.92627873766155        7.41011152424880
H           -3.70995024417449        2.13879212024534        7.65494571512107
H            0.73150549603575        7.73377161121116        1.16801084886190
H           -0.21195162136436        8.84844117877316        1.99206764900555
H           -0.56619804184657        8.63101908104657        0.33208008099886
116
 energy: -22.801822683179 gnorm: 0.392988964971 xtb: 6.6.1 (8d0f1dd)
C           -3.07182088979227        0.04128838413429       -0.47830923833882
C           -2.19715049229766       -0.77037078884844        0.30216568781691
C           -1.21401219846824       -0.16419799144195        1.06502991810316
C           -0.67585083951311        1.11876582980521        0.62744071283711
C           -1.46895380643368        1.83062195285307       -0.31528335333513
C           -2.64047775391465        1.31906360129174       -0.83217866815181
C           -0.23206655450353       -0.97270421852174        1.81396203121922
C            1.11056865787578       -0.46355926393205        1.98861536528895
C            1.34924265320640        0.84531964607432        1.59147178059996
N            0.49291536812355        1.59613548344825        0.99300096295318
C           -0.43385973208703       -2.18753586911402        2.52495285504247
C            0.65720123786242       -2.96802239669747        3.06108853026372
N            1.87238039465243       -2.47242118251898        3.20492735151410
C            2.02732223355353       -1.17734716490862        2.80098816465129
C            3.17273859738832       -0.57545668550614        3.14054302511444
C            3.42828018646424        0.74532479419198        2.80883862480062
C            2.49413861780643        1.43079691385220        2.16267255496742
C           -1.72367172749817       -2.71389769379235        2.69152212721706
C           -1.89528626477554       -4.09707146539021        2.75902839155605
C           -0.84999755876857       -4.86286743631247        3.26506550632350
C            0.40153718220101       -4.30923693066445        3.45677888311601
O           -2.82068947730487       -1.86654178965984        2.70546952754040
O           -2.13220079781033       -2.17816505429675        0.17448600211570
C           -3.51700510315913        2.47236540333638       -1.20748766763768
C           -0.90871161194996       -6.37750166474934        3.43757937266307
H           -1.32475465130341        2.88867908986135       -0.67621204557846
H           -4.06889171773098       -0.15606170617326       -0.75249520928569
H            2.71315720954553        2.40769755168710        1.85758638669643
H            3.78514441242894       -1.14403251109846        3.79631320057136
H            1.22321737531458       -4.95219955776281        3.80877626950130
H           -2.86855942882542       -4.50708760106564        2.68256524987344
O           -4.11344960032758        3.14560552208815       -0.40038047271697