116
 energy: -22.928061455056 gnorm: 0.329736929581 xtb: 6.6.1 (8d0f1dd)
C           -3.31122850772930        0.79849766164622       -0.92477639677520
C           -2.44380812530352       -0.12270372891954       -0.27661132624697
C           -1.41337090092821        0.39579727573559        0.56335275196199
C           -0.89266158675590        1.65801491088749        0.27377586709581
C           -1.72665675402493        2.51431363229076       -0.49448366572522
C           -2.95444148494349        2.13954154133227       -1.01494489940871
C           -0.74098268209890       -0.43411532818871        1.49825021926784
C            0.56872586496315        0.03782116815119        1.86248088067890
C            1.03782416582094        1.29402317993033        1.50887470833621
N            0.31238977034758        2.07067427098208        0.65193736800696
C           -1.29695700510141       -1.39996043042223        2.41574187746061
C           -0.38243517664656       -2.18060797534842        3.13232615520648
N            0.91308504082021       -1.90366887689689        3.30325166013478
C            1.37712470144904       -0.74872102533751        2.81811050966982
C            2.52149331701875       -0.17739833758153        3.39379298866852
C            2.95849061756259        1.02681208890480        2.95105897606587
C            2.24288949469137        1.78498308775960        2.03503020483770
C           -2.74860936222260       -1.74497937691422        2.38401158947411
C           -3.09416315450955       -2.91614440870436        3.00571134491758
C           -2.16786021984049       -3.77788778654213        3.63251872101904
C           -0.85708937311598       -3.40495313382985        3.68547234358092
O           -3.71994433332149       -0.94984598373544        1.67726658385724
O           -2.55702603277562       -1.47241711578389       -0.57241635275616
C           -3.84297843593025        3.13357444054366       -1.60938954875544
C           -2.68769581069131       -5.03867041417370        4.30484659386931
H           -1.39666850744143        3.51251503834900       -0.76806311868865
H           -4.27662633836220        0.55105838579656       -1.33106614114542
H            2.66329581305412        2.73912661909249        1.72562431984580
H            3.05775395548473       -0.69369546277216        4.16536137542516
H           -0.24710966264510       -4.12034095424229        4.22946223699121
H           -4.11477991332403       -3.04712728052358        3.03244694615357
O           -4.21824883374556        4.03433712717988       -0.87713382485991
O           -4.44510595673734        2.90643496899600       -2.81853501752979
C           -5.44216520282800        3.83300025693726       -3.02488532025093
C            4.23586651889298        1.50004220933226        3.59165660008449
O            5.05927614697201        0.66079890002952        3.91714215179376
O            4.47001334453535        2.86385149488593        3.72605651435371
C            5.79457498613219        3.08584475587818        4.15829123132174
O           -3.82227255313510       -5.27347675879771        4.16636005494405
O           -1.85023202017753       -5.79767454267276        5.06656077253571
C           -2.55119635829503       -6.86252441382958        5.62930343183426
C           -5.07197156564436       -1.42399175670916        1.58830531863830
C           -1.33089900128490       -2.23622472573986       -0.99264499351172
H           -2.54510546830388       -7.76426885143998        4.99136022291012
H           -3.57194749219491       -6.44405511486021        5.74196173723541
H           -2.09133598235598       -7.02043774843818        6.64022264233588
H            5.72707967266424        3.46798026205549        5.10135971236643
H            6.34060091246885        3.78468702308830        3.50069950143490
H            6.17933064298187        2.03010500085905        4.19342358084693
H           -0.91862729772622       -2.57650129080332       -0.01361370304871
H           -0.49769766914251       -1.60651221708571       -1.34094446550576
H           -1.52632419730509       -2.94569707152159       -1.75361447637286
H           -5.11788846557077       -2.41810833635233        1.17520213188926
H           -5.67929807973498       -0.69619639428435        1.04301666067831
H           -5.57598832326623       -1.42383358739762        2.57928294206544
H           -6.13050215934830        3.76035386975488       -2.23272855695873
H           -5.86615610071888        3.45938329385866       -4.02668959924245
H           -5.13479557532099        4.87790991548477       -2.98314551356402
C           -1.38192942069774        3.73616555005018        2.91232598411686
C           -1.84821468128685        2.59982427735607        3.49755545445181
C           -1.05946531454833        2.05730632010638        4.60922730982276
C            0.19893954712228        2.69376791964407        4.86302140881997
C            0.50425395911860        3.94630308659851        4.28768785650746
C           -0.26031777722226        4.46998310053134        3.25072669343212
C           -1.20488993561782        0.74454293276906        5.14851520323437
C           -0.06287609782692        0.02744069315890        5.60930570802864
C            1.19208754369866        0.71421540266195        5.78882868583885
N            1.19428660993148        2.06344359410476        5.62744624321596
C           -2.41361422770794        0.07928500213936        5.25249410304426
C           -2.45851584031083       -1.32662100968547        5.60237876023992
N           -1.29466212405906       -1.98318595734370        5.89916817085159
C           -0.14475655767527       -1.32117560077092        5.98824682881008
C            0.97209270935794       -1.98958449505532        6.53157704134458
C            2.21982707914082       -1.36973967291181        6.68703967237737
C            2.30561929262884       -0.09745313075593        6.26436900324455
C           -3.73018485967715        0.71367583494582        5.25810242262992
C           -4.89964478833448       -0.06184623426677        5.21204641615509
C           -4.82617965800088       -1.39228978090841        5.46901303780036
C           -3.67144193418464       -1.98914944386360        5.67265433266067
O           -3.75568638935321        2.07705011038914        5.52067969627343
O           -2.94192434743730        1.91263938797883        3.01658762327703
C            0.21273512614467        5.50086066357994        2.34765104514621
C           -6.06660304520411       -2.17604633098929        5.80641622556876
H            1.41756699010566        4.38133362238595        4.66974005703471
H           -1.82880610647429        4.11982501512100        2.06992133318584
H            3.26888037378556        0.32655662585251        6.31721410015598
H            0.87146188387207       -3.08471526305024        6.57830423410869
H           -3.67716811065157       -3.05999292755990        5.83019634570050
H           -5.77379677507622        0.43595144608221        4.71017130754348
O            1.34459852619901        5.82615848916894        2.44941456579099
O           -0.74718748219123        6.07961784856304        1.59848183464284
C           -0.21473095568964        7.24015934882472        1.05753806029483
C            3.53228080814219       -2.00967610361154        7.02506769044485
O            3.64093082622715       -3.14437803815732        7.50071391725347
O            4.56565258381079       -1.22937033368332        6.69086985080897
C            5.72579357310716       -1.80692399125161        7.22246151275881
O           -7.04801223588612       -1.95726935745904        5.14194115322235
O           -6.01514389321278       -2.93743591896022        6.94765316328794
C           -7.21292732384718       -3.62681918543340        7.15115816329978
C           -4.95459780685163        2.65960679932188        5.86868674392943
C           -3.68284113682406        2.59129188358641        2.05479246020704
H           -7.43119628931628       -4.22607794725959        6.20622607140901
H           -8.06548455146707       -2.91765848248592        7.29781126410398
H           -7.07314693247270       -4.33087306029711        7.91223421050944
H            6.57332189837178       -1.29353136199234        6.78341268688262
H            5.74663761932316       -2.84282155125561        6.88089468184451
H            5.69426191474290       -1.72781984964892        8.29460302186842
H           -4.10481209541493        3.44288266176275        2.60483747673152
H           -4.49244774344916        1.87419893016926        1.82433103764650
H           -3.18901540870812        2.85154642679373        1.06781919454921
H           -5.55414326821421        2.76698137191684        4.93950725322359
H           -4.78658370641210        3.62090640967288        6.25983200635257
H           -5.43485580473958        1.97242995129449        6.65265772412460
H            0.89164886030839        7.38838561720231        1.13776105146914
H           -0.62894889903848        8.04195665205089        1.64837664327952
H           -0.59282546386754        7.45699159724320        0.03719083132488
116
 energy: -22.658935788411 gnorm: 0.493269868804 xtb: 6.6.1 (8d0f1dd)
C           -2.71661958798483        0.13526749306298       -1.49664236641881
C           -2.02073745252472       -0.76717895410573       -0.66014812185196
C           -0.92428741778313       -0.19131161191721        0.03495639360938
C           -0.40043000162260        1.08738596134544       -0.31781475795120
C           -1.12214160312057        1.94024900909959       -1.14652841325745
C           -2.22423604628784        1.43066152000627       -1.82050238279507
C           -0.43785803485119       -0.75478329402162        1.32019030310058
C            0.92224634932028       -0.49502907633901        1.45109603631576
C            1.47072197544909        0.62086845022285        0.78546798262985
N            0.72505106830502        1.58353202457526        0.15902432828288
C           -1.02037426176500       -1.75924441339865        2.22134071278565
C           -0.14034286048165       -2.72742105990954        2.77658928094337
N            1.17467577839048       -2.37985256364748        2.99949176991183
C            1.66677646722629       -1.25605170198182        2.41454693727671
C            2.96690534359842       -1.00135219066822        2.81159221642534
C            3.49073038211484        0.02497290643914        2.05286583711592
C            2.84889481269779        0.80043370368238        1.08178197295459
C           -2.40421952157858       -1.98265599378954        2.47206351138193
C           -2.89655824860128       -3.20247698046577        3.09433499568743
C           -1.90770755936052       -4.16106984164724        3.48351309686776
C           -0.63213694698693       -3.86370878522053        3.31088139790950
O           -3.19278869396488       -0.93968568164959        2.12120162474252
O           -2.65276622451741       -1.92571302941827       -0.24112376267632
C           -2.99914684093309        2.39713881330392       -2.61644515330275
C           -2.23711139212250       -5.47764487078892        4.01583197014279
H           -0.74937029917916        2.95143283989918       -1.12277987649564
H           -3.76988013234780        0.06963746671986       -1.43838047645715
H            3.11087154381933        1.92991139175008        0.75382229888201
H            3.26928536203453       -1.20936064022066        3.78865182368635
H            0.15848430147292       -4.67628495417938        3.35649167152218
H           -3.95923982858883       -3.22823495517972        3.16094919933937
O           -2.46575355017994        2.95242733251247       -3.55755213561088
O           -4.20976621700612        2.55649721200294       -1.99702944541291
C           -4.97839660511432        3.61443348013065       -2.47694167351972
C            4.76202366674130        0.48128823453600        2.71226140979882
O            5.20275340290419       -0.04080834628104        3.73385729838312
O            5.57910135930497        1.17632404125651        1.82584972128359
C            6.91351364313750        1.27382016073382        2.15715490204900
O           -2.30853993919303       -6.45463309022962        3.32760547897723
O           -2.65335088662714       -5.69313761335603        5.33721776129287
C           -2.03790645802005       -4.84277595235892        6.27392691149405
C           -4.47232996833432       -1.13451427959589        1.44915051200847
C           -2.20803632456244       -3.18333808032134       -0.80688767812327
H           -1.73859924934593       -3.81806111305197        5.94064563642994
H           -1.08358784628677       -5.36284759525318        6.49804447608336
H           -2.72274053339628       -4.99349640680237        7.09412790746892
H            6.87206697410242        1.59737121989709        3.27439973368744
H            7.65101726262186        1.82369323927898        1.65035434413063
H            7.15073161315099        0.24508352446585        2.23366000487250
H           -1.42318449022962       -3.01529085204632       -1.65473222012020
H           -2.83901783726987       -3.85766179509828       -1.36586471254778
H           -1.53040412136258       -3.80196120655925       -0.05741511686585
H           -4.67775642238750       -2.17077869393088        1.59847822167141
H           -4.42965141100628       -0.68982899457315        0.43671950845897
H           -5.19860613046423       -0.76260406850179        2.21531860580639
H           -4.28746724762269        4.01595001361593       -3.26662238881091
H           -5.28579921761929        4.33674103326829       -1.68558257239448
H           -5.89372405326674        3.30522164712584       -2.88812074269236
C           -2.48734484110383        4.20189576425985        3.96091406625012
C           -2.74115267730693        3.29143814167593        4.98533992981933
C           -1.63351823331408        2.91529448334961        5.83830052275905
C           -0.42271239232011        3.51986821273892        5.53171412317052
C           -0.42371448955303        4.72822244183319        4.80249040878608
C           -1.47196056590107        5.08358718367485        3.92063593098960
C           -1.64756132361161        1.47355804014991        6.24001508848840
C           -0.37911588993778        0.79991986234164        5.95496147155530
C            0.78547163564212        1.56040206035431        5.81859918382315
N            0.72234775630111        2.82478947994177        5.61756995285637
C           -2.78427435508018        0.51720075508879        6.59664628325356
C           -2.69569576709298       -0.80344672660027        6.25483322159714
N           -1.44436681290976       -1.28491809295986        6.15545456263518
C           -0.32823240757357       -0.58045295901291        6.13874386358550
C            0.84992811448763       -1.17864125434646        6.07451599369621
C            2.01806301479857       -0.57027521869038        5.85938508395759
C            2.00254145498058        0.83499442564338        5.77870257660400
C           -4.10508350180919        1.07650651487048        6.95429741644577
C           -5.19335187103787        0.22768689954679        6.60171995809815
C           -5.03906081679816       -0.91507024056859        5.85914810879380
C           -3.78858320466679       -1.45817630888599        5.64420440885328
O           -4.45893474320626        2.20397966752100        7.62623776801176
O           -4.03288082036647        2.66616981741196        4.65498883193192
C           -1.51389886590471        6.18693041809680        2.99799607160469
C           -6.17061503823530       -1.73318462363459        5.47907274722851
H            0.39525960475738        5.40043569532191        5.04027461792818
H           -3.10841933576025        4.30494849606264        3.04425449528027
H            2.94600940214698        1.42185614341042        5.60569345735458
H            0.86029497313669       -2.24397323368791        6.36747594147402
H           -3.68652523834366       -2.34523832902938        5.09722665362618
H           -6.18681844992045        0.42760084084673        6.76046339801170
O           -2.58573661104300        6.59320673524038        2.70436936111390
O           -0.30939806133428        6.74293736906075        2.83240406808485
C           -0.42751130380871        7.76717429618860        1.74922662185138
C            3.25221071379384       -1.24499313371168        6.25617361166064
O            3.69579620191004       -2.13217058250607        5.55932060540751
O            3.71931773281357       -0.83515672546659        7.52358761332789
C            4.69962738819423       -1.82528688102438        7.98385139169331
O           -7.26842722992809       -1.47503203583352        5.95642435274970
O           -6.05392802573931       -2.63999844330577        4.47200369893085
C           -7.29574197924640       -3.19984287257927        4.09395618588848
C           -3.49358974104768        2.75324566829143        8.37523926119516
C           -4.00880380697301        1.78237895750696        3.61486668508959
H           -7.93756534625470       -3.43670073608289        4.96462220038248
H           -7.10010730099330       -3.90051605180409        3.40879947133076
H           -7.73407245642510       -2.29967803158252        3.45826878894171
H            4.29323958702757       -2.74758376957203        8.54533211415323
H            5.22842522370410       -1.46900065686328        8.86277373650528
H            5.13934209942203       -2.15120799821909        7.04733839745812
H           -5.03911966220678        1.82596245290047        3.15038783887260
H           -4.09410912053431        0.74286892797884        3.91690617865397
H           -3.43595152911124        1.97089959400448        2.77463459963582
H           -3.98434167449217        3.59233928093401        9.06826049156506
H           -2.67973256354846        3.24127062129547        7.78524974595840
H           -3.10221462519792        2.10616806200471        9.24528287470449
H           -1.47377021347406        8.09075780715976        1.63657823339142
H            0.12339618477663        7.20798240933377        0.86454202654596
H            0.21118392510646        8.58848954866030        2.11468807571431
116
 energy: -22.690382720939 gnorm: 0.472953023862 xtb: 6.6.1 (8d0f1dd)
C           -2.23976165428380       -0.05195975197778       -1.29013331022319
C           -1.44213205402431       -0.93002471726457       -0.55955052455397
C           -0.54509658911625       -0.35411881204846        0.47753959727605
C           -0.13243081973951        1.01187168421014        0.18270670441607
C           -0.97657870736416        1.91194879506030       -0.56990402591513
C           -1.99769250383875        1.34405334128049       -1.33769458998233
C            0.06780638109371       -1.15637583883421        1.55282157340761
C            1.37996564214342       -0.75392428849056        1.67293567393387
C            1.82388079795029        0.53041042516469        1.14316170269529
N            0.98763440899220        1.53954994202923        0.73248039867874
C           -0.55190492733025       -2.08393027123700        2.40657591849763
C            0.48335161234282       -2.97139387473639        2.99210852743033
N            1.86990429950994       -2.81230903175100        2.81477980640555
C            2.28732504549898       -1.60316452599823        2.32629423665336
C            3.59792411432682       -1.21829870395192        2.37897227058759
C            4.05344305156693       -0.09421499168614        1.71444707181532
C            3.18468648070919        0.77076624107534        1.16804313458864
C           -1.97762913572627       -2.40635963941587        2.40271875884533
C           -2.23676088089124       -3.60746538554427        2.98305258287580
C           -1.35898436370585       -4.37723545784699        3.74208918427970
C            0.06753202133762       -4.18214053550496        3.75285014140638
O           -2.89470052735584       -1.47706542353430        1.68540899559117
O           -1.60787058459157       -2.28352823345561       -0.85465303759316
C           -2.89298905461733        2.11175602290675       -2.30607030637985
C           -2.02616977875117       -5.58967263240062        4.40606919642411
H           -0.66616545954732        2.92847859049844       -0.89020647976939
H           -2.94736141340754       -0.47005734638529       -1.93677827193542
H            3.60289167148655        1.76457759700963        0.65128066499227
H            4.31658392932123       -1.68382843806180        2.93705153615435
H            0.75872298114435       -4.89588397206544        4.25052875144215
H           -3.23654928125345       -4.05686431606975        3.01132712730818
O           -3.34464085151237        3.14217868462970       -1.77939686043177
O           -3.03652487239031        1.64560248400662       -3.55495766766688
C           -3.94063042837770        2.52671133650045       -4.24177069839098
C            5.49403851255682        0.14078557505370        1.70846128098237
O            6.19312551156762       -0.74666867936934        2.17548403604902
O            6.10786664784175        1.25368312613588        1.04369840159261
C            7.49703438067359        1.20944494709044        0.74940529513670
O           -2.84094740509288       -6.25585044462192        3.87741340546752
O           -1.59394149526996       -5.94658699720619        5.75867618802270
C           -1.59667926318651       -4.84036298118164        6.67613363700210
C           -4.25660540618223       -1.79193491977366        1.92451870945510
C           -0.70233112277516       -3.24974124653558       -0.38551821381940
H           -0.96991650574239       -4.12606370294850        6.24214255526920
H           -1.15209172710804       -5.24155594150899        7.69856924831030
H           -2.66785907016946       -4.46331187294155        6.65404345317405
H            8.07719915572037        1.18669068166575        1.63154776186407
H            7.57798856384221        2.03673433124563       -0.11963250443558
H            7.60717263026414        0.23193389758309        0.20867889935972
H           -1.15336345025050       -3.74250831555667        0.65872227079062
H            0.33241900140980       -2.88337738909708       -0.12955863813454
H           -0.85113788712063       -3.84575548796564       -1.34396171832284
H           -4.47017197429311       -1.88578632281653        2.98929592819821
H           -4.67217679966226       -2.64336150307083        1.31881096705701
H           -4.71502274485581       -0.95984588590838        1.42284012991968
H           -4.80628533390599        2.91446838526865       -3.59020677170076
H           -4.15480973905745        2.25273216100542       -5.17970232791862
H           -3.21039530383299        3.40101917456466       -4.23686775607607
C           -3.07189409452920        4.96811096647123        4.32542032239310
C           -3.17767253926003        3.61562340375095        4.02289605575800
C           -2.13708277351313        2.71640220817282        4.52517536625980
C           -0.90626242241560        3.28888675243161        4.94997146145161
C           -0.79244667867502        4.67640621243878        5.10810477033103
C           -1.88467888211621        5.48757551644354        4.87800081827983
C           -2.23365070517449        1.32482934361549        4.96876497645063
C           -0.97636623510857        0.64029585764240        4.98885147676911
C            0.25182305695740        1.28466154666810        4.97978619933067
N            0.33704863994382        2.65480581846684        4.96064517988696
C           -3.39398651540229        0.65173398613738        5.42824654242371
C           -3.25613758400709       -0.65879745218940        5.84881686099866
N           -2.03498793856222       -1.36205137859084        5.93612938644685
C           -0.91889018411557       -0.74344917832957        5.48890474910467
C            0.34493637122961       -1.47329252791057        5.67146462841407
C            1.49380944703269       -0.79850171863929        5.45093655519750
C            1.50452056175739        0.52180119526110        5.08444498660893
C           -4.66423440442687        1.25898671174024        5.65366589995562
C           -5.76592504978050        0.39056957348293        5.82439090030849
C           -5.65187614372929       -0.93123592950389        6.14272006793021
C           -4.40207408189783       -1.44528333492821        6.26821746902097
O           -4.85032716903542        2.71421071455520        5.78442784272930
O           -4.19105727071455        3.02337252020983        3.21858621926596
C           -1.66353280927372        7.02420777696716        4.99289173231844
C           -6.93395251558525       -1.46144167759719        6.44863413461334
H            0.20308291560911        5.03294751183845        4.92662840026139
H           -3.80897665662209        5.75951070321993        4.15028621845174
H            2.49269892656698        1.04882740181748        4.97687774095207
H            0.48800972949856       -2.42294430914767        6.28070221699807
H           -4.17829125346928       -2.45417874566155        6.26258537374972
H           -6.74257481464160        0.76539830166151        5.80870753756068
O           -2.61999818563392        7.74877811659042        5.41004195628321
O           -0.33004699294667        7.48149292517173        4.94344812429420
C           -0.25051117126057        8.89932811435093        4.78769605630517
C            2.62509784873968       -1.56863081577324        6.09346469336674
O            2.55128490767343       -2.85096776637755        6.06259627388150
O            3.67515664195132       -0.78633089465846        6.66372122614312
C            4.75337776668811       -1.62013986871446        6.82623969121787
O           -7.87765770748415       -0.69665561448470        6.76098086519013
O           -7.11664856509691       -2.79463274170412        6.59863141155124
C           -8.32255596468735       -3.10644025571746        7.05948012917717
C           -4.26253400345728        3.29557649863792        6.88043445990083
C           -5.43488029961298        3.69963802944767        2.59576530728074
H           -8.33341724081426       -3.71935078041666        7.95088428547339
H           -8.97495325459805       -3.63334889638556        6.25794810828963
H           -8.86152669011232       -2.24229094761869        7.39920459474698
H            4.51993917686826       -2.36268232915958        7.63292087130445
H            5.77664779196509       -1.22883466788631        6.97315885200559
H            4.82042121514031       -2.10931405971785        5.74880575722633
H           -5.37125239219579        3.93352744895804        1.44981768440892
H           -5.49015861896280        4.61351236880076        3.25095999892762
H           -6.32049695439884        2.96874582467293        2.66592449560244
H           -3.12790984497639        3.14472571064439        6.54669436397930
H           -4.56060871877300        2.70509900470192        7.93309587852117
H           -4.51822098963660        4.35331730499394        7.09783317207555
H            0.79067811218552        9.21697513804921        4.50663299129468
H           -0.20834912786999        9.13977520326927        5.88983524222454
H           -1.09669731084205        9.51634130982072        4.31878979411765
116
 energy: -22.644489486634 gnorm: 0.496474311140 xtb: 6.6.1 (8d0f1dd)
C           -2.82651192187163       -0.11524079037877       -0.94610725609314
C           -2.21653957985403       -1.08425564810217       -0.13797938968713
C           -0.91891465659453       -0.69111324445702        0.42277664079444
C           -0.28496320779487        0.48249775395495       -0.04648420516195
C           -0.82137440717228        1.21297719804725       -0.99850830702948
C           -2.15903695699556        1.10285705874250       -1.10978085322769
C            0.03951819562692       -1.63941374696458        1.16016686044310
C            1.39759377315219       -1.34121710623850        1.27894711807596
C            1.90886375127885       -0.06906343802745        0.85000532612776
N            1.06343055730636        0.76008032120055        0.14253886363949
C           -0.33756587963605       -2.70888804488546        1.91838513268533
C            0.77371939961896       -3.53756809554856        2.40936124634813
N            2.12061561261552       -3.29184008727656        2.40184646133089
C            2.40691177643750       -2.08092102646549        1.91238977258545
C            3.76119187708975       -1.67329768863872        2.12289931187861
C            4.14424514713776       -0.36900815870960        1.72341193509269
C            3.12659819025635        0.48508233258862        1.22260709863015
C           -1.64626314672578       -2.90774156213701        2.37428427072761
C           -1.85879956020536       -4.24628415910796        2.85150606778612
C           -0.85095680717926       -5.05744827527839        3.30298835333139
C            0.48908454457330       -4.80784905696494        3.00025156659917
O           -2.60718985817255       -1.85118531303425        2.39968888744263
O           -2.70185525623956       -2.39576061452724       -0.07354148937604
C           -3.05009794081457        2.01768982112668       -1.91434574901907
C           -1.31509334256556       -6.19978722341846        4.13777100462073
H           -0.52648248933258        2.04329550067444       -1.67043104984670
H           -3.91386511848160       -0.16554774772589       -1.15024816246627
H            3.43600910839929        1.49674705542521        0.94514257276458
H            4.41443155208959       -2.32629003654195        2.70090582451211
H            1.26671039498676       -5.47553721961508        3.22556371665739
H           -2.90786733775566       -4.73215778405774        3.10714381341068
O           -4.25943501491633        1.77106860884838       -1.83603273774239