116
 energy: -22.883689911950 gnorm: 0.370542270108 xtb: 6.6.1 (8d0f1dd)
C           -0.60510730568970        1.10480515530529       -1.02688507695053
C           -0.88913108382548        1.83066927720080        0.06930351857669
C           -0.05645262363152        1.72154992234213        1.22593114342268
C            0.97971509134980        0.74964114439540        1.21821776378838
C            1.32256729602741        0.13560454023148        0.02805336937858
C            0.59794184057702        0.30320119360764       -1.14097633645893
C           -0.46836260111354        2.13112521337438        2.51694553642022
C            0.14747708636161        1.53578441027428        3.68704447201490
C            1.09606270109000        0.55265080038823        3.52595826935239
N            1.59355611629721        0.24317842543609        2.31625489142434
C           -1.20091767378066        3.29776257236547        2.84263141143154
C           -1.67848386504907        3.37173333131493        4.19801180403374
N           -1.37871631076578        2.59768401750543        5.25655024227488
C           -0.33192496065162        1.78424929866780        5.01094689805419
C            0.09893956802985        1.00130479892242        6.07102139820715
C            1.14964576090371        0.06879975008120        5.89580072964941
C            1.73268397573537       -0.03297310734631        4.58856825999890
C           -1.43896017127328        4.42417596948953        1.88370835805870
C           -2.52584496687134        5.24381373998149        2.19884590063328
C           -3.16401835863990        5.24145308221914        3.46118660121404
C           -2.63209202421767        4.43329894852807        4.47506133339696
O           -0.59988653441765        4.83613405995238        0.88924687926435
O           -1.98446816030717        2.73686851810833        0.00975867435618
C            1.06312688985480       -0.32641173085809       -2.35253270873424
C           -4.22524799859661        6.22847867602499        3.70039115823124
H            2.12639416475416       -0.60949693810751       -0.03754682379705
H           -1.20148312692676        1.06913420693694       -1.88318955424366
H            2.55745775016022       -0.69562661370978        4.39286544752152
H           -0.50493294819654        1.09350442890780        6.97651932712687
H           -3.26004518735694        4.32706039217343        5.38504363371056
H           -2.75100855719282        6.00206406898005        1.49405461501494
O            2.07899027316231       -0.99891836049981       -2.34350969836577
O            0.35254172676736       -0.25758910708048       -3.52537407411311
C            0.78419154311333       -1.17624880254022       -4.41805194517788
C            1.57432432550064       -0.42795137674397        7.28403485522644
O            2.46766310754302       -1.27893124191529        7.27650594964840
O            0.75182447021345       -0.28203019853207        8.43469391650451
C            1.49248851397715       -0.60816987620243        9.58927524395495
O           -4.57487708190276        7.02351702316641        2.88458728092777
O           -4.91257026989903        6.20368273895655        4.96225975427248
C           -5.89394665072226        7.23134772991843        4.99566803324648
C           -0.78046403596665        6.03247000545731        0.12878558334333
C           -2.91481852451894        2.81700282790714       -1.09123071859488
H           -6.09619905747971        7.50958817869146        6.02473960715212
H           -6.82488723558695        6.85478203035695        4.53097231809130
H           -5.49981448859086        8.06537638539623        4.38657071480052
H            1.89899000850544       -1.57214667221003        9.47521914477937
H            0.86825296064079       -0.42490488234124       10.39952953671540
H            2.43436853477865       -0.04103456538563        9.87741362053128
H           -3.51293019137822        1.92657957162557       -1.12809740259623
H           -2.37581135141817        2.81758980954856       -2.02146132494077
H           -3.38116526837349        3.78899949954716       -1.06561510614147
H           -0.22894415426723        5.88896145803729       -0.79660946044358
H           -0.41958037616253        6.86174381593309        0.74437754673356
H           -1.86904545377762        6.05581303866909       -0.17053533729752
H            0.76333737490316       -0.72102198033960       -5.43752646200879
H            0.11966961403582       -2.01074374717086       -4.42967078211357
H            1.80245146847461       -1.40437782695378       -4.20502691856438
C            1.43755392845260       -3.45169761196268        2.68532028348905
C            0.57615317948311       -2.88512191199993        3.69236026014089
C           -0.73236565014328       -2.43354271750581        3.27662968172750
C           -0.98893324424410       -2.46541120304699        1.90630297964335
C           -0.12614705225910       -3.01968174362798        1.01059734573263
C            1.12570274358541       -3.48153767328232        1.37117000478445
C           -1.63639243386260       -1.76688658626981        4.19768586941734
C           -2.59201437086143       -0.84862257089973        3.62825971656477
C           -2.73898426466509       -0.85528369765848        2.20870745224021
N           -1.95158327289733       -1.63821445717278        1.39309278079358
C           -1.91367495752653       -1.91428901923485        5.53853604916913
C           -2.46574150858530       -0.84727054470117        6.27887256423737
N           -3.12877846895595        0.18265298170225        5.72744010858549
C           -3.34989705322926       -0.00994723755578        4.40865780714585
C           -4.23423158931644        0.88107436545982        3.80646123102213
C           -4.31159163437058        1.04618810577765        2.41907386464262
C           -3.54029982475231        0.16252763191152        1.58736990969948
C           -1.59922670974934       -3.19914068644388        6.19484201368287
C           -1.43302535438451       -3.10219387778018        7.57366913262134
C           -1.90636216416729       -1.93468755220271        8.32235357690629
C           -2.50652737139434       -0.82783184986018        7.68383142694001
O           -1.43568227373522       -4.30641506506513        5.39792407347860
O            0.96240016266434       -2.67118755717409        5.05359233477907
C            2.17790045100987       -3.67453415863014        0.31929001172792
C           -2.05356568986533       -2.00974664045950        9.84902357826875
H           -0.30463216537082       -2.85771898639466       -0.02824880966232
H            2.45100911648519       -3.67110693390891        2.97179218558212
H           -3.48721398843469        0.36240282450881        0.50743480629194
H           -5.00562876059130        1.27452328511616        4.44341606204314
H           -2.39065394356305        0.12773744257403        8.20557657942746
H           -1.10505017543746       -3.92286368620921        8.10743109256931
O            3.31113424584868       -4.03177839952282        0.71099062255394
O            1.87878040928139       -3.54821424279283       -0.98297993033004
C            3.02195566484295       -3.62491089206276       -1.80546305023700
C           -5.34709139785427        1.94095124676063        1.73654108974802
O           -5.94915088201630        1.61857387014889        0.75361486343005
O           -5.48401055291774        3.18037121084912        2.35231705446712
C           -6.58148042676154        3.95473146147948        1.75049008915650
O           -1.64928681542616       -1.07016675682536       10.44263984132208
O           -2.57343840027541       -3.11631411642394       10.29088965491807
C           -2.65434252134067       -3.02071649325938       11.63859007608873
C           -1.64285313463260       -5.66964909273481        5.92989923774871
C            1.57215739651053       -3.76869780116141        5.69010646544732
H           -1.86799893564562       -3.70588577169939       11.99483541513801
H           -3.62478555544270       -3.44035391575103       11.93512192320341
H           -2.43854650558927       -2.02283317652840       12.01092124340188
H           -6.35869435165764        4.34609609025200        0.77566490773214
H           -6.65242776591364        4.78642034590971        2.38480397145146
H           -7.58325898089377        3.60751289723786        1.73173154710114
H            2.45311564772040       -3.37804581994958        6.15679065279445
H            1.96316175767624       -4.49944159296741        4.98101891726711
H            0.84518824236527       -4.12228311274447        6.45631081263516
H           -0.76368358143643       -6.02029834436997        6.29958375518488
H           -1.74610857862874       -6.31122707600050        5.01939700725105
H           -2.39093628569247       -5.72768173453229        6.69286746475413
H            4.00283354216691       -3.34561742239387       -1.35137947753306
H            2.89105269696957       -2.94105410410477       -2.67307676970866
H            3.19525028363031       -4.69213538740977       -2.12275038128555
116
 energy: -22.784114762687 gnorm: 0.420567844088 xtb: 6.6.1 (8d0f1dd)
C           -0.83331676827773        1.42771338357595       -1.34039737414927
C           -1.29196651606247        2.02837833189868       -0.20210964999137
C           -0.59512687998668        1.86248063445174        1.12075846813527
C            0.66684899979495        1.14404085236257        1.10522886276327
C            1.01560252759456        0.57325798469355       -0.10930895510704
C            0.33119480860653        0.74193975997785       -1.28145436317061
C           -0.95971391485940        2.33877544454076        2.41806061363567
C           -0.36004010976041        1.65811019836775        3.54116682816367
C            0.80677479078534        0.75817114005533        3.32196164156233
N            1.45226772208577        0.64985356531358        2.12452193181324
C           -1.46896094083980        3.61042092484894        2.79337568208892
C           -2.06896823610583        3.75035203039810        4.02687564895205
N           -1.96403527071677        2.85944862440207        5.01459663546857
C           -1.00241860934564        1.92063081544152        4.79229946475285
C           -0.35310750624038        1.30076307238733        5.86967274908004
C            0.88817663002208        0.55287947631597        5.78096400735602
C            1.43332446983849        0.36208061392565        4.52901518555784
C           -1.27980966871572        4.75529233951751        1.93394039212934
C           -2.30691186671033        5.71783668500281        1.98082987991859
C           -3.20803562060268        5.74190127356377        3.04983670787459
C           -2.93873564837596        4.91904058881898        4.09321508846885
O           -0.27193610356413        4.94368529031139        1.03542616264301
O           -2.42862245662932        2.73051827298705       -0.22524539244819
C            1.07784224929400        0.20328675136916       -2.40502208389066
C           -4.31417280792404        6.79624356129709        3.09262030564696
H            1.84148318051287       -0.11529217145018       -0.10776576226627
H           -1.50820440891357        1.60360670522925       -2.27222522973370
H            2.46320168621690        0.04207727779583        4.48367602417843
H           -0.71482970148284        1.54659038180847        6.89218819394385
H           -3.66185108731207        4.82147688365389        4.79937190188868
H           -2.35365408068829        6.49208005268901        1.29277666413608
O            1.86736707426098       -0.67952198598130       -2.22214510929557
O            0.67042525584959        0.73542055385884       -3.61185122029273
C            1.27963270241266       -0.10820246445664       -4.61626397375190
C            1.82349006165062        0.07295389211810        6.91246864769593
O            2.97103573808526       -0.31552346589462        6.81463583796985
O            1.27083793526834       -0.16269566758535        8.20110607095020
C            1.97846832048932       -1.11906223582432        8.96711790554244
O           -4.15940251903201        7.79529146719503        2.41470982842021
O           -5.45322452212422        6.67596860668722        3.76509764745004
C           -6.25711777678340        7.78262893201445        3.84141129725324
C            0.84751075705132        4.18038183464104        1.18980057522759
C           -3.15980859171207        2.76283528447694       -1.44651887949905
H           -7.29629567265569        7.60149693268349        4.40285056326112
H           -6.52989056444531        8.07372825171051        2.79131290126047
H           -5.63518494036233        8.66739035272231        4.29141881786894
H            1.41283238960465       -1.05025393287115        9.85943641842554
H            3.04278611833610       -0.83030501156260        8.97464114796827
H            1.78505435706765       -2.13120822611908        8.50592098492196
H           -3.65553661577874        1.75394813812104       -1.67943137294653
H           -2.45386096573678        3.23401796566131       -2.12257676879861
H           -4.00154989677316        3.42379323721956       -1.17766857143287
H            0.86593297963642        3.51047505382385        2.20981861981362
H            1.70509339715246        4.84869905708395        1.45491403952734
H            1.16935304882007        3.75693542734239        0.30748672771326
H            2.39250442256124        0.21499625511157       -4.71302334110921
H            0.67205937129950       -0.09748455148003       -5.62875511850143
H            1.15791670581056       -1.09111766270307       -4.20354422374411
C            1.25864606190736       -3.63000787480748        2.72061524780419
C            0.51212563800195       -3.00420886590008        3.74700721183618
C           -0.71794951249528       -2.33200952961379        3.29440555871962
C           -0.97975716811090       -2.25173174280005        1.90725096733700
C           -0.13992881141634       -2.96957865377044        0.91318905844787
C            0.92941685355504       -3.67753119561783        1.33958199556697
C           -1.73027304837038       -1.93654754165016        4.22274033828287
C           -2.65774118934627       -1.04147720744785        3.70896911443205
C           -2.79396840023736       -0.87674771612879        2.28709646162683
N           -1.94324237028357       -1.49047555193455        1.41662084001717
C           -2.03509204217938       -2.32044335382285        5.60315743769404
C           -2.74783321525948       -1.34381157048170        6.41962195390760
N           -3.38962373187971       -0.31365566325647        5.85650265331037
C           -3.36844129569616       -0.15121501549276        4.50744341690328
C           -4.33156651124421        0.65184526412652        3.98056029832414
C           -4.50167503709868        0.90165165823267        2.61481982907808
C           -3.61839756136412        0.14265427890039        1.82791495370124
C           -1.61185221353854       -3.53916623345106        6.33734055236554
C           -1.43597926536816       -3.65302401495812        7.77625173502802
C           -2.14989781824293       -2.66684888221740        8.51848169915734
C           -2.73407547412172       -1.63882883520614        7.82151499811417
O           -1.53424280704790       -4.76085807004463        5.59246232690300
O            1.01532016670378       -2.94876012455479        5.09163281222855
C            2.00940114623000       -4.34005999678667        0.51356213248826
C           -2.10437310454537       -2.70318346402897        9.99710806416370
H           -0.21871313060378       -2.69218101314321       -0.15048547828890
H            2.19481422876999       -4.17031394669213        2.92879353363199
H           -3.46964773430620        0.38742987120111        0.78109110573709
H           -5.05980183571916        1.10276851386303        4.63114405588630
H           -2.99772464162712       -0.80564740629090        8.46000749571103
H           -1.05998417251683       -4.54142325630478        8.25280626885096
O            1.93619900162109       -5.37721916039524       -0.07035315728452
O            3.06985494989734       -3.50898684196606        0.29445320349890
C            3.89088762457800       -4.19658120684948       -0.54663777578863
C           -5.45677682049656        1.81543472759869        2.16155183588552
O           -5.69555031226309        1.79991378004061        0.94667315285566
O           -6.12856331469391        2.60600935454030        3.11799047261013
C           -6.83479711238258        3.60858738167512        2.43002517383394
O           -3.09438890565298       -2.96457526514639       10.68072392201532
O           -0.87864882305508       -2.37529712815713       10.59391884708955
C           -0.94515504146789       -2.44516005969728       12.04272903188543
C           -2.39342502400197       -5.71817042487978        6.15469267957063
C            2.18594345357901       -3.74325109001157        5.44174428917561
H           -1.89106538943704       -2.62160884751947       12.54073229659931
H           -0.45123832945361       -1.53633733919996       12.59615771515190
H           -0.39660072238253       -3.43500535929122       12.18048692140331
H           -7.86880155209072        3.82123753944751        2.87865257823583
H           -6.73854607984353        3.48613719710153        1.26330903880662
H           -6.41485379285565        4.56576867224703        2.71763254923866
H            2.05871577886901       -4.68111357420944        5.12843830197044
H            2.08993506532660       -3.84558705290358        6.61575085992945
H            3.18551738590895       -3.40999463411805        5.24494210406249
H           -1.77680947475405       -5.95279585886821        7.03502993969671
H           -2.20030620241012       -6.61241588313604        5.52518233703768
H           -3.32995170343105       -5.32745245360677        6.44074797254236
H            4.67629407435992       -3.53635204460289       -0.87892400007301
H            3.45595504651734       -4.48152263100963       -1.50534849584268
H            4.11709866439181       -5.12117517167169        0.00002088142994
116
 energy: -22.812637230976 gnorm: 0.430095323534 xtb: 6.6.1 (8d0f1dd)
C           -0.26546429898997        1.01468037932249       -1.11416658296913
C           -0.90087923436311        1.37967773402074        0.03094906772994
C           -0.12698042387349        1.60042018824216        1.23146011763046
C            1.13756089285639        0.96392063322907        1.30659229326121
C            1.58854243302181        0.39226252454226        0.13483498737853
C            0.96604070653839        0.50167123265138       -1.09773000907113
C           -0.72632723363107        2.11479589247874        2.37276770549667
C           -0.29790821461850        1.70655682498142        3.62098612353695
C            0.81452916052961        0.78054898279425        3.65640954232086
N            1.51251141272678        0.46353632292310        2.57907282882579
C           -1.52218163621808        3.37482565094931        2.43215998344248
C           -1.88325945157891        3.91114780284745        3.75488037783080
N           -1.47101804880580        3.43946541613737        4.96266228335106
C           -0.71655686844452        2.30231189285659        4.90255720467826
C           -0.20951186524905        1.85539102450742        6.05995191994274
C            0.85895860396508        0.98994614520980        6.03243077016234
C            1.36459771453339        0.54380767745960        4.87625425323502
C           -1.70429274647176        4.22021458824303        1.28584179022152
C           -2.62824782940314        5.31339120063924        1.41011291329915
C           -3.22325957974277        5.57888730510732        2.63203431185019
C           -2.83264431734051        4.98385752035862        3.81609135216028
O           -1.01153669062728        3.98684153659293        0.10170374732657
O           -2.33476058524439        1.68784349667412       -0.00271329113160
C            1.57036124810306       -0.05342559012547       -2.38520166178291
C           -4.28565495426071        6.59729785576807        2.64217648074280
H            2.43942673703440       -0.24751099516414        0.38677196573036
H           -0.76774107806656        1.22160770440039       -2.05147987607063
H            2.23262950013634       -0.11019975363180        4.82845508634471
H           -0.52274573662662        2.19688088521739        7.03482619760137
H           -3.19919885233177        5.41673652779365        4.67038933276720
H           -3.02624069817256        5.75078607863462        0.56101813522124
O            2.75509455957528       -0.33095985088583       -2.36092739079788
O            0.83039891962287       -0.30552569525703       -3.52769545151063
C            1.57667389553015       -0.88040398292098       -4.50761611091794
C            1.47538243878182        0.43342808113919        7.21112805161569
O            2.42698561356015       -0.32469775580931        7.09608473076070
O            0.83597430664824        0.85652791263166        8.40065161087222
C            1.15167104059444        0.29633860140951        9.61045011396967
O           -5.12260463829768        6.73429751830960        1.76476622663388
O           -4.49646339922783        7.04697035863566        3.93102904215697
C           -5.69184717763063        7.90993872442873        4.00926572820025
C           -0.78804103553452        5.17929888297591       -0.66241374661051
C           -2.84230795093166        2.05060491924861       -1.29215084022604
H           -6.15555600058677        7.48355480654885        4.87895906781625
H           -6.06047728925668        7.75060002099001        3.07130132784077
H           -5.45927026985539        8.93057669122398        4.09498374445576
H            0.79174725952782        0.92135039425924       10.47298532957313
H            2.29814880514588        0.40585675831051        9.77534829422305
H            0.90380737682259       -0.76718432892359        9.71416616429057
H           -2.80716326126620        1.34650886219627       -2.13584027444226
H           -2.34002410239734        2.91033145764275       -1.69117165040705
H           -3.90506191217410        2.33317148193041       -1.09811534259645
H            0.30833668506194        5.30187417327805       -0.98369765888355
H           -0.96725737844774        6.16689930040169       -0.08602764903807
H           -1.54914828776653        5.10059928925076       -1.43492691786974
H            2.60269622626597       -0.90880240006560       -4.30772686556985
H            1.26950070730205       -0.45871141840853       -5.46440236075159
H            1.35947772633396       -1.94039205652474       -4.34891111070773
C            1.31408843687219       -3.45509511939850        2.42108614576151
C            0.46066571210715       -3.17637120147967        3.48881004242959
C           -0.72149322625076       -2.36437345586014        3.34268946534985
C           -0.99541241744663       -1.82777408803465        2.03907617648563
C           -0.12887065355621       -2.18694416828934        1.05156655471935
C            1.03667192402705       -2.84877063219036        1.16373033832329
C           -1.78251679403378       -2.03418686604660        4.31713716180955
C           -2.62631024337869       -0.95281492587953        4.18374177713818
C           -2.66007650549681       -0.40813796231047        2.84167502365115
N           -1.91812293220233       -0.90662008673494        1.75853037836736
C           -2.04135754186925       -2.66204658820943        5.62320319675950
C           -2.67848214963751       -1.79405178217311        6.65504948093752
N           -3.40145798764213       -0.74173310809559        6.46170834201076
C           -3.64081401375469       -0.47191687051721        5.15001222621994
C           -4.56105590153257        0.53032227551050        4.75380402496760
C           -4.45751739140658        1.16809358635087        3.50005007569686
C           -3.57109361848536        0.57427271716789        2.58512178721766
C           -1.43190980696043       -3.86795068713772        6.10071664568760
C           -1.23030579986554       -4.05096019957055        7.42540292529155
C           -1.80053267310247       -3.25162291876408        8.42389857825222
C           -2.47377286450756       -2.14517354349480        8.02309245737629
O           -1.18542508730049       -5.08176412266196        5.40429650107023
O            0.79197979400590       -3.56254491152873        4.83336034511863
C            1.86131951251653       -3.29701013571635        0.08548499775158
C           -1.62146501485013       -3.26982087071307        9.93602833998790
H           -0.45130747931422       -1.66295371950080        0.12249054195606
H            2.24419927530896       -4.05593114294276        2.58163391093747
H           -3.62232709117059        1.07264478281196        1.62740259191304
H           -5.33373867025119        0.83539639892436        5.39499057306767
H           -2.71140504336016       -1.28991003324267        8.74339375183266
H           -0.98113451203068       -5.00578428086901        7.79707926913933
O            1.69530795145854       -2.86266563111198       -1.06599208158644
O            2.55010010910729       -4.40757685106895        0.44633600355110
C            3.17694815192161       -4.88698027092053       -0.77732676218540
C           -5.31311307232159        2.28383270549284        3.03381083487363
O           -5.38364504421543        2.28506828836305        1.83516450060908
O           -5.89036467074265        2.99372405684295        3.97983555012324
C           -6.28876266812783        4.19051266724665        3.33139112066424
O           -0.81530370109367       -3.99159852812983       10.47847877870974
O           -2.48623553057333       -2.50711913715045       10.69341273991312
C           -2.43573374066051       -3.00463158633105       12.05938068311693
C           -2.19827783766496       -5.21279152073673        4.31257879498900
C            2.09595923230587       -3.91290584345808        5.12443984666517
H           -2.57654890419082       -2.22314864071400       12.74563949226661
H           -1.39632739335931       -3.40098707560361       12.16432935183243
H           -3.16085283448761       -3.73091538824832       12.21409967201579
H           -5.41185564310523        4.75027377964781        3.27159260344605
H           -6.84652318849905        4.94777720667248        3.94612847410678
H           -6.48327210424804        4.07299575449848        2.28558866975969
H            2.31794934469101       -4.82328254434028        4.79161676763758
H            2.16462395177004       -3.85314983447796        6.25099956536129
H            2.75922224042702       -3.23368327628746        4.70504724356654
H           -3.31269415121122       -5.07009793613509        4.41122853184170
H           -2.03355032488103       -6.20887871356119        3.97891119985781
H           -1.92336421274989       -4.31052754320470        3.75790658059342
H            4.21746074476128       -4.76498381742989       -0.53337902098694
H            2.98460947238746       -4.18428862099985       -1.62954483145817
H            3.01863877844227       -5.96648533695157       -0.94188143467320
116
 energy: -22.850886291841 gnorm: 0.426606717002 xtb: 6.6.1 (8d0f1dd)
C            0.04556311635250        0.88439220970809       -1.29146017808749
C           -0.50823864854680        1.54141489064963       -0.21400257857448
C            0.18508644684082        1.75084592677357        1.02615894543637
C            1.24714388385432        0.77922686413746        1.28029810501270
C            1.82532362592759        0.08352866412044        0.18378920834600
C            1.34272387500960        0.31041850188978       -1.09521410622233
C           -0.32138132575259        2.45550026896343        2.22654818844849
C            0.14916960514473        2.10676851900958        3.51085739565183
C            1.26082807620246        1.14625243153645        3.60931296808632
N            1.76178195352145        0.61132614045769        2.47312093374792
C           -1.33430645748783        3.45838002915516        2.30668419958545
C           -1.88663746135508        3.74182044283333        3.51932333992364
N           -1.54575821262119        3.17438206154260        4.67851583597866
C           -0.45020721141794        2.40706530397043        4.71643791066805
C           -0.09365313079063        1.87173147503362        5.97994014210110
C            0.81655210605303        0.84692237859889        5.96201885611571
C            1.46377047117093        0.44679166446346        4.85949567723399
C           -1.77220579028177        4.25860439884814        1.21751147207462
C           -2.70953931269478        5.29001867337153        1.39005885797409
C           -3.27400273019669        5.51958576975871        2.60092021810364
C           -2.99395728728483        4.71291414131433        3.65405434346004
O           -1.05731506165716        4.24907356611786        0.01795364496676
O           -1.91737280316556        1.86982593612475       -0.34789939752138
C            1.78482428007869       -0.52221128922506       -2.15214706289215
C           -4.33590384461975        6.59373319299949        2.78337152500260
H            2.60708429848856       -0.73167080413662        0.31642159183536
H           -0.51141426153853        0.70723315040791       -2.09368163040197
H            2.00780273327252       -0.54084216082501        4.93791085340174
H           -0.66377974177303        2.17317855143915        6.87093680619017
H           -3.58398003637434        4.80816670486526        4.45697954762678
H           -3.13711414534217        5.92361101509989        0.67103254457875
O            2.87487243704624       -1.00753553184662       -2.01280676485705