116
 energy: -22.928061455056 gnorm: 0.329736929581 xtb: 6.6.1 (8d0f1dd)
C           -3.31122850772930        0.79849766164622       -0.92477639677520
C           -2.44380812530352       -0.12270372891954       -0.27661132624697
C           -1.41337090092821        0.39579727573559        0.56335275196199
C           -0.89266158675590        1.65801491088749        0.27377586709581
C           -1.72665675402493        2.51431363229076       -0.49448366572522
C           -2.95444148494349        2.13954154133227       -1.01494489940871
C           -0.74098268209890       -0.43411532818871        1.49825021926784
C            0.56872586496315        0.03782116815119        1.86248088067890
C            1.03782416582094        1.29402317993033        1.50887470833621
N            0.31238977034758        2.07067427098208        0.65193736800696
C           -1.29695700510141       -1.39996043042223        2.41574187746061
C           -0.38243517664656       -2.18060797534842        3.13232615520648
N            0.91308504082021       -1.90366887689689        3.30325166013478
C            1.37712470144904       -0.74872102533751        2.81811050966982
C            2.52149331701875       -0.17739833758153        3.39379298866852
C            2.95849061756259        1.02681208890480        2.95105897606587
C            2.24288949469137        1.78498308775960        2.03503020483770
C           -2.74860936222260       -1.74497937691422        2.38401158947411
C           -3.09416315450955       -2.91614440870436        3.00571134491758
C           -2.16786021984049       -3.77788778654213        3.63251872101904
C           -0.85708937311598       -3.40495313382985        3.68547234358092
O           -3.71994433332149       -0.94984598373544        1.67726658385724
O           -2.55702603277562       -1.47241711578389       -0.57241635275616
C           -3.84297843593025        3.13357444054366       -1.60938954875544
C           -2.68769581069131       -5.03867041417370        4.30484659386931
H           -1.39666850744143        3.51251503834900       -0.76806311868865
H           -4.27662633836220        0.55105838579656       -1.33106614114542
H            2.66329581305412        2.73912661909249        1.72562431984580
H            3.05775395548473       -0.69369546277216        4.16536137542516
H           -0.24710966264510       -4.12034095424229        4.22946223699121
H           -4.11477991332403       -3.04712728052358        3.03244694615357
O           -4.21824883374556        4.03433712717988       -0.87713382485991
O           -4.44510595673734        2.90643496899600       -2.81853501752979
C           -5.44216520282800        3.83300025693726       -3.02488532025093
C            4.23586651889298        1.50004220933226        3.59165660008449
O            5.05927614697201        0.66079890002952        3.91714215179376
O            4.47001334453535        2.86385149488593        3.72605651435371
C            5.79457498613219        3.08584475587818        4.15829123132174
O           -3.82227255313510       -5.27347675879771        4.16636005494405
O           -1.85023202017753       -5.79767454267276        5.06656077253571
C           -2.55119635829503       -6.86252441382958        5.62930343183426
C           -5.07197156564436       -1.42399175670916        1.58830531863830
C           -1.33089900128490       -2.23622472573986       -0.99264499351172
H           -2.54510546830388       -7.76426885143998        4.99136022291012
H           -3.57194749219491       -6.44405511486021        5.74196173723541
H           -2.09133598235598       -7.02043774843818        6.64022264233588
H            5.72707967266424        3.46798026205549        5.10135971236643
H            6.34060091246885        3.78468702308830        3.50069950143490
H            6.17933064298187        2.03010500085905        4.19342358084693
H           -0.91862729772622       -2.57650129080332       -0.01361370304871
H           -0.49769766914251       -1.60651221708571       -1.34094446550576
H           -1.52632419730509       -2.94569707152159       -1.75361447637286
H           -5.11788846557077       -2.41810833635233        1.17520213188926
H           -5.67929807973498       -0.69619639428435        1.04301666067831
H           -5.57598832326623       -1.42383358739762        2.57928294206544
H           -6.13050215934830        3.76035386975488       -2.23272855695873
H           -5.86615610071888        3.45938329385866       -4.02668959924245
H           -5.13479557532099        4.87790991548477       -2.98314551356402
C           -1.38192942069774        3.73616555005018        2.91232598411686
C           -1.84821468128685        2.59982427735607        3.49755545445181
C           -1.05946531454833        2.05730632010638        4.60922730982276
C            0.19893954712228        2.69376791964407        4.86302140881997
C            0.50425395911860        3.94630308659851        4.28768785650746
C           -0.26031777722226        4.46998310053134        3.25072669343212
C           -1.20488993561782        0.74454293276906        5.14851520323437
C           -0.06287609782692        0.02744069315890        5.60930570802864
C            1.19208754369866        0.71421540266195        5.78882868583885
N            1.19428660993148        2.06344359410476        5.62744624321596
C           -2.41361422770794        0.07928500213936        5.25249410304426
C           -2.45851584031083       -1.32662100968547        5.60237876023992
N           -1.29466212405906       -1.98318595734370        5.89916817085159
C           -0.14475655767527       -1.32117560077092        5.98824682881008
C            0.97209270935794       -1.98958449505532        6.53157704134458
C            2.21982707914082       -1.36973967291181        6.68703967237737
C            2.30561929262884       -0.09745313075593        6.26436900324455
C           -3.73018485967715        0.71367583494582        5.25810242262992
C           -4.89964478833448       -0.06184623426677        5.21204641615509
C           -4.82617965800088       -1.39228978090841        5.46901303780036
C           -3.67144193418464       -1.98914944386360        5.67265433266067
O           -3.75568638935321        2.07705011038914        5.52067969627343
O           -2.94192434743730        1.91263938797883        3.01658762327703
C            0.21273512614467        5.50086066357994        2.34765104514621
C           -6.06660304520411       -2.17604633098929        5.80641622556876
H            1.41756699010566        4.38133362238595        4.66974005703471
H           -1.82880610647429        4.11982501512100        2.06992133318584
H            3.26888037378556        0.32655662585251        6.31721410015598
H            0.87146188387207       -3.08471526305024        6.57830423410869
H           -3.67716811065157       -3.05999292755990        5.83019634570050
H           -5.77379677507622        0.43595144608221        4.71017130754348
O            1.34459852619901        5.82615848916894        2.44941456579099
O           -0.74718748219123        6.07961784856304        1.59848183464284
C           -0.21473095568964        7.24015934882472        1.05753806029483
C            3.53228080814219       -2.00967610361154        7.02506769044485
O            3.64093082622715       -3.14437803815732        7.50071391725347
O            4.56565258381079       -1.22937033368332        6.69086985080897
C            5.72579357310716       -1.80692399125161        7.22246151275881
O           -7.04801223588612       -1.95726935745904        5.14194115322235
O           -6.01514389321278       -2.93743591896022        6.94765316328794
C           -7.21292732384718       -3.62681918543340        7.15115816329978
C           -4.95459780685163        2.65960679932188        5.86868674392943
C           -3.68284113682406        2.59129188358641        2.05479246020704
H           -7.43119628931628       -4.22607794725959        6.20622607140901
H           -8.06548455146707       -2.91765848248592        7.29781126410398
H           -7.07314693247270       -4.33087306029711        7.91223421050944
H            6.57332189837178       -1.29353136199234        6.78341268688262
H            5.74663761932316       -2.84282155125561        6.88089468184451
H            5.69426191474290       -1.72781984964892        8.29460302186842
H           -4.10481209541493        3.44288266176275        2.60483747673152
H           -4.49244774344916        1.87419893016926        1.82433103764650
H           -3.18901540870812        2.85154642679373        1.06781919454921
H           -5.55414326821421        2.76698137191684        4.93950725322359
H           -4.78658370641210        3.62090640967288        6.25983200635257
H           -5.43485580473958        1.97242995129449        6.65265772412460
H            0.89164886030839        7.38838561720231        1.13776105146914
H           -0.62894889903848        8.04195665205089        1.64837664327952
H           -0.59282546386754        7.45699159724320        0.03719083132488
116
 energy: -22.800901556302 gnorm: 0.440924105935 xtb: 6.6.1 (8d0f1dd)
C           -3.17151895890024        0.19369043673871       -1.40475744625851
C           -2.59714890066256       -0.51661934770375       -0.38658797340291
C           -1.72009231705569        0.25354215335313        0.52496421374370
C           -1.26560842125243        1.54266457382224        0.16077379420406
C           -2.07565946010754        2.25448179173115       -0.82133819926094
C           -2.86038450587711        1.56441576525182       -1.73199288846705
C           -1.08669400469836       -0.46093318420734        1.70143706901976
C            0.11816527824762        0.15720096975236        2.02757030950590
C            0.50196946838998        1.47354540220286        1.60780610613658
N           -0.28415999567131        2.21968912982823        0.81683841345239
C           -1.46919751553350       -1.51998732298897        2.56804975642313
C           -0.52811502995627       -2.21150061040468        3.40843210898744
N            0.72646007254529       -1.67926471796695        3.47946866932390
C            0.98351040865922       -0.55058959038611        2.83543652482625
C            2.16704226627119        0.04500882005224        3.18925635229902
C            2.49134916826424        1.39576932275711        2.99321410177987
C            1.59411907208967        2.07211091709683        2.12936622332533
C           -2.88084164733686       -2.00225711235031        2.49695949466978
C           -3.11467311786680       -3.33340804822320        2.94665886646141
C           -2.15662037046669       -4.05923719313895        3.63225962989276
C           -0.89995425530121       -3.42710370715591        4.05124208253075
O           -3.93264410472104       -1.22008479471685        2.18948889962024
O           -2.83646363849118       -1.93803791786866       -0.20787668629073
C           -3.63918864185727        2.42350813372921       -2.60153549683890
C           -2.61745120923487       -5.43751520338008        3.87058943321964
H           -1.91722574220214        3.27438812703607       -0.95210565855547
H           -4.07035570086234       -0.23553308519618       -1.95484822944911
H            1.85556554234228        3.22742614716520        2.00739156691570
H            2.78644228789208       -0.47689046825632        3.83538900283199
H           -0.04399868270398       -3.97950751795543        4.36760765599661
H           -4.12147192228908       -3.81607144993587        2.85398548321448
O           -3.08890614843387        3.23893931558112       -3.27002997703198
O           -5.04120590689312        2.32035124313406       -2.49268373089487
C           -5.58113280243861        3.17026101272207       -3.38288892930919
C            3.62901112683041        1.91306256510893        3.81374085400636
O            4.45491342534392        1.27136899352333        4.49085415137782
O            3.76029126025093        3.29861791550920        3.51048666895955
C            4.98473609757039        3.76222346663673        4.00316560806925
O           -3.84835235804505       -5.75196262014124        3.93972986703178
O           -1.57237115595008       -6.33679204954811        4.17069759294648
C           -2.04544984791068       -7.62959387106230        4.27677665518802
C           -5.02759128160162       -1.74792556687574        1.40239249442424
C           -2.13410731375925       -2.90215307011955       -0.95026040314337
H           -2.96404437701587       -7.75724044191760        3.62786765941003
H           -2.61065794618966       -7.89226003972822        5.22663611829155
H           -1.25092648473115       -8.31701161598291        3.85578883057444
H            5.59879331577856        3.00018427308043        4.49665638705565
H            4.61151769322315        4.37149166203663        4.89795894210374
H            5.54559883805471        4.43931958067627        3.34582054218766
H           -1.18001601874501       -2.83858741779393       -0.58977977907466
H           -2.27932894906543       -2.89120930065937       -2.03329844029272
H           -2.56660207082550       -3.79582088652549       -0.56907515639783
H           -4.60981413318840       -2.39978182520908        0.63168259239464
H           -5.61902550583685       -0.90573064134880        1.07823953493204
H           -5.58579331253008       -2.45350291939624        2.13095291113296
H           -5.08240287296367        4.23471340587171       -3.37090811055543
H           -6.69709574024133        3.06728417457049       -3.49406892859902
H           -5.41717835445845        2.63469680675363       -4.38679643634403
C           -1.33990168766778        3.76369371632886        3.39331076617659
C           -1.63405092375033        2.56370615689791        4.11744422659892
C           -0.72946464857819        2.21781922225193        5.21868245009792
C            0.55632872723914        2.83607427797760        5.28432267009370
C            0.79898669938078        4.03041480263163        4.58170783756297
C           -0.17395250478957        4.51792103981348        3.67128560976738
C           -0.98778191186866        1.13997738072143        6.04540834835442
C            0.16479176614471        0.29526091315117        6.23234031363537
C            1.40483438608019        0.88749620884813        6.26193280090484
N            1.50997763086889        2.21552500452543        6.04721792267031
C           -2.28002388231555        0.46203857031801        6.19159036733692
C           -2.31477562845567       -0.92261691039069        6.20076333478252
N           -1.21300305023380       -1.76140967188162        6.38829855104531
C            0.00710210044252       -1.13325073132878        6.48032964259087
C            1.23064754080629       -1.77582748387722        6.80715726104422
C            2.51208749735236       -1.12822269973627        6.87297165522760
C            2.66883418309841        0.23740950328095        6.48248857955473
C           -3.47618460155050        1.20575558125523        6.25725479594141
C           -4.68074053906487        0.58810585909906        6.05136558799320
C           -4.74759533460466       -0.68808481433866        5.55666264141415
C           -3.58653362565688       -1.42296396604713        5.71450626940313
O           -3.39802922401200        2.61661434340623        6.52497259990300
O           -2.56383640120758        1.66620084019327        3.57021086376084
C            0.20542640012238        5.66895111832423        2.74223293829850
C           -6.03647230747363       -1.34293758754707        5.24019541773157
H            1.75237921333208        4.53197175925260        4.44821585066499
H           -1.73182545579623        4.01858082460635        2.38751629056482
H            3.57608203944810        0.68460030582336        6.33014277468350
H            1.26427096227452       -2.81609055866246        6.95053937853182
H           -3.62067581864962       -2.47439574013824        5.38570994936117
H           -5.52698801938759        1.31326348784274        5.84844078688265
O            0.57959146345100        6.76735230876734        3.14718224159057
O            0.42504505060616        5.22776514775666        1.42914429530957
C            0.91486434997501        6.25856905215720        0.71580040063499
C            3.74156956780426       -1.85469587312464        7.07008946945400
O            3.86306255637619       -2.85363930821663        7.76745887434517
O            4.81237358997666       -1.26295407261296        6.52603251357574
C            5.86686363700233       -2.18943572754048        6.76598792311510
O           -7.08411374389157       -0.66405461827852        5.31015102108500
O           -6.06350002199797       -2.70653061713098        5.13600620477076
C           -7.22730039845008       -3.33133858227239        4.81400618905002
C           -4.66196158787595        3.35129114986405        6.80579873720869
C           -3.72559729125167        2.14837235690268        2.88325422632478
H           -7.18861921833621       -4.41075258032588        4.79765294699051
H           -7.40867613106177       -3.01300828766214        3.77125302913745
H           -7.95481112502581       -2.87889861393524        5.56484077043430
H            6.12873282213326       -1.91425761791486        7.83573371024875
H            6.75232633286928       -1.84203454000733        6.13727971343023
H            5.59529397008460       -3.21348530940648        6.56329894423228
H           -3.63636199812135        1.61750364197877        1.95430351841391
H           -3.89478644207712        3.22985658495533        2.80915254313400
H           -4.65265283102793        1.74634469884471        3.39351512238955
H           -5.03790520272402        3.86192414723637        5.93951824439028
H           -4.69737230269264        4.02450855947365        7.76790025122428
H           -5.28972800079273        2.53742462939492        7.22167373383035
H            0.66897294474366        7.27518043619207        1.21028915180769
H            0.37049839102649        6.18440544260430       -0.22780463628818
H            2.08380767478808        6.11205757488606        0.55786034466039
116
 energy: -22.834378214032 gnorm: 0.406385925924 xtb: 6.6.1 (8d0f1dd)
C           -3.22563427361693        0.16402837462667       -1.92314564738842
C           -2.48404652705244       -0.54128731943191       -0.96929254594612
C           -1.57580179054652        0.19339452291213       -0.17568792810532
C           -1.33288510822301        1.51366517455749       -0.37106877030066
C           -2.13253856426412        2.13920603907837       -1.33010073297139
C           -3.05152162947577        1.49546271192976       -2.15630848927784
C           -0.90909208819748       -0.42812479895024        0.97313558087235
C            0.34248696711250        0.20346406263551        1.29538385678397
C            0.56351471438662        1.57221407593349        0.90050486934777
N           -0.30107024483887        2.21431562425683        0.06978316219376
C           -1.36394728157325       -1.52226616954666        1.73428346490286
C           -0.39152155007061       -2.20042586553784        2.47694424131049
N            0.90515364724453       -1.73862890607066        2.73337412727901
C            1.21733114689005       -0.49701671637439        2.26654883644964
C            2.29725539714014        0.31826901757966        2.65272947196258
C            2.56323322569981        1.59450916892116        2.21199533758783
C            1.72031101880205        2.25941072164086        1.29016711948653
C           -2.79483612170104       -1.72378486941320        2.04877265663215
C           -3.10034720877594       -2.92860316278574        2.60968468106200
C           -2.11044605506358       -3.81466170065866        3.05352247882981
C           -0.79545225558752       -3.40743772554153        3.05748067033924
O           -3.82117668445354       -0.92370436592784        1.48727506524845
O           -2.84466821827136       -1.89672325148571       -0.78399881385185
C           -4.08067063493334        2.33213108397552       -2.99799205139557
C           -2.51783815133212       -5.00574726507274        3.83289632911702
H           -2.00478486323791        3.16505901106776       -1.36079509984750
H           -3.87890313184539       -0.53862041889584       -2.58335139977295
H            2.02354408111471        3.24046111249774        0.80692007481552
H            2.98884296144921       -0.04643119148914        3.40548146182115
H           -0.04790938033458       -3.93601567670759        3.55457851943427
H           -4.20332117495350       -3.12062917403016        2.63727511038268
O           -4.58375727539867        3.27475780923375       -2.32150270909729
O           -4.29150572427065        1.94043816145815       -4.29119121062923
C           -5.22551750895190        2.78677444241506       -4.85125641262931
C            3.83909457636841        2.22437912591445        2.69740794986601
O            4.54296966622850        1.70770554718489        3.51615915469978
O            4.06039332736980        3.44231897923484        2.03355436865436
C            4.94811044826359        4.17291170057599        2.79964135721078
O           -3.40395699306384       -5.65981612889886        3.49306714495213
O           -1.71855476623742       -5.39765828766110        4.77976947531309
C           -2.06746968693468       -6.77569243744436        5.05580777947023
C           -4.96391778677818       -0.65287407461368        2.27908555995950
C           -1.75708467250058       -2.90299411635869       -0.91604634639348
H           -1.47097109888037       -7.05417335502453        5.89164558177639
H           -1.98050909195608       -7.46978908740740        4.24499977755220
H           -3.09946920275169       -6.76151729775870        5.34233081794308
H            5.86810184420105        3.86633945760615        2.31172215103968
H            4.91052248470150        3.91720108083039        3.87969807636372
H            4.64889499838239        5.21161825326745        2.63641148168218
H           -1.52901789180096       -3.17289450286748       -1.97210778910027
H           -1.73772534409259       -3.73068301459951       -0.12397643044275
H           -0.75958759534518       -2.42062646176182       -0.62380339912499
H           -5.69758926165919       -1.48323582895633        2.20120984186781
H           -5.63617170018043        0.18071900260412        1.76497487669968
H           -4.70533211351945       -0.50604001847120        3.31019750765510
H           -6.02923329770953        2.94534059679070       -4.22324608917721
H           -5.55354310431239        2.40784265569095       -5.75301532266447
H           -4.85842367764090        3.75682712476250       -5.05357838129264
C           -1.16173182207110        3.85321113586790        3.55000247130766
C           -1.50470452881024        2.58165226993531        4.03534930608004
C           -0.67572257046962        1.97070121988550        5.04155407603312
C            0.63982915725013        2.45276604192433        5.11575097989679
C            1.06365691700449        3.62182238849379        4.42766162991921
C            0.13555512291312        4.38998110412265        3.73517179565638
C           -1.00917787166296        0.73927950230282        5.73785170789970
C            0.09759317221516       -0.01009918822837        6.06026590449051
C            1.39912410854734        0.63999893108857        6.25513400863560
N            1.68478437145742        1.85925704714116        5.75890715970010
C           -2.30746244037294        0.23902786051077        6.00787638687913
C           -2.36775294870806       -1.15666835984437        6.40224705302407
N           -1.32358203876368       -1.85711938123743        6.73877681801015
C           -0.11378638764406       -1.26847179475194        6.67428367793761
C            0.98964055226730       -2.00369654879191        7.23137329571849
C            2.22129543269674       -1.43141191936186        7.35228881787913
C            2.40458355793650       -0.11787164496095        6.98512647067585
C           -3.54213094361508        1.03138649582451        6.01278209495032
C           -4.84690429870736        0.42917554674158        6.18525821390738
C           -4.83312958953021       -0.97165399856975        6.48605087639080
C           -3.59578272632210       -1.75506805195976        6.53614576378766
O           -3.42779900029095        2.41612140106643        5.80325348835539
O           -2.57900910749617        1.73728115082737        3.53945285722777
C            0.54257398289547        5.65251949904745        3.20928952882650
C           -6.06620337962374       -1.90318292982227        6.38183801673239
H            2.10605946374781        3.84414072899651        4.35393017430970
H           -1.98045308212495        4.34504512531214        2.97480366366493
H            3.36363074503988        0.21538517787104        6.95924997215339
H            0.73908030519387       -2.92922800460141        7.63728089902482
H           -3.53168267381042       -2.87603025977030        6.66643012268780
H           -5.74487763725041        1.15549913818934        5.98112592648463
O            1.67455966408557        5.84514945873994        2.82252606888885
O           -0.40757997643592        6.72740679466891        3.17750774153510
C            0.10328793427361        7.80146004296782        2.32524873243253
C            3.24458873438178       -2.35474137841549        7.97116013408830
O            3.04404549728185       -3.54226983813560        7.81818702157281
O            4.24172572631561       -1.94824951649135        8.75821831780401
C            5.16118688872920       -2.96463267499520        8.97447686533484
O           -7.13784409592087       -1.37661304611257        6.41070882474738
O           -5.78802856110475       -3.31026777634845        6.50548703616845
C           -7.04715050968308       -3.92779456805519        6.64814581574964
C           -4.16403374249676        3.23483913210240        6.70995471116733
C           -3.50167477283820        2.36689111801235        2.63526889328495
H           -6.82870066963911       -5.00177625266810        6.54319857978027
H           -7.72630454797817       -3.66804758446366        5.83690656701902
H           -7.47287481490064       -3.59660407454825        7.55457109326163
H            5.17498714606966       -3.47834585716061        9.95979647407361
H            6.10665512850914       -2.47223969117895        8.81423283012883
H            5.00974157589143       -3.71871890575350        8.10754903212333
H           -4.19340491401836        1.59711034708175        2.19605456639349
H           -3.17933809024277        3.19083781151067        2.00079551500964
H           -4.20190156786708        2.89618784406779        3.27927751948392
H           -5.03792947686992        3.71245971357834        6.13393826920267
H           -3.67612183122095        3.99061383934393        7.29184243782381
H           -4.83247698198071        2.76397733831699        7.41386216304916
H           -0.24024124315551        8.79217432951264        2.65333070142152
H            0.03184758022556        7.68182491860297        1.27418809768080
H            1.20768979255948        7.82482933881642        2.48380710743760
116
 energy: -22.821485064782 gnorm: 0.421839535206 xtb: 6.6.1 (8d0f1dd)
C           -3.72677038146557        0.32635049629441       -1.75110654137534
C           -2.94329465100826       -0.34687485513030       -0.84770830740838
C           -2.02133262373897        0.36605781428852        0.08772159123205
C           -1.66763914500279        1.67995681790125       -0.40931182214264
C           -2.49008751012864        2.27382499870305       -1.36002966586605
C           -3.45655546986797        1.65432986149460       -2.05916237889408
C           -1.23315556778143       -0.14372248155325        1.15277814724522
C           -0.00147293358830        0.45230591938426        1.42375408125342
C            0.29712643193733        1.76811496490408        0.83426617047025
N           -0.52812255465670        2.36983692495868       -0.14777096338486
C           -1.63875354833664       -1.23194893028498        2.00340052778250
C           -0.56934452881062       -1.92958632026224        2.63145707729059
N            0.74481424852656       -1.51532325188335        2.57919122867546
C            0.89896369163728       -0.25539387363502        2.18751860927305
C            2.09362446760531        0.43091072846136        2.33671059652309
C            2.39070508351038        1.65252249651194        1.87455786841809
C            1.54413307961684        2.36488340690673        1.07224017857421
C           -2.94394245700342       -1.59721252530529        2.43339863882014
C           -3.14024423611553       -2.62664102952582        3.23574099172989
C           -2.13402675376060       -3.45665626400818        3.64952007468382
C           -0.84458328274578       -3.03690926911999        3.36708650966008
O           -4.01121367958458       -0.75414658427618        1.91767029284297
O           -2.78553113293315       -1.76435513557731       -0.87078746996940
C           -4.16466368130091        2.50551981081295       -3.09305550814575
C           -2.17866972380014       -4.43963156894118        4.77352419922157
H           -2.32624459265550        3.30267807471847       -1.52337075581581
H           -4.24008283606730       -0.38436926437772       -2.47597486356555
H            1.68924505799512        3.27483079480698        0.42792820311543
H            2.91631868939457       -0.11380303833959        2.96055009682654
H            0.00067128733123       -3.44463828101587        3.86139864159901
H           -4.11156233877676       -2.89111099034951        3.65961696783766
O           -5.25112963289003        2.87470239271650       -2.78691355414330