116
 energy: -22.928061455056 gnorm: 0.329736929581 xtb: 6.6.1 (8d0f1dd)
C           -3.31122850772930        0.79849766164622       -0.92477639677520
C           -2.44380812530352       -0.12270372891954       -0.27661132624697
C           -1.41337090092821        0.39579727573559        0.56335275196199
C           -0.89266158675590        1.65801491088749        0.27377586709581
C           -1.72665675402493        2.51431363229076       -0.49448366572522
C           -2.95444148494349        2.13954154133227       -1.01494489940871
C           -0.74098268209890       -0.43411532818871        1.49825021926784
C            0.56872586496315        0.03782116815119        1.86248088067890
C            1.03782416582094        1.29402317993033        1.50887470833621
N            0.31238977034758        2.07067427098208        0.65193736800696
C           -1.29695700510141       -1.39996043042223        2.41574187746061
C           -0.38243517664656       -2.18060797534842        3.13232615520648
N            0.91308504082021       -1.90366887689689        3.30325166013478
C            1.37712470144904       -0.74872102533751        2.81811050966982
C            2.52149331701875       -0.17739833758153        3.39379298866852
C            2.95849061756259        1.02681208890480        2.95105897606587
C            2.24288949469137        1.78498308775960        2.03503020483770
C           -2.74860936222260       -1.74497937691422        2.38401158947411
C           -3.09416315450955       -2.91614440870436        3.00571134491758
C           -2.16786021984049       -3.77788778654213        3.63251872101904
C           -0.85708937311598       -3.40495313382985        3.68547234358092
O           -3.71994433332149       -0.94984598373544        1.67726658385724
O           -2.55702603277562       -1.47241711578389       -0.57241635275616
C           -3.84297843593025        3.13357444054366       -1.60938954875544
C           -2.68769581069131       -5.03867041417370        4.30484659386931
H           -1.39666850744143        3.51251503834900       -0.76806311868865
H           -4.27662633836220        0.55105838579656       -1.33106614114542
H            2.66329581305412        2.73912661909249        1.72562431984580
H            3.05775395548473       -0.69369546277216        4.16536137542516
H           -0.24710966264510       -4.12034095424229        4.22946223699121
H           -4.11477991332403       -3.04712728052358        3.03244694615357
O           -4.21824883374556        4.03433712717988       -0.87713382485991
O           -4.44510595673734        2.90643496899600       -2.81853501752979
C           -5.44216520282800        3.83300025693726       -3.02488532025093
C            4.23586651889298        1.50004220933226        3.59165660008449
O            5.05927614697201        0.66079890002952        3.91714215179376
O            4.47001334453535        2.86385149488593        3.72605651435371
C            5.79457498613219        3.08584475587818        4.15829123132174
O           -3.82227255313510       -5.27347675879771        4.16636005494405
O           -1.85023202017753       -5.79767454267276        5.06656077253571
C           -2.55119635829503       -6.86252441382958        5.62930343183426
C           -5.07197156564436       -1.42399175670916        1.58830531863830
C           -1.33089900128490       -2.23622472573986       -0.99264499351172
H           -2.54510546830388       -7.76426885143998        4.99136022291012
H           -3.57194749219491       -6.44405511486021        5.74196173723541
H           -2.09133598235598       -7.02043774843818        6.64022264233588
H            5.72707967266424        3.46798026205549        5.10135971236643
H            6.34060091246885        3.78468702308830        3.50069950143490
H            6.17933064298187        2.03010500085905        4.19342358084693
H           -0.91862729772622       -2.57650129080332       -0.01361370304871
H           -0.49769766914251       -1.60651221708571       -1.34094446550576
H           -1.52632419730509       -2.94569707152159       -1.75361447637286
H           -5.11788846557077       -2.41810833635233        1.17520213188926
H           -5.67929807973498       -0.69619639428435        1.04301666067831
H           -5.57598832326623       -1.42383358739762        2.57928294206544
H           -6.13050215934830        3.76035386975488       -2.23272855695873
H           -5.86615610071888        3.45938329385866       -4.02668959924245
H           -5.13479557532099        4.87790991548477       -2.98314551356402
C           -1.38192942069774        3.73616555005018        2.91232598411686
C           -1.84821468128685        2.59982427735607        3.49755545445181
C           -1.05946531454833        2.05730632010638        4.60922730982276
C            0.19893954712228        2.69376791964407        4.86302140881997
C            0.50425395911860        3.94630308659851        4.28768785650746
C           -0.26031777722226        4.46998310053134        3.25072669343212
C           -1.20488993561782        0.74454293276906        5.14851520323437
C           -0.06287609782692        0.02744069315890        5.60930570802864
C            1.19208754369866        0.71421540266195        5.78882868583885
N            1.19428660993148        2.06344359410476        5.62744624321596
C           -2.41361422770794        0.07928500213936        5.25249410304426
C           -2.45851584031083       -1.32662100968547        5.60237876023992
N           -1.29466212405906       -1.98318595734370        5.89916817085159
C           -0.14475655767527       -1.32117560077092        5.98824682881008
C            0.97209270935794       -1.98958449505532        6.53157704134458
C            2.21982707914082       -1.36973967291181        6.68703967237737
C            2.30561929262884       -0.09745313075593        6.26436900324455
C           -3.73018485967715        0.71367583494582        5.25810242262992
C           -4.89964478833448       -0.06184623426677        5.21204641615509
C           -4.82617965800088       -1.39228978090841        5.46901303780036
C           -3.67144193418464       -1.98914944386360        5.67265433266067
O           -3.75568638935321        2.07705011038914        5.52067969627343
O           -2.94192434743730        1.91263938797883        3.01658762327703
C            0.21273512614467        5.50086066357994        2.34765104514621
C           -6.06660304520411       -2.17604633098929        5.80641622556876
H            1.41756699010566        4.38133362238595        4.66974005703471
H           -1.82880610647429        4.11982501512100        2.06992133318584
H            3.26888037378556        0.32655662585251        6.31721410015598
H            0.87146188387207       -3.08471526305024        6.57830423410869
H           -3.67716811065157       -3.05999292755990        5.83019634570050
H           -5.77379677507622        0.43595144608221        4.71017130754348
O            1.34459852619901        5.82615848916894        2.44941456579099
O           -0.74718748219123        6.07961784856304        1.59848183464284
C           -0.21473095568964        7.24015934882472        1.05753806029483
C            3.53228080814219       -2.00967610361154        7.02506769044485
O            3.64093082622715       -3.14437803815732        7.50071391725347
O            4.56565258381079       -1.22937033368332        6.69086985080897
C            5.72579357310716       -1.80692399125161        7.22246151275881
O           -7.04801223588612       -1.95726935745904        5.14194115322235
O           -6.01514389321278       -2.93743591896022        6.94765316328794
C           -7.21292732384718       -3.62681918543340        7.15115816329978
C           -4.95459780685163        2.65960679932188        5.86868674392943
C           -3.68284113682406        2.59129188358641        2.05479246020704
H           -7.43119628931628       -4.22607794725959        6.20622607140901
H           -8.06548455146707       -2.91765848248592        7.29781126410398
H           -7.07314693247270       -4.33087306029711        7.91223421050944
H            6.57332189837178       -1.29353136199234        6.78341268688262
H            5.74663761932316       -2.84282155125561        6.88089468184451
H            5.69426191474290       -1.72781984964892        8.29460302186842
H           -4.10481209541493        3.44288266176275        2.60483747673152
H           -4.49244774344916        1.87419893016926        1.82433103764650
H           -3.18901540870812        2.85154642679373        1.06781919454921
H           -5.55414326821421        2.76698137191684        4.93950725322359
H           -4.78658370641210        3.62090640967288        6.25983200635257
H           -5.43485580473958        1.97242995129449        6.65265772412460
H            0.89164886030839        7.38838561720231        1.13776105146914
H           -0.62894889903848        8.04195665205089        1.64837664327952
H           -0.59282546386754        7.45699159724320        0.03719083132488
116
 energy: -22.675612688959 gnorm: 0.488580546979 xtb: 6.6.1 (8d0f1dd)
C           -2.57582224744104        0.19986468888620       -1.60520746506391
C           -1.68023102200600       -0.68529537884973       -0.91790723596193
C           -0.82733017187777       -0.16388032300293        0.17043263947699
C           -0.99044609376972        1.24673130413771        0.52634544637000
C           -1.96592956309679        2.03078096051062       -0.12385920250043
C           -2.83459209627893        1.51754256426039       -1.01880771946283
C           -0.04219247093721       -0.91630765313731        1.15461164561319
C            1.07498084144016       -0.32967831506716        1.65213428966559
C            1.06102175303055        1.11521035899498        1.56248029885403
N            0.00850456339259        1.85630208177469        1.17116313203807
C           -0.46435437452713       -2.10099089505512        1.80353329690230
C            0.36291338665420       -2.82574816145837        2.71667335908058
N            1.56735279657085       -2.17800334327773        3.14020923665293
C            1.98571713506476       -1.05081382126446        2.55609094176710
C            3.19043284596279       -0.34044638184264        2.99788152680473
C            3.35019236567792        0.98532239339976        2.62778797059319
C            2.21055896143753        1.75787479819315        2.15149274639464
C           -1.85306624111045       -2.57833477248824        1.67655245795260
C           -2.39894876303941       -3.75279726937757        2.33844914399511
C           -1.52298720793552       -4.42107327012647        3.22001361318594
C           -0.15625940508884       -3.96148472621305        3.38512550841801
O           -2.74796852085808       -1.51085770385663        1.33153182927552
O           -1.29535755925611       -1.94548031675275       -1.28246640146158
C           -3.94003018456099        2.34404114418233       -1.46847249123500
C           -2.03320500900166       -5.50156372888756        4.07276389808943
H           -2.12416988810074        3.12319296601093       -0.02078471855727
H           -3.34643734068830       -0.31190773167407       -2.15026908619817
H            2.29099373006700        2.80468447996176        2.08397494815169
H            3.77546474711572       -0.83436170908874        3.73908112898263
H            0.40282849191572       -4.41734187487416        4.12501146728943
H           -3.27992846454331       -4.38497570592065        1.80074670170755
O           -3.77818414235065        3.49614817082472       -1.64399180627756
O           -5.13101053281198        1.68587108294581       -1.72802588751516
C           -5.96133328897456        2.66810354742715       -2.24855531024126
C            4.60494150899026        1.47380032992811        3.25418745226596
O            5.11090025730697        0.93950285683847        4.23339599435417
O            5.30842555343145        2.49163392685590        2.62238336813256
C            6.13309771385013        3.07276020172227        3.53402411884135
O           -3.30297601750213       -5.52362945902391        4.27107273149961
O           -1.28685337370569       -6.35061876760261        4.88790267922613
C           -2.14768293462956       -6.80221962503497        5.80482368507511
C           -4.23386263559414       -1.80155302953887        1.27116664466459
C           -1.73374251819755       -2.52273555567197       -2.56452764641557
H           -1.63860466947416       -7.86915102113317        5.92957715840899
H           -3.27255082693545       -6.94904761766395        5.55186624951624
H           -2.08188052989956       -6.15527801116242        6.61932497160224
H            5.97437031971373        2.60747057202506        4.53810293143729
H            6.05347789405755        4.26010407954363        3.37194522170818
H            7.18511914467817        2.93164647147688        3.36274598475385
H           -2.05832441551078       -3.52848909990441       -2.58560257247805
H           -0.77357416071150       -2.62593938765191       -2.99197022360210
H           -2.36799962538597       -1.76833954647345       -3.22569994271604
H           -4.99898508022402       -1.04703647667036        1.11900691799427
H           -4.67718352871142       -2.60108659019082        1.75319778811381
H           -4.21915225767378       -2.05465480226176        0.27933613574850
H           -6.42967069195023        3.30026683281783       -1.43752150269293
H           -6.78356190998884        2.19426194429110       -2.87507418569829
H           -5.28276748935475        3.31876241408207       -2.71971025797049
C           -1.82479988507143        4.25878815742145        3.42887611258477
C           -2.14906369921273        3.03804020743137        4.00096317660745
C           -1.28760192544234        2.45692211442862        4.99910590355320
C           -0.05684447269375        3.02644648051329        5.23683829143203
C            0.26860595339816        4.25683561145591        4.70565361024919
C           -0.68669394132257        4.92226133202627        3.82676030952815
C           -1.56037078096751        1.15881570784386        5.47131301739237
C           -0.40781356029374        0.30212555116413        5.53025522275903
C            0.87125324345809        0.92260526946597        5.62652661409616
N            1.01811546067710        2.27444387697970        5.77000361326322
C           -2.84349789674642        0.64834515093171        5.90118433200468
C           -2.94038240400404       -0.76318595790214        6.10759198992361
N           -1.82831927165331       -1.60035660203586        6.04988009996545
C           -0.58005451821467       -1.07585851831621        5.80503308949334
C            0.57057216871395       -1.88756196200360        5.85326762397398
C            1.80214920585643       -1.35135929596998        5.81937751373182
C            2.05241673451013        0.07055424404021        5.85699325257574
C           -3.94311501422994        1.34496904161224        6.42722523447024
C           -5.05995184709863        0.58331641747374        6.66527905651724
C           -5.28292713189305       -0.72907371139404        6.30354524388006
C           -4.14315128938410       -1.49583605728999        6.01994620470052
O           -3.68696404664674        2.74310697398747        6.70357267592408
O           -3.31941964452634        2.32346473350997        3.56879677574359
C           -0.39312842064395        6.26048259885195        3.19362516628271
C           -6.68445004185247       -1.25494438028086        6.45168697493013
H            1.28119759627953        4.62350905036411        4.69757632321999
H           -2.23929761273542        4.55440805475968        2.55187797878725
H            3.19246336393273        0.06644636778112        5.92429307491443
H            0.52191189413363       -2.84401779381768        6.38177422448138
H           -4.12574162393677       -2.55808916166358        5.64240086563145
H           -6.02234899681271        1.11486428295214        7.06121701751712
O           -1.28277575624561        7.06010793518895        3.17436162683688
O            0.83778799599825        6.48136852895084        2.70794665295141
C            0.69334035813881        7.62760434052581        1.88667006413178
C            3.04155197678453       -2.04064893214548        5.97063959722173
O            3.02052198084881       -3.21313645099111        5.64659486200689
O            4.08960787400015       -1.29508222439794        6.53922993587811
C            5.09617869349725       -2.27366290730061        6.81707200426388
O           -7.52671948129068       -0.60071472079729        7.08928203547088
O           -7.01423808432673       -2.33922009762435        5.71610830729988
C           -8.35614664620860       -2.76608346016491        5.99172356268770
C           -4.83613940887014        3.53185012059684        6.91207386498898
C           -4.11615927507789        2.71314553705022        2.48555558693137
H           -9.26946526204054       -2.44551417007654        5.38972891356817
H           -8.53814060353665       -2.58419816060212        7.10403164961749
H           -8.38210506228094       -3.77992948169140        5.69636555393639
H            5.06382658362519       -3.18437688156904        6.09476709815056
H            4.84825035839087       -2.61126411446129        7.79223805815349
H            6.13869233167923       -1.82540834215882        7.18039689414558
H           -4.64223981407211        3.63036240975171        2.43271334510552
H           -4.72262256845081        1.83836261406033        2.25039018795521
H           -3.47738891388898        2.57518722317676        1.61865524942677
H           -5.48726914891886        3.88759906989647        5.99306265936261
H           -4.51209158615394        4.53508636741452        7.51442116857867
H           -5.56255750696410        3.05276074893447        7.57116105957307
H           -0.21936358899996        8.03873227605523        1.85569006768500
H            0.98066318450555        7.26832335393854        0.88906131828024
H            1.31831350346106        8.58975998897601        2.04075893982613
116
 energy: -22.689625729133 gnorm: 0.516318587918 xtb: 6.6.1 (8d0f1dd)
C           -3.16958004494381        0.46433978528699       -0.33827689064812
C           -2.45339859379318       -0.33570030898029        0.57596482972846
C           -1.17362130338600        0.17563517960246        1.15460626827242
C           -0.77320433909101        1.46861124021241        0.82382794621009
C           -1.61538788544578        2.26713128680042        0.07821222263754
C           -2.75345239029816        1.80364684255937       -0.51471830372341
C           -0.26550230847483       -0.61293111860695        1.90793688496604
C            1.09316335639027       -0.15384571212551        2.02471417136530
C            1.48343899840636        1.15528477303107        1.52838689100567
N            0.56397910049167        1.88620315732264        0.90439966518238
C           -0.48931463058546       -1.82830455558307        2.57397042167182
C            0.63339021574107       -2.61670988388801        3.07630281552798
N            1.91293108603824       -2.14940931456760        2.89425192881846
C            2.14985632407708       -0.86473942310624        2.61863995627726
C            3.38808884539629       -0.20465976556509        2.80045933663806
C            3.70903192633473        1.10563276421574        2.41741945215303
C            2.72720320926299        1.74368184972197        1.71096486204566
C           -1.68549859681006       -2.32901084875737        3.14457208137067
C           -1.82995779396786       -3.64578538406163        3.54749068989565
C           -0.76025159693570       -4.46544884899674        3.67980210044538
C            0.50459845484941       -4.01993174312456        3.42374066633906
O           -2.76742203365872       -1.38140175321246        3.33179352541031
O           -2.84527285989718       -1.68723240993868        0.47222291009726
C           -3.58875774599623        2.64505500455975       -1.48624288977265
C           -1.09430717851149       -5.81859666532158        4.18831974911518
H           -1.10902494764778        3.09863569324173       -0.44408543692262
H           -4.07307016062021        0.15624648484960       -0.83786720042290
H            2.84350578701075        2.79085595956287        1.45130835622823
H            3.90560009964737       -0.46222055870807        3.71309958139442
H            1.32180425179193       -4.60087749425468        3.60912348072128
H           -2.77565913005235       -3.82319539349256        4.18866241678650
O           -4.16779241052614        3.67036174698686       -0.99713284405769
O           -3.55092675285234        2.37930831488265       -2.79340397611055
C           -4.34890747050511        3.24199981370049       -3.59113448693983
C            5.12178500139790        1.65901522363705        2.73375841773677
O            6.15462467559274        1.08885318325951        2.88247565477015
O            5.02959390367444        3.07295148530915        2.87365458050538
C            6.23709670974964        3.91195309208080        2.65141967119487
O           -2.18260405560326       -6.25228963955858        4.14458568669525
O            0.09638041864508       -6.54287770025634        4.75029688021187
C           -0.17201364762412       -7.89679881227423        5.16941951571090
C           -3.98567185902537       -1.97777623341068        2.83310035625166
C           -3.38488356789370       -2.12252531436767       -0.86046634506747
H            0.77334661990017       -8.35357176190124        5.13338785666617
H           -1.00517089035281       -8.16031594407143        4.56954623576114
H           -0.71911482131336       -7.85559251082258        6.15215648556811
H            6.46320452120187        3.96310446592160        1.52908119589749
H            7.01894830575471        3.20815455179303        3.26448995461719
H            6.03310552813192        4.74063053309230        3.24793813406861
H           -4.44381057629789       -1.96565865083051       -0.92899704107914
H           -3.31198787488444       -3.29578290604550       -0.78722471163525
H           -2.89240513773852       -2.07369820606441       -1.80608617599792
H           -4.05101315809794       -1.82072483158682        1.83154659404707
H           -4.85933126557109       -1.39093218374058        3.28378801106664
H           -3.78778279739515       -2.98860331379562        2.75646020126111
H           -3.78627970899295        4.08337082118330       -3.89284198589421
H           -5.00286246713225        3.69822401668160       -2.79846643907999
H           -4.88485684728493        2.74061137505649       -4.39590056754947
C           -2.11795459669929        4.19339325066905        3.12536120741769
C           -2.55054534189374        2.94205601993393        3.57847148573583
C           -1.64046010928979        2.16239402293139        4.42957170555060
C           -0.29897479688271        2.57238412092729        4.41141435310241
C            0.02955629332112        4.04972190631767        4.42445245050244
C           -0.86338204591373        4.80854292680503        3.66955935065805
C           -1.89927272836090        0.95854414959766        5.14395838664939
C           -0.87598362221146        0.07180693427921        5.53100459148542
C            0.41764582447769        0.43742555248320        5.36665829473498
N            0.66579028209730        1.63378204116958        4.73596724232333
C           -3.14825943018793        0.44424358297995        5.50644160839393
C           -3.29015616324956       -0.91812470981556        5.81783734740335
N           -2.31494017098073       -1.69280094179821        6.09547968091529
C           -1.10454470052927       -1.25557696208768        5.99787865543468
C            0.02465654678771       -2.16635754673335        6.24296383235461
C            1.25784792671704       -1.62179964364337        6.10407326142998
C            1.58831238356422       -0.38112309228225        5.66747208458552
C           -4.29058707111062        1.31232306222903        5.69267793217020
C           -5.56336755450454        0.77638173820157        5.97586466291082
C           -5.75043188929007       -0.63831613361092        5.84200416881107
C           -4.58710530806324       -1.47539974983684        5.80599240355634
O           -4.23196560131106        2.71100731701979        5.43198130754695
O           -3.80561480965798        2.21419320243482        3.10632081917302
C           -0.34976305288643        6.08191828314014        3.10565584203515
C           -7.16063317350291       -1.11723026489694        5.81113580642000
H            1.00845072877105        4.43154365532586        4.36221304206816
H           -2.43904117259858        4.65803961900683        2.25452564693524
H            2.38913100047096        0.34156490066110        5.53533095085770
H           -0.21238385884143       -3.17312032215589        6.77499799597683
H           -4.74751171073825       -2.51518589403187        5.97619723410623
H           -6.39780433842786        1.55278779509803        6.30399223705362
O           -0.00353808140425        6.07641046213740        1.96379550389386
O           -0.23539799163036        7.05690848797503        4.11060509494192
C            0.21292822408984        8.18379900472225        3.33248902563200
C            2.50603624496550       -2.51805132835249        6.08936877015011
O            2.40627779292038       -3.43724524904795        6.89232452817951
O            3.69174163952222       -2.28883749889520        5.40633524858455
C            4.60014140538274       -3.22794094160142        5.82898549752400
O           -7.91940733987547       -0.24244308278429        6.16415232448431
O           -7.43379113885054       -2.37912274098415        5.37768888480933
C           -8.78583693335761       -2.47871251757035        5.21110438346328
C           -3.53211064153845        3.45308592019669        6.49547548088129
C           -4.76474253191648        2.95224916678987        2.43529283907451
H           -9.38836454996236       -1.90528437098698        5.95400154979351
H           -8.89038916736138       -3.48621168415790        5.40898460703199
H           -8.85277158919193       -2.30328306337876        4.13995451211152
H            4.48276201097838       -3.44806044970479        6.94108483089594
H            5.51163372752380       -2.81666324844969        5.58204189302418
H            4.63795819373377       -4.07847065222189        5.17625802176332
H           -5.40312178193690        3.39065710615995        3.14835743967584
H           -5.42308542001971        2.39193679845903        1.70915468061917
H           -4.31238527043240        3.73399304298584        1.82026248102724
H           -4.17054878786880        3.55022486306490        7.37312691064058
H           -3.51605733111475        4.52251494813256        6.12993132864321
H           -2.48352694075176        3.32396208777082        6.83058384183371
H            0.64065838911774        8.82391626024648        4.14795301529493
H           -0.80785940785973        8.56392868029949        3.00267231326575
H            0.90351088030064        7.95869590930253        2.59433805036475
116
 energy: -22.733702565636 gnorm: 0.455255302085 xtb: 6.6.1 (8d0f1dd)
C           -2.50019294414143        0.67542374087352       -0.86512955434603
C           -1.55989280558220       -0.30180898034837       -0.49611341956856
C           -0.45419083124022        0.15972371798174        0.27420677147354
C           -0.14276367555952        1.54171613919773        0.10279440612911
C           -1.07698788822916        2.50947180014092       -0.41022353267238
C           -2.27461934142513        2.04379291634569       -0.77618341886445
C            0.44587630437025       -0.77058579282864        0.94876906211567
C            1.70039994880309       -0.22164502385171        1.27960115223715
C            1.99571945101597        1.15838337792783        1.12489237016194
N            1.12373903816687        1.90743762289300        0.43323934142895
C            0.15831845077516       -2.05573749971974        1.54713722831436
C            1.20165431889120       -2.60137776037589        2.36035948473663
N            2.56250247423311       -2.43258180685191        2.20376874975993
C            2.72747830775052       -1.12491462820295        1.80357672298212
C            4.02646162960878       -0.54115389253049        2.07961637263486
C            4.22063741616935        0.82183441828374        1.97830909485896
C            3.16978862916882        1.76637565511912        1.56533139977215
C           -1.26207060391441       -2.48494352254423        1.74613938132747
C           -1.37290527711109       -3.66387037859117        2.56671853279911
C           -0.35178643674174       -4.35157333194072        3.27019879953446
C            0.91149323774900       -3.85025861998664        3.02078651272281
O           -2.31025040988092       -1.56934561101970        1.57389081612493
O           -1.41449505180444       -1.57281363425592       -1.12386339377416
C           -3.30436958179004        2.96811031398107       -1.29592200990937
C           -0.51962863712611       -5.76508199399938        3.74102228735034
H           -0.76308452554668        3.56767441203425       -0.51153927799566
H           -3.46871412104565        0.41332843212270       -1.27775819189277
H            3.17515078890890        2.91356604197273        1.66878403090416
H            4.77113961236939       -1.01281780812458        2.67956196083280
H            1.76941701542131       -4.41474556943646        3.35316507630808
H           -2.37926074335935       -4.20045923558896        2.49794097128740
O           -3.81296394419268        3.77743929920414       -0.55850764808638