Optimization of monomers started
      -----------------------------------------------------------      
     |                   =====================                   |     
     |                           x T B                           |     
     |                   =====================                   |     
     |                         S. Grimme                         |     
     |          Mulliken Center for Theoretical Chemistry        |     
     |                    University of Bonn                     |     
      -----------------------------------------------------------      

   * xtb version 6.7.1 (edcfbbe) compiled by 'runner@Mac-1732539442253.local' on 2024-11-25

   xtb is free software: you can redistribute it and/or modify it under
   the terms of the GNU Lesser General Public License as published by
   the Free Software Foundation, either version 3 of the License, or
   (at your option) any later version.
   
   xtb is distributed in the hope that it will be useful,
   but WITHOUT ANY WARRANTY; without even the implied warranty of
   MERCHANTABILITY or FITNESS FOR A PARTICULAR PURPOSE.  See the
   GNU Lesser General Public License for more details.
   
   Cite this work as:
   * C. Bannwarth, E. Caldeweyher, S. Ehlert, A. Hansen, P. Pracht,
     J. Seibert, S. Spicher, S. Grimme, WIREs Comput. Mol. Sci., 2020, 11,
     e01493. DOI: 10.1002/wcms.1493
   
   for GFN2-xTB:
   * C. Bannwarth, S. Ehlert and S. Grimme., J. Chem. Theory Comput., 2019,
     15, 1652-1671. DOI: 10.1021/acs.jctc.8b01176
   for GFN1-xTB:
   * S. Grimme, C. Bannwarth, P. Shushkov, J. Chem. Theory Comput., 2017,
     13, 1989-2009. DOI: 10.1021/acs.jctc.7b00118
   for GFN0-xTB:
   * P. Pracht, E. Caldeweyher, S. Ehlert, S. Grimme, ChemRxiv, 2019, preprint.
     DOI: 10.26434/chemrxiv.8326202.v1
   for GFN-FF:
   * S. Spicher and S. Grimme, Angew. Chem. Int. Ed., 2020, 59, 15665-15673.
     DOI: 10.1002/anie.202004239
   
   for ALPB and GBSA implicit solvation:
   * S. Ehlert, M. Stahn, S. Spicher, S. Grimme, J. Chem. Theory Comput.,
     2021, 17, 4250-4261. DOI: 10.1021/acs.jctc.1c00471
   
   for ddCOSMO and CPCM-X implicit solvation:
   * M. Stahn, S. Ehlert, S. Grimme, J. Phys. Chem. A,
     2023, XX, XXXX-XXXX. DOI: 10.1021/acs.jpca.3c04382
   
   for DFT-D4:
   * E. Caldeweyher, C. Bannwarth and S. Grimme, J. Chem. Phys., 2017,
     147, 034112. DOI: 10.1063/1.4993215
   * E. Caldeweyher, S. Ehlert, A. Hansen, H. Neugebauer, S. Spicher,
     C. Bannwarth and S. Grimme, J. Chem. Phys., 2019, 150, 154122.
     DOI: 10.1063/1.5090222
   * E. Caldeweyher, J.-M. Mewes, S. Ehlert and S. Grimme, Phys. Chem. Chem. Phys.
     2020, 22, 8499-8512. DOI: 10.1039/D0CP00502A
   
   for sTDA-xTB:
   * S. Grimme and C. Bannwarth, J. Chem. Phys., 2016, 145, 054103.
     DOI: 10.1063/1.4959605
   
   in the mass-spec context:
   * V. Asgeirsson, C. Bauer and S. Grimme, Chem. Sci., 2017, 8, 4879.
     DOI: 10.1039/c7sc00601b
   * J. Koopman and S. Grimme, ACS Omega 2019, 4, 12, 15120-15133.
     DOI: 10.1021/acsomega.9b02011
   
   for metadynamics refer to:
   * S. Grimme, J. Chem. Theory Comput., 2019, 155, 2847-2862
     DOI: 10.1021/acs.jctc.9b00143
   
   for SPH calculations refer to:
   * S. Spicher and S. Grimme, J. Chem. Theory Comput., 2021, 17, 1701-1714
     DOI: 10.1021/acs.jctc.0c01306
   
   for ONIOM refer to:
   * C. Plett, A. Katbashev, S. Ehlert, S. Grimme, M. Bursch,
     Phys. Chem. Chem. Phys., 2023, 25, 17860-17868. DOI: 10.1039/D3CP02178E
   
   for DIPRO refer to:
   * J. Kohn, N. Gildemeister, S. Grimme, D. Fazzi, A. Hansen,
     J. Chem. Phys., 2023, just accepted.
   
   for PTB refer to:
   * S. Grimme, M. Mueller, A. Hansen, J. Chem. Phys., 2023, 158, 124111.
     DOI: 10.1063/5.0137838
   
   with help from (in alphabetical order)
   P. Atkinson, C. Bannwarth, F. Bohle, G. Brandenburg, E. Caldeweyher
   M. Checinski, S. Dohm, S. Ehlert, S. Ehrlich, I. Gerasimov, C. Hölzer
   A. Katbashev, J. Kohn, J. Koopman, C. Lavigne, S. Lehtola, F. März, M. Müller,
   F. Musil, H. Neugebauer, J. Pisarek, C. Plett, P. Pracht, F. Pultar,
   J. Seibert, P. Shushkov, S. Spicher, M. Stahn, M. Steiner, T. Strunk,
   J. Stückrath, T. Rose, and J. Unsleber
   
 * started run on 2025/03/20 at 10:43:07.196     
   ID    Z sym.   atoms
    1    6 C      1-21, 25-44, 47, 52-75
    2    8 O      22, 23, 45, 46, 48-51
    3    5 B      24
    4    1 H      76-141

           -------------------------------------------------
          |                Calculation Setup                |
           -------------------------------------------------

          program call               : xtb Katherine1.mol --opt tight --cycles 500 --chrg -1 --uhf 2 --spinpol --tblite
          coordinate file            : Katherine1.mol
          omp threads                :                     8

########################################################################
[WARNING] Please study the warnings concerning your input carefully
-1- prog_main: Charge in sdf/mol input was overwritten
########################################################################
repulsion energy          2.8095451010688E+00 Eh
dispersion energy         2.8033149374234E-03 Eh
interaction energy        0.0000000000000E+00 Eh
number of electrons       3.8200000000000E+02 e
integral cutoff           1.9311100799991E+01 bohr

------------------------------------------------------------
  cycle        total energy    energy error   density error
------------------------------------------------------------
      1     -208.1765921153  -2.1098894E+02   1.0920567E-01
      2     -209.0155337847  -8.3894167E-01   5.2941150E-02
      3     -209.0064685648   9.0652198E-03   2.8292035E-02
      4     -209.0779318942  -7.1463329E-02   1.3827702E-02
      5     -209.1247254210  -4.6793527E-02   5.1414225E-03
      6     -209.1296829571  -4.9575361E-03   2.8900536E-03
      7     -209.1313824981  -1.6995410E-03   1.7031798E-03
      8     -209.1319160954  -5.3359727E-04   6.9846213E-04
      9     -209.1319616081  -4.5512688E-05   4.5418763E-04
     10     -209.1319782358  -1.6627684E-05   2.2580603E-04
     11     -209.1319803977  -2.1619100E-06   1.3241374E-04
     12     -209.1319827404  -2.3427819E-06   6.3529228E-05
     13     -209.1319829885  -2.4805288E-07   3.2263410E-05
     14     -209.1319830913  -1.0277984E-07   1.5270773E-05
------------------------------------------------------------

electronic energy        -2.1194433150728E+02 Eh
total energy             -2.0913198309128E+02 Eh

 total:                                   1.806 sec
 - repulsion                              0.001 sec (  0%)
 - dispersion                             0.041 sec (  2%)
 - coulomb                                0.006 sec (  0%)
 - hamiltonian                            0.034 sec (  1%)
 - scc                                    1.725 sec ( 95%)

      ----------------------------------------------------------- 
     |                   =====================                   |
     |                        A N C O P T                        |
     |                   =====================                   |
     |               Approximate Normal Coordinate               |
     |                Rational Function Optimizer                |
      ----------------------------------------------------------- 
      ----------------------------------------------------------- 
     |                   =====================                   |
     |                        A N C O P T                        |
     |                   =====================                   |
     |               Approximate Normal Coordinate               |
     |                Rational Function Optimizer                |
      ----------------------------------------------------------- 

          ...................................................
          :                      SETUP                      :
          :.................................................:
          :   optimization level             tight          :
          :   max. optcycles                   500          :
          :   ANC micro-cycles                  20          :
          :   degrees of freedom               417          :
          :.................................................:
          :   RF solver                   davidson          :
          :   write xtbopt.log                true          :
          :   linear?                        false          :
          :   energy convergence         0.1000000E-05 Eh   :
          :   grad. convergence          0.8000000E-03 Eh/α :
          :   maxmium RF displ.          1.0000000          :
          :   Hlow (freq-cutoff)         0.1000000E-01      :
          :   Hmax (freq-cutoff)         5.0000000          :
          :   S6 in model hess.         20.0000000          :
          ...................................................

generating ANC from exact Hessian ...
Using Lindh-Hessian (1995)
 Shifting diagonal of input Hessian by    9.9756641174003954E-003
 Lowest  eigenvalues of input Hessian
    0.000000    0.000000    0.000000    0.000000    0.000000    0.000000
    0.010000    0.010015    0.010017    0.010101    0.010130    0.010326
    0.010335    0.010393    0.010519    0.010634    0.010734    0.010761
 Highest eigenvalues
    1.991351    1.993531    2.194923    2.196995    2.223459    2.224924


........................................................................
.............................. CYCLE    1 ..............................
........................................................................
------------------------------------------------------------
  cycle        total energy    energy error   density error
------------------------------------------------------------
      1     -209.1319827860  -2.1194433E+02   2.9134463E-05
      2     -209.1319827294   5.6631762E-08   2.9445567E-05
      3     -209.1319831114  -3.8197746E-07   5.2673765E-06
------------------------------------------------------------

 total:                                   0.807 sec
 * total energy  :  -209.1319831 Eh     change       -0.2007479E-07 Eh
   gradient norm :     0.2281725 Eh/α   predicted     0.0000000E+00 (-100.00%)
   displ. norm   :     0.5573864 α      lambda       -0.1025699E+00
   maximum displ.:     0.2020050 α      in ANC's #162, #241, #224, ...

........................................................................
.............................. CYCLE    2 ..............................
........................................................................
------------------------------------------------------------
  cycle        total energy    energy error   density error
------------------------------------------------------------
      1     -209.2055837690  -2.1213503E+02   6.6576350E-03
      2     -209.2059014437  -3.1767466E-04   4.3843118E-03
      3     -209.2050281684   8.7327531E-04   3.1689641E-03
      4     -209.2076190658  -2.5908974E-03   7.3914004E-04
      5     -209.2077896532  -1.7058744E-04   3.1556535E-04
      6     -209.2078046249  -1.4971729E-05   2.1541449E-04
      7     -209.2078062601  -1.6351771E-06   1.0834791E-04
      8     -209.2078086059  -2.3457745E-06   4.2106702E-05
      9     -209.2078087594  -1.5351864E-07   2.4319399E-05
     10     -209.2078087986  -3.9178360E-08   1.0104929E-05
------------------------------------------------------------

 total:                                   1.453 sec
 * total energy  :  -209.2078088 Eh     change       -0.7582569E-01 Eh
   gradient norm :     0.1226144 Eh/α   predicted    -0.6722975E-01 ( -11.34%)
   displ. norm   :     0.5675113 α      lambda       -0.5044647E-01
   maximum displ.:     0.2172126 α      in ANC's #154, #90, #162, ...

........................................................................
.............................. CYCLE    3 ..............................
........................................................................
------------------------------------------------------------
  cycle        total energy    energy error   density error
------------------------------------------------------------
      1     -209.2385423371  -2.1227565E+02   4.8264491E-03
      2     -209.2390438648  -5.0152768E-04   3.3731168E-03
      3     -209.2390623337  -1.8468862E-05   2.0401492E-03
      4     -209.2399873746  -9.2504088E-04   5.4548567E-04
      5     -209.2400639858  -7.6611271E-05   2.5678092E-04
      6     -209.2400729499  -8.9641135E-06   1.6372018E-04
      7     -209.2400722171   7.3284241E-07   9.7298901E-05
      8     -209.2400748782  -2.6610656E-06   3.0458783E-05
      9     -209.2400749532  -7.5046700E-08   1.8321413E-05
------------------------------------------------------------

 total:                                   1.325 sec
 * total energy  :  -209.2400750 Eh     change       -0.3226615E-01 Eh
   gradient norm :     0.0379994 Eh/α   predicted    -0.3334688E-01 (   3.35%)
   displ. norm   :     0.5627202 α      lambda       -0.1444764E-01
   maximum displ.:     0.1709291 α      in ANC's #90, #36, #30, ...

........................................................................
.............................. CYCLE    4 ..............................
........................................................................
------------------------------------------------------------
  cycle        total energy    energy error   density error
------------------------------------------------------------
      1     -209.2506433732  -2.1232217E+02   3.3008215E-03
      2     -209.2506949949  -5.1621667E-05   1.9504045E-03
      3     -209.2503936288   3.0136602E-04   1.0620985E-03
      4     -209.2507516620  -3.5803320E-04   1.5947751E-04
      5     -209.2507598817  -8.2196558E-06   8.1688008E-05
      6     -209.2507605998  -7.1807779E-07   4.6406444E-05
      7     -209.2507605615   3.8301522E-08   2.1281139E-05
      8     -209.2507606804  -1.1894375E-07   9.3522933E-06
------------------------------------------------------------

 total:                                   1.505 sec
 * total energy  :  -209.2507607 Eh     change       -0.1068573E-01 Eh
   gradient norm :     0.0226552 Eh/α   predicted    -0.9511270E-02 ( -10.99%)
   displ. norm   :     0.6179223 α      lambda       -0.8079545E-02
   maximum displ.:     0.2252721 α      in ANC's #30, #21, #36, ...

........................................................................
.............................. CYCLE    5 ..............................
........................................................................
------------------------------------------------------------
  cycle        total energy    energy error   density error
------------------------------------------------------------
      1     -209.2568414789  -2.1235762E+02   2.8145849E-03
      2     -209.2568603981  -1.8919203E-05   1.6506848E-03
      3     -209.2567004272   1.5997089E-04   7.1321139E-04
      4     -209.2568801280  -1.7970079E-04   1.0419742E-04
      5     -209.2568838148  -3.6867537E-06   5.0686009E-05
      6     -209.2568841085  -2.9369684E-07   2.7237674E-05
      7     -209.2568841077   8.2303586E-10   1.2118142E-05
------------------------------------------------------------

 total:                                   1.114 sec
 * total energy  :  -209.2568841 Eh     change       -0.6123427E-02 Eh
   gradient norm :     0.0161048 Eh/α   predicted    -0.5582274E-02 (  -8.84%)
   displ. norm   :     0.6163819 α      lambda       -0.4619619E-02
   maximum displ.:     0.2743552 α      in ANC's #21, #30, #33, ...

........................................................................
.............................. CYCLE    6 ..............................
........................................................................
------------------------------------------------------------
  cycle        total energy    energy error   density error
------------------------------------------------------------
      1     -209.2603762558  -2.1237859E+02   2.2990306E-03
      2     -209.2603930900  -1.6834199E-05   1.3626300E-03
      3     -209.2602894402   1.0364981E-04   5.6102557E-04
      4     -209.2604057694  -1.1632925E-04   8.0637444E-05
      5     -209.2604080770  -2.3076106E-06   3.7033463E-05
      6     -209.2604083530  -2.7594663E-07   1.8082625E-05
------------------------------------------------------------

 total:                                   0.969 sec
 * total energy  :  -209.2604084 Eh     change       -0.3524245E-02 Eh
   gradient norm :     0.0091418 Eh/α   predicted    -0.3187370E-02 (  -9.56%)
   displ. norm   :     0.6250495 α      lambda       -0.2934003E-02
   maximum displ.:     0.3413405 α      in ANC's #21, #30, #33, ...

........................................................................
.............................. CYCLE    7 ..............................
........................................................................
------------------------------------------------------------
  cycle        total energy    energy error   density error
------------------------------------------------------------
      1     -209.2627060502  -2.1239325E+02   1.8562229E-03
      2     -209.2627118950  -5.8448563E-06   1.0964886E-03
      3     -209.2626642858   4.7609180E-05   3.2975229E-04
      4     -209.2627165921  -5.2306302E-05   5.0026067E-05
      5     -209.2627172754  -6.8325551E-07   2.4004263E-05
      6     -209.2627173304  -5.4969576E-08   1.1977236E-05
------------------------------------------------------------

 total:                                   0.857 sec
 * total energy  :  -209.2627173 Eh     change       -0.2308977E-02 Eh
   gradient norm :     0.0102377 Eh/α   predicted    -0.2040141E-02 ( -11.64%)
   displ. norm   :     0.6373926 α      lambda       -0.2220613E-02
   maximum displ.:     0.3689287 α      in ANC's #21, #30, #6, ...

........................................................................
.............................. CYCLE    8 ..............................
........................................................................
------------------------------------------------------------
  cycle        total energy    energy error   density error
------------------------------------------------------------
      1     -209.2645225973  -2.1240193E+02   1.5738091E-03
      2     -209.2645361856  -1.3588295E-05   9.3432098E-04
      3     -209.2645073278   2.8857824E-05   2.7845097E-04
      4     -209.2645386542  -3.1326365E-05   6.5790579E-05
      5     -209.2645404090  -1.7548006E-06   2.1659311E-05
      6     -209.2645404753  -6.6288635E-08   1.3279407E-05
------------------------------------------------------------

 total:                                   1.100 sec
 * total energy  :  -209.2645405 Eh     change       -0.1823145E-02 Eh
   gradient norm :     0.0090910 Eh/α   predicted    -0.1561390E-02 ( -14.36%)
   displ. norm   :     0.6641608 α      lambda       -0.1927951E-02
   maximum displ.:     0.3718866 α      in ANC's #21, #6, #13, ...

........................................................................
.............................. CYCLE    9 ..............................
........................................................................
------------------------------------------------------------
  cycle        total energy    energy error   density error
------------------------------------------------------------
      1     -209.2661720564  -2.1240467E+02   1.5481768E-03
      2     -209.2661747436  -2.6872564E-06   9.2648699E-04
      3     -209.2660905955   8.4148117E-05   4.0771574E-04
      4     -209.2661826934  -9.2097924E-05   4.0023645E-05
      5     -209.2661830677  -3.7421344E-07   2.0951854E-05
      6     -209.2661830990  -3.1297333E-08   1.0764693E-05
------------------------------------------------------------

 total:                                   0.908 sec
 * total energy  :  -209.2661831 Eh     change       -0.1642624E-02 Eh
   gradient norm :     0.0088484 Eh/α   predicted    -0.1389196E-02 ( -15.43%)
   displ. norm   :     0.7198667 α      lambda       -0.1837858E-02
   maximum displ.:     0.3796407 α      in ANC's #21, #6, #13, ...

........................................................................
.............................. CYCLE   10 ..............................
........................................................................
------------------------------------------------------------
  cycle        total energy    energy error   density error
------------------------------------------------------------
      1     -209.2677205657  -2.1240738E+02   1.5638655E-03
      2     -209.2677310366  -1.0470830E-05   9.2450080E-04
      3     -209.2676579864   7.3050151E-05   4.0929562E-04
      4     -209.2677382068  -8.0220346E-05   6.1391733E-05
      5     -209.2677396168  -1.4100754E-06   2.4098045E-05
      6     -209.2677396848  -6.7996183E-08   1.5016945E-05
------------------------------------------------------------

 total:                                   0.841 sec
 * total energy  :  -209.2677397 Eh     change       -0.1556586E-02 Eh
   gradient norm :     0.0072561 Eh/α   predicted    -0.1395128E-02 ( -10.37%)
   displ. norm   :     0.7366197 α      lambda       -0.1582247E-02
   maximum displ.:     0.3453549 α      in ANC's #21, #6, #3, ...

........................................................................
.............................. CYCLE   11 ..............................
........................................................................
------------------------------------------------------------
  cycle        total energy    energy error   density error
------------------------------------------------------------
      1     -209.2690562946  -2.1240521E+02   1.5558370E-03
      2     -209.2690606651  -4.3705224E-06   9.2541508E-04
      3     -209.2689867306   7.3934488E-05   3.9543870E-04
      4     -209.2690677940  -8.1063323E-05   4.5036851E-05
      5     -209.2690683576  -5.6362131E-07   2.3766016E-05
      6     -209.2690684229  -6.5320052E-08   1.3465406E-05
------------------------------------------------------------

 total:                                   0.723 sec
 * total energy  :  -209.2690684 Eh     change       -0.1328738E-02 Eh
   gradient norm :     0.0066713 Eh/α   predicted    -0.1220397E-02 (  -8.15%)
   displ. norm   :     0.7200407 α      lambda       -0.1316717E-02
   maximum displ.:     0.3140512 α      in ANC's #6, #21, #3, ...

........................................................................
.............................. CYCLE   12 ..............................
........................................................................
------------------------------------------------------------
  cycle        total energy    energy error   density error
------------------------------------------------------------
      1     -209.2701619942  -2.1240857E+02   1.3763786E-03
      2     -209.2701705489  -8.5546027E-06   8.1407525E-04
      3     -209.2701247856   4.5763262E-05   3.2124266E-04
      4     -209.2701745990  -4.9813416E-05   5.8311733E-05
      5     -209.2701759021  -1.3030913E-06   2.2025597E-05
      6     -209.2701759708  -6.8715508E-08   1.3038146E-05
------------------------------------------------------------

 total:                                   0.809 sec
 * total energy  :  -209.2701760 Eh     change       -0.1107548E-02 Eh
   gradient norm :     0.0076564 Eh/α   predicted    -0.9996908E-03 (  -9.74%)
   displ. norm   :     0.7107299 α      lambda       -0.1128266E-02
   maximum displ.:     0.3251037 α      in ANC's #6, #3, #2, ...

........................................................................
.............................. CYCLE   13 ..............................
........................................................................
------------------------------------------------------------
  cycle        total energy    energy error   density error
------------------------------------------------------------
      1     -209.2711328298  -2.1240904E+02   1.2685825E-03
      2     -209.2711380960  -5.2661559E-06   7.5493847E-04
      3     -209.2711089892   2.9106805E-05   2.5934210E-04
      4     -209.2711406967  -3.1707496E-05   4.5962788E-05
      5     -209.2711414870  -7.9034990E-07   2.0260801E-05
      6     -209.2711415697  -8.2676365E-08   1.0923370E-05
------------------------------------------------------------

 total:                                   0.926 sec
 * total energy  :  -209.2711416 Eh     change       -0.9655989E-03 Eh
   gradient norm :     0.0062430 Eh/α   predicted    -0.8490984E-03 ( -12.07%)
   displ. norm   :     0.7033556 α      lambda       -0.1007093E-02
   maximum displ.:     0.3281394 α      in ANC's #6, #3, #2, ...

........................................................................
.............................. CYCLE   14 ..............................
........................................................................
------------------------------------------------------------
  cycle        total energy    energy error   density error
------------------------------------------------------------
      1     -209.2720019189  -2.1241294E+02   1.1719552E-03
      2     -209.2720070252  -5.1062786E-06   6.9507588E-04
      3     -209.2719877067   1.9318467E-05   2.1525623E-04
      4     -209.2720084485  -2.0741803E-05   4.8381090E-05
      5     -209.2720094019  -9.5341113E-07   1.8664941E-05
------------------------------------------------------------

 total:                                   0.978 sec
 * total energy  :  -209.2720094 Eh     change       -0.8678322E-03 Eh
   gradient norm :     0.0064225 Eh/α   predicted    -0.7526617E-03 ( -13.27%)
   displ. norm   :     0.7054898 α      lambda       -0.9190822E-03
   maximum displ.:     0.3293841 α      in ANC's #6, #3, #2, ...

........................................................................
.............................. CYCLE   15 ..............................
........................................................................
------------------------------------------------------------
  cycle        total energy    energy error   density error
------------------------------------------------------------
      1     -209.2727618022  -2.1241580E+02   1.1622322E-03
      2     -209.2727706498  -8.8476083E-06   6.8807302E-04
      3     -209.2727569134   1.3736475E-05   2.1314267E-04
      4     -209.2727723218  -1.5408418E-05   4.7356940E-05
      5     -209.2727731608  -8.3901381E-07   1.7037629E-05
------------------------------------------------------------

 total:                                   0.717 sec
 * total energy  :  -209.2727732 Eh     change       -0.7637589E-03 Eh
   gradient norm :     0.0084438 Eh/α   predicted    -0.6882619E-03 (  -9.88%)
   displ. norm   :     0.6921728 α      lambda       -0.8413864E-03
   maximum displ.:     0.3319605 α      in ANC's #3, #6, #2, ...

........................................................................
.............................. CYCLE   16 ..............................
........................................................................
------------------------------------------------------------
  cycle        total energy    energy error   density error
------------------------------------------------------------
      1     -209.2734355714  -2.1241633E+02   1.1222221E-03
      2     -209.2734464725  -1.0901179E-05   6.7002739E-04
      3     -209.2734091132   3.7359378E-05   3.1523067E-04
      4     -209.2734509065  -4.1793300E-05   6.2360683E-05
      5     -209.2734526266  -1.7201218E-06   1.9017137E-05
      6     -209.2734527220  -9.5383882E-08   9.6214981E-06
------------------------------------------------------------

 total:                                   1.168 sec
 * total energy  :  -209.2734527 Eh     change       -0.6795612E-03 Eh
   gradient norm :     0.0071458 Eh/α   predicted    -0.6222504E-03 (  -8.43%)
   displ. norm   :     0.6545733 α      lambda       -0.6732783E-03
   maximum displ.:     0.3334735 α      in ANC's #3, #2, #6, ...

........................................................................
.............................. CYCLE   17 ..............................
........................................................................
------------------------------------------------------------
  cycle        total energy    energy error   density error
------------------------------------------------------------
      1     -209.2740283270  -2.1241823E+02   9.7974498E-04
      2     -209.2740301666  -1.8396761E-06   5.8231767E-04
      3     -209.2740026355   2.7531108E-05   2.4029646E-04
      4     -209.2740327810  -3.0145489E-05   2.9358766E-05
      5     -209.2740330467  -2.6565391E-07   1.3492818E-05
------------------------------------------------------------

 total:                                   0.754 sec
 * total energy  :  -209.2740330 Eh     change       -0.5803247E-03 Eh
   gradient norm :     0.0050328 Eh/α   predicted    -0.4808798E-03 ( -17.14%)
   displ. norm   :     0.6172693 α      lambda       -0.5824214E-03
   maximum displ.:     0.3354904 α      in ANC's #3, #2, #6, ...

........................................................................
.............................. CYCLE   18 ..............................
........................................................................
------------------------------------------------------------
  cycle        total energy    energy error   density error
------------------------------------------------------------
      1     -209.2745400785  -2.1241912E+02   8.4496131E-04
      2     -209.2745415810  -1.5025608E-06   4.9922656E-04
      3     -209.2745319275   9.6535876E-06   1.6168322E-04
      4     -209.2745426006  -1.0673158E-05   2.3803493E-05
      5     -209.2745427747  -1.7411415E-07   1.2528497E-05
------------------------------------------------------------

 total:                                   0.735 sec
 * total energy  :  -209.2745428 Eh     change       -0.5097281E-03 Eh
   gradient norm :     0.0043091 Eh/α   predicted    -0.4021742E-03 ( -21.10%)
   displ. norm   :     0.6001984 α      lambda       -0.5441908E-03
   maximum displ.:     0.3444592 α      in ANC's #3, #2, #6, ...

........................................................................
.............................. CYCLE   19 ..............................
........................................................................
------------------------------------------------------------
  cycle        total energy    energy error   density error
------------------------------------------------------------
      1     -209.2750184067  -2.1242023E+02   7.4559754E-04
      2     -209.2750195959  -1.1892031E-06   4.4137881E-04
      3     -209.2750142026   5.3933749E-06   1.2963782E-04
      4     -209.2750202553  -6.0526940E-06   2.0384817E-05
      5     -209.2750203587  -1.0344840E-07   1.1699661E-05
------------------------------------------------------------

 total:                                   0.775 sec
 * total energy  :  -209.2750204 Eh     change       -0.4775840E-03 Eh
   gradient norm :     0.0044987 Eh/α   predicted    -0.3701207E-03 ( -22.50%)
   displ. norm   :     0.6015616 α      lambda       -0.5365009E-03
   maximum displ.:     0.3575743 α      in ANC's #3, #2, #1, ...

........................................................................
.............................. CYCLE   20 ..............................
........................................................................
------------------------------------------------------------
  cycle        total energy    energy error   density error
------------------------------------------------------------
      1     -209.2754939303  -2.1242045E+02   6.9782295E-04
      2     -209.2754948725  -9.4218663E-07   4.1538255E-04
      3     -209.2754858640   9.0085193E-06   1.4977204E-04
      4     -209.2754957753  -9.9112847E-06   2.2052492E-05
      5     -209.2754959268  -1.5154910E-07   1.0291190E-05
------------------------------------------------------------

 total:                                   0.589 sec
 * total energy  :  -209.2754959 Eh     change       -0.4755681E-03 Eh
   gradient norm :     0.0052079 Eh/α   predicted    -0.3653251E-03 ( -23.18%)
   displ. norm   :     0.6177372 α      lambda       -0.5530601E-03
   maximum displ.:     0.3750423 α      in ANC's #3, #2, #1, ...
 * RMSD in coord.:     0.8337450 α      energy gain  -0.1435128E+00 Eh

generating ANC from exact Hessian ...
Using Lindh-Hessian (1995)
 Shifting diagonal of input Hessian by    9.9660007309930743E-003
 Lowest  eigenvalues of input Hessian
    0.000000    0.000000    0.000000    0.000000    0.000000    0.000000
    0.010000    0.010028    0.010030    0.010111    0.010155    0.010386
    0.010410    0.010465    0.010606    0.010714    0.010807    0.010840
 Highest eigenvalues
    2.082479    2.083381    2.228401    2.228570    2.248387    2.248793


........................................................................
.............................. CYCLE   21 ..............................
........................................................................
------------------------------------------------------------
  cycle        total energy    energy error   density error
------------------------------------------------------------
      1     -209.2759980984  -2.1242046E+02   7.1698481E-04
      2     -209.2759989375  -8.3908930E-07   4.2494188E-04
      3     -209.2759921817   6.7558229E-06   1.3145630E-04
      4     -209.2759995999  -7.4182505E-06   1.9795183E-05
      5     -209.2759997279  -1.2800837E-07   9.5532314E-06
------------------------------------------------------------

 total:                                   1.244 sec
 * total energy  :  -209.2759997 Eh     change       -0.5038011E-03 Eh
   gradient norm :     0.0056171 Eh/α   predicted     0.0000000E+00 (-100.00%)
   displ. norm   :     0.1056136 α      lambda       -0.1629496E-03
   maximum displ.:     0.0818138 α      in ANC's #2, #24, #3, ...

........................................................................
.............................. CYCLE   22 ..............................
........................................................................
------------------------------------------------------------
  cycle        total energy    energy error   density error
------------------------------------------------------------
      1     -209.2761543015  -2.1242055E+02   2.6680167E-04
      2     -209.2761544515  -1.4999691E-07   1.5775909E-04
      3     -209.2761509183   3.5331910E-06   8.9069084E-05
      4     -209.2761548974  -3.9790978E-06   9.4655250E-06
      5     -209.2761549236  -2.6178753E-08   4.2279527E-06
------------------------------------------------------------

 total:                                   0.888 sec
 * total energy  :  -209.2761549 Eh     change       -0.1551957E-03 Eh
   gradient norm :     0.0037704 Eh/α   predicted    -0.8509468E-04 ( -45.17%)
   displ. norm   :     0.3035393 α      lambda       -0.4024670E-03
   maximum displ.:     0.2125895 α      in ANC's #2, #3, #24, ...

........................................................................
.............................. CYCLE   23 ..............................
........................................................................
------------------------------------------------------------
  cycle        total energy    energy error   density error
------------------------------------------------------------
      1     -209.2764845488  -2.1242066E+02   7.5247644E-04
      2     -209.2764855526  -1.0038218E-06   4.4239389E-04
      3     -209.2764795883   5.9643236E-06   1.2139720E-04
      4     -209.2764861383  -6.5500097E-06   2.3280250E-05
      5     -209.2764863207  -1.8244234E-07   1.1646757E-05
------------------------------------------------------------

 total:                                   0.606 sec
 * total energy  :  -209.2764863 Eh     change       -0.3313971E-03 Eh
   gradient norm :     0.0028650 Eh/α   predicted    -0.2197814E-03 ( -33.68%)
   displ. norm   :     0.3867046 α      lambda       -0.3607039E-03
   maximum displ.:     0.2722167 α      in ANC's #2, #3, #13, ...

........................................................................
.............................. CYCLE   24 ..............................
........................................................................
------------------------------------------------------------
  cycle        total energy    energy error   density error
------------------------------------------------------------
      1     -209.2767814987  -2.1242030E+02   8.8354996E-04
      2     -209.2767828603  -1.3616647E-06   5.1857394E-04
      3     -209.2767781730   4.6873194E-06   1.2710184E-04
      4     -209.2767835912  -5.4182078E-06   2.0688139E-05
      5     -209.2767836745  -8.3314660E-08   1.3304084E-05
------------------------------------------------------------

 total:                                   0.791 sec
 * total energy  :  -209.2767837 Eh     change       -0.2973538E-03 Eh
   gradient norm :     0.0052985 Eh/α   predicted    -0.2073577E-03 ( -30.27%)
   displ. norm   :     0.3533548 α      lambda       -0.2771291E-03
   maximum displ.:     0.2504060 α      in ANC's #2, #3, #13, ...

........................................................................
.............................. CYCLE   25 ..............................
........................................................................
------------------------------------------------------------
  cycle        total energy    energy error   density error
------------------------------------------------------------
      1     -209.2770321762  -2.1242016E+02   7.3459696E-04
      2     -209.2770331306  -9.5445091E-07   4.2987437E-04
      3     -209.2770308707   2.2599194E-06   1.0086839E-04
      4     -209.2770336123  -2.7416238E-06   1.3949980E-05
      5     -209.2770336244  -1.2123621E-08   9.3048885E-06
------------------------------------------------------------

 total:                                   0.671 sec
 * total energy  :  -209.2770336 Eh     change       -0.2499499E-03 Eh
   gradient norm :     0.0060438 Eh/α   predicted    -0.1558751E-03 ( -37.64%)
   displ. norm   :     0.3491197 α      lambda       -0.2939018E-03
   maximum displ.:     0.2459088 α      in ANC's #2, #3, #13, ...

........................................................................
.............................. CYCLE   26 ..............................
........................................................................
------------------------------------------------------------
  cycle        total energy    energy error   density error
------------------------------------------------------------
      1     -209.2773054651  -2.1242046E+02   6.6317112E-04
      2     -209.2773063357  -8.7057285E-07   3.8859470E-04
      3     -209.2773004692   5.8664994E-06   1.2485258E-04
      4     -209.2773069426  -6.4734328E-06   2.0732307E-05
      5     -209.2773070961  -1.5350594E-07   9.5374396E-06
------------------------------------------------------------

 total:                                   0.694 sec
 * total energy  :  -209.2773071 Eh     change       -0.2734716E-03 Eh
   gradient norm :     0.0052661 Eh/α   predicted    -0.1648623E-03 ( -39.72%)
   displ. norm   :     0.4082860 α      lambda       -0.3570598E-03
   maximum displ.:     0.2870768 α      in ANC's #2, #3, #13, ...

........................................................................
.............................. CYCLE   27 ..............................
........................................................................
------------------------------------------------------------
  cycle        total energy    energy error   density error
------------------------------------------------------------
      1     -209.2776319823  -2.1242080E+02   7.1748742E-04
      2     -209.2776333800  -1.3976545E-06   4.1912734E-04
      3     -209.2776277250   5.6550422E-06   1.4030982E-04
      4     -209.2776341875  -6.4625711E-06   1.8850246E-05
      5     -209.2776342834  -9.5885696E-08   1.0796171E-05
------------------------------------------------------------

 total:                                   1.490 sec
 * total energy  :  -209.2776343 Eh     change       -0.3271873E-03 Eh
   gradient norm :     0.0040583 Eh/α   predicted    -0.2082913E-03 ( -36.34%)
   displ. norm   :     0.4618895 α      lambda       -0.3764301E-03
   maximum displ.:     0.3265091 α      in ANC's #2, #3, #13, ...

........................................................................
.............................. CYCLE   28 ..............................
........................................................................
------------------------------------------------------------
  cycle        total energy    energy error   density error
------------------------------------------------------------
      1     -209.2779744368  -2.1242095E+02   7.5255142E-04
      2     -209.2779759776  -1.5408557E-06   4.4281966E-04
      3     -209.2779665584   9.4192871E-06   1.5568137E-04
      4     -209.2779769539  -1.0395565E-05   2.5639451E-05
      5     -209.2779771833  -2.2939710E-07   1.1976384E-05
------------------------------------------------------------

 total:                                   2.162 sec
 * total energy  :  -209.2779772 Eh     change       -0.3428999E-03 Eh
   gradient norm :     0.0038550 Eh/α   predicted    -0.2283777E-03 ( -33.40%)
   displ. norm   :     0.4683177 α      lambda       -0.3507353E-03
   maximum displ.:     0.3330297 α      in ANC's #2, #3, #13, ...

........................................................................
.............................. CYCLE   29 ..............................
........................................................................
------------------------------------------------------------
  cycle        total energy    energy error   density error
------------------------------------------------------------
      1     -209.2783000427  -2.1242111E+02   7.1159787E-04
      2     -209.2783014990  -1.4563545E-06   4.1723050E-04
      3     -209.2782953638   6.1352485E-06   1.3372138E-04
      4     -209.2783022653  -6.9014733E-06   2.0267816E-05
      5     -209.2783023754  -1.1017687E-07   1.1839586E-05
------------------------------------------------------------

 total:                                   2.301 sec
 * total energy  :  -209.2783024 Eh     change       -0.3251921E-03 Eh
   gradient norm :     0.0042326 Eh/α   predicted    -0.2138444E-03 ( -34.24%)
   displ. norm   :     0.4570720 α      lambda       -0.3338628E-03
   maximum displ.:     0.3258607 α      in ANC's #2, #3, #1, ...

........................................................................
.............................. CYCLE   30 ..............................
........................................................................
------------------------------------------------------------
  cycle        total energy    energy error   density error
------------------------------------------------------------
      1     -209.2786158255  -2.1242143E+02   6.4942933E-04
      2     -209.2786168380  -1.0124849E-06   3.8409926E-04
      3     -209.2786011885   1.5649476E-05   1.8487088E-04
      4     -209.2786185364  -1.7347874E-05   2.0699591E-05
      5     -209.2786186561  -1.1968839E-07   1.0432749E-05
------------------------------------------------------------

 total:                                   1.783 sec
 * total energy  :  -209.2786187 Eh     change       -0.3162806E-03 Eh
   gradient norm :     0.0042259 Eh/α   predicted    -0.2018061E-03 ( -36.19%)
   displ. norm   :     0.4671555 α      lambda       -0.3469366E-03
   maximum displ.:     0.3327141 α      in ANC's #2, #3, #1, ...

........................................................................
.............................. CYCLE   31 ..............................
........................................................................
------------------------------------------------------------
  cycle        total energy    energy error   density error
------------------------------------------------------------
      1     -209.2789479520  -2.1242179E+02   6.2495127E-04
      2     -209.2789491227  -1.1706671E-06   3.6795165E-04
      3     -209.2789431694   5.9532261E-06   1.2383435E-04
      4     -209.2789499088  -6.7394169E-06   1.5961219E-05
      5     -209.2789499653  -5.6446595E-08   9.4169897E-06
------------------------------------------------------------

 total:                                   2.023 sec
 * total energy  :  -209.2789500 Eh     change       -0.3313092E-03 Eh
   gradient norm :     0.0037254 Eh/α   predicted    -0.2113253E-03 ( -36.22%)
   displ. norm   :     0.5029066 α      lambda       -0.3780276E-03
   maximum displ.:     0.3573498 α      in ANC's #2, #3, #1, ...

........................................................................
.............................. CYCLE   32 ..............................
........................................................................
------------------------------------------------------------
  cycle        total energy    energy error   density error
------------------------------------------------------------
      1     -209.2793098898  -2.1242202E+02   6.3489785E-04
      2     -209.2793109012  -1.0113203E-06   3.7331880E-04
      3     -209.2793073056   3.5955759E-06   9.7285303E-05
      4     -209.2793112968  -3.9912495E-06   1.9072696E-05
      5     -209.2793114152  -1.1832952E-07   9.9284364E-06
------------------------------------------------------------

 total:                                   3.331 sec
 * total energy  :  -209.2793114 Eh     change       -0.3614499E-03 Eh
   gradient norm :     0.0031661 Eh/α   predicted    -0.2368188E-03 ( -34.48%)
   displ. norm   :     0.5447204 α      lambda       -0.4058103E-03
   maximum displ.:     0.3862248 α      in ANC's #2, #3, #1, ...

........................................................................
.............................. CYCLE   33 ..............................
........................................................................
------------------------------------------------------------
  cycle        total energy    energy error   density error
------------------------------------------------------------
      1     -209.2796983793  -2.1242204E+02   6.4746410E-04
      2     -209.2796992986  -9.1927160E-07   3.8146660E-04
      3     -209.2796955169   3.7816524E-06   1.0219134E-04
      4     -209.2796997780  -4.2610980E-06   1.6190139E-05
      5     -209.2796998490  -7.0957867E-08   8.9642486E-06
------------------------------------------------------------

 total:                                   2.237 sec
 * total energy  :  -209.2796998 Eh     change       -0.3884338E-03 Eh
   gradient norm :     0.0030865 Eh/α   predicted    -0.2631137E-03 ( -32.26%)
   displ. norm   :     0.5780843 α      lambda       -0.4227921E-03
   maximum displ.:     0.4089498 α      in ANC's #2, #3, #1, ...

........................................................................
.............................. CYCLE   34 ..............................
........................................................................
------------------------------------------------------------
  cycle        total energy    energy error   density error
------------------------------------------------------------
      1     -209.2801042346  -2.1242194E+02   6.4859670E-04
      2     -209.2801049470  -7.1233114E-07   3.8162508E-04
      3     -209.2801001301   4.8168750E-06   1.0609326E-04
      4     -209.2801053989  -5.2687802E-06   1.9502009E-05
      5     -209.2801055318  -1.3292384E-07   8.6998217E-06
------------------------------------------------------------

 total:                                   2.891 sec
 * total energy  :  -209.2801055 Eh     change       -0.4056828E-03 Eh
   gradient norm :     0.0034197 Eh/α   predicted    -0.2820411E-03 ( -30.48%)
   displ. norm   :     0.6038716 α      lambda       -0.4348976E-03
   maximum displ.:     0.4261906 α      in ANC's #2, #3, #1, ...

........................................................................
.............................. CYCLE   35 ..............................
........................................................................
------------------------------------------------------------
  cycle        total energy    energy error   density error
------------------------------------------------------------
      1     -209.2805229057  -2.1242183E+02   6.4403888E-04
      2     -209.2805235267  -6.2093011E-07   3.7999210E-04
      3     -209.2805201851   3.3415500E-06   9.3177589E-05
      4     -209.2805239145  -3.7294230E-06   1.5738455E-05
      5     -209.2805239815  -6.6929204E-08   8.3188363E-06
------------------------------------------------------------

 total:                                   2.687 sec
 * total energy  :  -209.2805240 Eh     change       -0.4184496E-03 Eh
   gradient norm :     0.0036417 Eh/α   predicted    -0.2967444E-03 ( -29.08%)
   displ. norm   :     0.6301711 α      lambda       -0.4492000E-03
   maximum displ.:     0.4438402 α      in ANC's #2, #3, #1, ...

........................................................................
.............................. CYCLE   36 ..............................
........................................................................
------------------------------------------------------------
  cycle        total energy    energy error   density error
------------------------------------------------------------
      1     -209.2809556526  -2.1242181E+02   6.4750202E-04
      2     -209.2809562039  -5.5126677E-07   3.8127055E-04
      3     -209.2809540927   2.1111900E-06   7.2547145E-05
      4     -209.2809564569  -2.3642154E-06   1.6117732E-05
      5     -209.2809565262  -6.9327285E-08   8.3819706E-06
------------------------------------------------------------

 total:                                   1.607 sec
 * total energy  :  -209.2809565 Eh     change       -0.4325448E-03 Eh
   gradient norm :     0.0034745 Eh/α   predicted    -0.3137931E-03 ( -27.45%)
   displ. norm   :     0.6596643 α      lambda       -0.4645674E-03
   maximum displ.:     0.4640909 α      in ANC's #2, #3, #1, ...

........................................................................
.............................. CYCLE   37 ..............................
........................................................................
------------------------------------------------------------
  cycle        total energy    energy error   density error
------------------------------------------------------------
      1     -209.2814033150  -2.1242192E+02   6.6031054E-04
      2     -209.2814038431  -5.2817526E-07   3.8975163E-04
      3     -209.2813975984   6.2447117E-06   1.1946568E-04
      4     -209.2814044135  -6.8150947E-06   1.7381918E-05
      5     -209.2814045019  -8.8368495E-08   8.8098202E-06
------------------------------------------------------------

 total:                                   1.775 sec
 * total energy  :  -209.2814045 Eh     change       -0.4479756E-03 Eh
   gradient norm :     0.0029460 Eh/α   predicted    -0.3333688E-03 ( -25.58%)
   displ. norm   :     0.6888892 α      lambda       -0.4752784E-03
   maximum displ.:     0.4847928 α      in ANC's #2, #3, #1, ...

........................................................................
.............................. CYCLE   38 ..............................
........................................................................
------------------------------------------------------------
  cycle        total energy    energy error   density error
------------------------------------------------------------
      1     -209.2818610118  -2.1242224E+02   6.7484265E-04
      2     -209.2818616776  -6.6584141E-07   3.9794893E-04
      3     -209.2818595871   2.0905479E-06   7.6022842E-05
      4     -209.2818620055  -2.4183694E-06   1.4384923E-05
      5     -209.2818620362  -3.0759452E-08   8.2047767E-06
------------------------------------------------------------

 total:                                   1.556 sec
 * total energy  :  -209.2818620 Eh     change       -0.4575343E-03 Eh
   gradient norm :     0.0022661 Eh/α   predicted    -0.3504175E-03 ( -23.41%)
   displ. norm   :     0.7108430 α      lambda       -0.4752026E-03
   maximum displ.:     0.5010398 α      in ANC's #2, #3, #1, ...

........................................................................
.............................. CYCLE   39 ..............................
........................................................................
------------------------------------------------------------
  cycle        total energy    energy error   density error
------------------------------------------------------------
      1     -209.2823192724  -2.1242275E+02   6.8471234E-04
      2     -209.2823199073  -6.3490137E-07   4.0348249E-04
      3     -209.2823173306   2.5767557E-06   8.3940836E-05
      4     -209.2823201862  -2.8556521E-06   1.7189293E-05
      5     -209.2823202689  -8.2739291E-08   9.4261781E-06
------------------------------------------------------------

 total:                                   1.630 sec
 * total energy  :  -209.2823203 Eh     change       -0.4582327E-03 Eh
   gradient norm :     0.0018809 Eh/α   predicted    -0.3576617E-03 ( -21.95%)
   displ. norm   :     1.0846158 α      lambda       -0.4647808E-03
   maximum displ.:     0.7663948 α      in ANC's #2, #3, #1, ...

........................................................................
.............................. CYCLE   40 ..............................
........................................................................
------------------------------------------------------------
  cycle        total energy    energy error   density error
------------------------------------------------------------
      1     -209.2829732030  -2.1242332E+02   1.0280095E-03
      2     -209.2829747370  -1.5339694E-06   6.0678724E-04
      3     -209.2829689190   5.8180132E-06   1.2166838E-04
      4     -209.2829755469  -6.6279623E-06   2.2195673E-05
      5     -209.2829756334  -8.6482288E-08   1.2162953E-05
------------------------------------------------------------

 total:                                   1.462 sec
 * total energy  :  -209.2829756 Eh     change       -0.6553645E-03 Eh
   gradient norm :     0.0023909 Eh/α   predicted    -0.3538946E-03 ( -46.00%)
   displ. norm   :     0.7036737 α      lambda       -0.4213917E-03
   maximum displ.:     0.4992945 α      in ANC's #2, #3, #1, ...

........................................................................
.............................. CYCLE   41 ..............................
........................................................................
------------------------------------------------------------
  cycle        total energy    energy error   density error
------------------------------------------------------------
      1     -209.2833815820  -2.1242417E+02   6.5851530E-04
      2     -209.2833822846  -7.0262809E-07   3.8868836E-04
      3     -209.2833790946   3.1899813E-06   9.1845331E-05
      4     -209.2833826339  -3.5392853E-06   1.6880539E-05
      5     -209.2833827222  -8.8278114E-08   8.6948320E-06
------------------------------------------------------------

 total:                                   1.435 sec
 * total energy  :  -209.2833827 Eh     change       -0.4070888E-03 Eh
   gradient norm :     0.0026295 Eh/α   predicted    -0.3150255E-03 ( -22.62%)
   displ. norm   :     0.7238275 α      lambda       -0.4252077E-03
   maximum displ.:     0.5152317 α      in ANC's #2, #3, #1, ...

........................................................................
.............................. CYCLE   42 ..............................
........................................................................
------------------------------------------------------------
  cycle        total energy    energy error   density error
------------------------------------------------------------
      1     -209.2837922758  -2.1242514E+02   6.7989865E-04
      2     -209.2837930290  -7.5323567E-07   4.0178548E-04
      3     -209.2837870343   5.9947291E-06   1.1402948E-04
      4     -209.2837936405  -6.6061890E-06   1.7729718E-05
      5     -209.2837937293  -8.8836771E-08   8.7584127E-06
------------------------------------------------------------

 total:                                   1.572 sec
 * total energy  :  -209.2837937 Eh     change       -0.4110071E-03 Eh
   gradient norm :     0.0026707 Eh/α   predicted    -0.3239949E-03 ( -21.17%)
   displ. norm   :     0.7407809 α      lambda       -0.4286059E-03
   maximum displ.:     0.5294590 α      in ANC's #2, #3, #1, ...
 * RMSD in coord.:     0.9519175 α      energy gain  -0.8297803E-02 Eh

generating ANC from exact Hessian ...
Using Lindh-Hessian (1995)
 Shifting diagonal of input Hessian by    9.9644772888801188E-003
 Lowest  eigenvalues of input Hessian
    0.000000    0.000000    0.000000    0.000000    0.000000    0.000000
    0.010000    0.010028    0.010030    0.010125    0.010165    0.010398
    0.010409    0.010473    0.010578    0.010723    0.010766    0.010806
 Highest eigenvalues
    2.079771    2.080451    2.224671    2.226600    2.243309    2.246468


........................................................................
.............................. CYCLE   43 ..............................
........................................................................
------------------------------------------------------------
  cycle        total energy    energy error   density error
------------------------------------------------------------
      1     -209.2842080729  -2.1242600E+02   7.0571597E-04
      2     -209.2842089912  -9.1830060E-07   4.1701856E-04
      3     -209.2842039100   5.0812095E-06   1.1078805E-04
      4     -209.2842096008  -5.6908574E-06   1.6379432E-05
      5     -209.2842096626  -6.1828615E-08   8.8059992E-06
------------------------------------------------------------

 total:                                   1.742 sec
 * total energy  :  -209.2842097 Eh     change       -0.4159333E-03 Eh
   gradient norm :     0.0024244 Eh/α   predicted     0.0000000E+00 (-100.00%)
   displ. norm   :     0.0681312 α      lambda       -0.5693896E-04
   maximum displ.:     0.0550818 α      in ANC's #3, #1, #8, ...

........................................................................
.............................. CYCLE   44 ..............................
........................................................................
------------------------------------------------------------
  cycle        total energy    energy error   density error
------------------------------------------------------------
      1     -209.2842645074  -2.1242725E+02   1.2785778E-04
      2     -209.2842645846  -7.7190293E-08   7.7311925E-05
      3     -209.2842635548   1.0297422E-06   5.5469596E-05
      4     -209.2842648725  -1.3176709E-06   6.6631892E-06
      5     -209.2842648882  -1.5677841E-08   2.4310319E-06
------------------------------------------------------------

 total:                                   1.304 sec
 * total energy  :  -209.2842649 Eh     change       -0.5522556E-04 Eh
   gradient norm :     0.0016557 Eh/α   predicted    -0.2912528E-04 ( -47.26%)
   displ. norm   :     0.2834851 α      lambda       -0.1452962E-03
   maximum displ.:     0.1981357 α      in ANC's #3, #1, #8, ...

........................................................................
.............................. CYCLE   45 ..............................
........................................................................
------------------------------------------------------------
  cycle        total energy    energy error   density error
------------------------------------------------------------
      1     -209.2844511486  -2.1242940E+02   5.2480738E-04
      2     -209.2844520044  -8.5584674E-07   3.0916683E-04
      3     -209.2844480776   3.9268436E-06   9.5666193E-05
      4     -209.2844523160  -4.2383726E-06   1.9420141E-05
      5     -209.2844524612  -1.4523445E-07   8.7332253E-06
------------------------------------------------------------

 total:                                   1.472 sec
 * total energy  :  -209.2844525 Eh     change       -0.1875730E-03 Eh
   gradient norm :     0.0020413 Eh/α   predicted    -0.7524477E-04 ( -59.89%)
   displ. norm   :     0.2850760 α      lambda       -0.1728726E-03
   maximum displ.:     0.1967897 α      in ANC's #3, #1, #8, ...

........................................................................
.............................. CYCLE   46 ..............................
........................................................................
------------------------------------------------------------
  cycle        total energy    energy error   density error
------------------------------------------------------------
      1     -209.2846072105  -2.1242902E+02   4.7461457E-04
      2     -209.2846079139  -7.0340835E-07   2.7999921E-04
      3     -209.2846068381   1.0757728E-06   5.8930982E-05
      4     -209.2846080556  -1.2174084E-06   1.3867636E-05
      5     -209.2846081098  -5.4220777E-08   7.0182921E-06
------------------------------------------------------------

 total:                                   2.184 sec
 * total energy  :  -209.2846081 Eh     change       -0.1556486E-03 Eh
   gradient norm :     0.0027339 Eh/α   predicted    -0.9346206E-04 ( -39.95%)
   displ. norm   :     0.3530714 α      lambda       -0.1860995E-03
   maximum displ.:     0.2428940 α      in ANC's #3, #1, #8, ...

........................................................................
.............................. CYCLE   47 ..............................
........................................................................
------------------------------------------------------------
  cycle        total energy    energy error   density error
------------------------------------------------------------
      1     -209.2847728388  -2.1242789E+02   5.4652688E-04
      2     -209.2847736287  -7.8990155E-07   3.2307333E-04
      3     -209.2847693114   4.3172696E-06   9.5954021E-05
      4     -209.2847739609  -4.6494155E-06   1.9202997E-05
      5     -209.2847741012  -1.4033185E-07   8.2847451E-06
------------------------------------------------------------

 total:                                   2.112 sec
 * total energy  :  -209.2847741 Eh     change       -0.1659914E-03 Eh
   gradient norm :     0.0032604 Eh/α   predicted    -0.1046500E-03 ( -36.95%)
   displ. norm   :     0.3456674 α      lambda       -0.1657849E-03
   maximum displ.:     0.2398970 α      in ANC's #3, #1, #8, ...

........................................................................
.............................. CYCLE   48 ..............................
........................................................................
------------------------------------------------------------
  cycle        total energy    energy error   density error
------------------------------------------------------------
      1     -209.2849250520  -2.1242692E+02   4.9533274E-04
      2     -209.2849258035  -7.5146033E-07   2.9252789E-04
      3     -209.2849227433   3.0601861E-06   9.2838958E-05
      4     -209.2849261461  -3.4027928E-06   1.6102453E-05
      5     -209.2849262250  -7.8921431E-08   8.0444973E-06
------------------------------------------------------------

 total:                                   1.800 sec
 * total energy  :  -209.2849262 Eh     change       -0.1521238E-03 Eh
   gradient norm :     0.0033361 Eh/α   predicted    -0.9280563E-04 ( -38.99%)
   displ. norm   :     0.3273648 α      lambda       -0.1584324E-03
   maximum displ.:     0.2287417 α      in ANC's #3, #1, #8, ...

........................................................................
.............................. CYCLE   49 ..............................
........................................................................
------------------------------------------------------------
  cycle        total energy    energy error   density error
------------------------------------------------------------
      1     -209.2850751358  -2.1242651E+02   4.3928380E-04
      2     -209.2850756903  -5.5455013E-07   2.5870414E-04
      3     -209.2850721346   3.5557332E-06   9.8313760E-05
      4     -209.2850760733  -3.9387479E-06   1.5702471E-05
      5     -209.2850761669  -9.3536414E-08   6.9067739E-06
------------------------------------------------------------

 total:                                   1.236 sec
 * total energy  :  -209.2850762 Eh     change       -0.1499418E-03 Eh
   gradient norm :     0.0029686 Eh/α   predicted    -0.8770873E-04 ( -41.50%)
   displ. norm   :     0.3499753 α      lambda       -0.1774852E-03
   maximum displ.:     0.2446102 α      in ANC's #3, #1, #8, ...

........................................................................
.............................. CYCLE   50 ..............................
........................................................................
------------------------------------------------------------
  cycle        total energy    energy error   density error
------------------------------------------------------------
      1     -209.2852432411  -2.1242638E+02   4.5191873E-04
      2     -209.2852437736  -5.3257321E-07   2.6602710E-04
      3     -209.2852384350   5.3386551E-06   1.2258267E-04
      4     -209.2852444176  -5.9826056E-06   1.6699956E-05
      5     -209.2852445220  -1.0446931E-07   6.8705555E-06
------------------------------------------------------------

 total:                                   2.023 sec
 * total energy  :  -209.2852445 Eh     change       -0.1683552E-03 Eh
   gradient norm :     0.0024059 Eh/α   predicted    -0.9961246E-04 ( -40.83%)
   displ. norm   :     0.4111437 α      lambda       -0.2121134E-03
   maximum displ.:     0.2863992 α      in ANC's #3, #1, #8, ...

........................................................................
.............................. CYCLE   51 ..............................
........................................................................
------------------------------------------------------------
  cycle        total energy    energy error   density error
------------------------------------------------------------
      1     -209.2854446478  -2.1242630E+02   5.1767104E-04
      2     -209.2854453079  -6.6003867E-07   3.0407693E-04
      3     -209.2854417452   3.5626883E-06   1.0690774E-04
      4     -209.2854457912  -4.0459783E-06   1.4184116E-05
      5     -209.2854458477  -5.6563124E-08   7.7316528E-06
------------------------------------------------------------

 total:                                   1.745 sec
 * total energy  :  -209.2854458 Eh     change       -0.2013257E-03 Eh
   gradient norm :     0.0019219 Eh/α   predicted    -0.1239861E-03 ( -38.42%)
   displ. norm   :     0.7153052 α      lambda       -0.2391719E-03
   maximum displ.:     0.4972419 α      in ANC's #3, #1, #8, ...

........................................................................
.............................. CYCLE   52 ..............................
........................................................................
------------------------------------------------------------
  cycle        total energy    energy error   density error
------------------------------------------------------------
      1     -209.2857681448  -2.1242592E+02   8.7894527E-04
      2     -209.2857697315  -1.5866451E-06   5.1672746E-04
      3     -209.2857623972   7.3342529E-06   1.5290848E-04
      4     -209.2857705989  -8.2016584E-06   2.4675402E-05
      5     -209.2857707706  -1.7174895E-07   1.3825503E-05
------------------------------------------------------------

 total:                                   1.715 sec
 * total energy  :  -209.2857708 Eh     change       -0.3249229E-03 Eh
   gradient norm :     0.0024943 Eh/α   predicted    -0.1467853E-03 ( -54.82%)
   displ. norm   :     0.4698659 α      lambda       -0.2132159E-03
   maximum displ.:     0.3277806 α      in ANC's #3, #1, #8, ...

........................................................................
.............................. CYCLE   53 ..............................
........................................................................
------------------------------------------------------------
  cycle        total energy    energy error   density error
------------------------------------------------------------
      1     -209.2859713784  -2.1242617E+02   5.5230755E-04
      2     -209.2859719509  -5.7248320E-07   3.2525181E-04
      3     -209.2859669340   5.0168222E-06   1.1280500E-04
      4     -209.2859724279  -5.4938201E-06   1.8110435E-05
      5     -209.2859725431  -1.1520999E-07   8.0910618E-06
------------------------------------------------------------

 total:                                   1.484 sec
 * total energy  :  -209.2859725 Eh     change       -0.2017724E-03 Eh
   gradient norm :     0.0030718 Eh/α   predicted    -0.1301492E-03 ( -35.50%)
   displ. norm   :     0.4973244 α      lambda       -0.2259130E-03
   maximum displ.:     0.3467715 α      in ANC's #3, #1, #8, ...

........................................................................
.............................. CYCLE   54 ..............................
........................................................................
------------------------------------------------------------
  cycle        total energy    energy error   density error
------------------------------------------------------------
      1     -209.2861872089  -2.1242686E+02   5.7049533E-04
      2     -209.2861877449  -5.3597876E-07   3.3707147E-04
      3     -209.2861842369   3.5079850E-06   9.3408490E-05
      4     -209.2861880995  -3.8625645E-06   1.4959976E-05
      5     -209.2861881622  -6.2677231E-08   7.8024478E-06
------------------------------------------------------------

 total:                                   1.875 sec
 * total energy  :  -209.2861882 Eh     change       -0.2156191E-03 Eh
   gradient norm :     0.0034664 Eh/α   predicted    -0.1408975E-03 ( -34.65%)
   displ. norm   :     0.5407763 α      lambda       -0.2485970E-03
   maximum displ.:     0.3773229 α      in ANC's #3, #1, #8, ...

........................................................................
.............................. CYCLE   55 ..............................
........................................................................
------------------------------------------------------------
  cycle        total energy    energy error   density error
------------------------------------------------------------
      1     -209.2864250230  -2.1242765E+02   6.1072037E-04
      2     -209.2864255974  -5.7440113E-07   3.6072125E-04
      3     -209.2864217180   3.8793597E-06   9.2668633E-05
      4     -209.2864259744  -4.2564342E-06   1.5417752E-05
      5     -209.2864260423  -6.7867575E-08   7.6716881E-06
------------------------------------------------------------

 total:                                   1.604 sec
 * total energy  :  -209.2864260 Eh     change       -0.2378801E-03 Eh
   gradient norm :     0.0035567 Eh/α   predicted    -0.1606507E-03 ( -32.47%)
   displ. norm   :     0.5930346 α      lambda       -0.2768594E-03
   maximum displ.:     0.4148342 α      in ANC's #3, #1, #2, ...

........................................................................
.............................. CYCLE   56 ..............................
........................................................................
------------------------------------------------------------
  cycle        total energy    energy error   density error
------------------------------------------------------------
      1     -209.2866904273  -2.1242839E+02   6.6340537E-04
      2     -209.2866910891  -6.6181548E-07   3.9266572E-04
      3     -209.2866868137   4.2754034E-06   9.6381577E-05
      4     -209.2866915329  -4.7191716E-06   1.5603568E-05
      5     -209.2866915949  -6.2020888E-08   7.9297509E-06
------------------------------------------------------------

 total:                                   1.616 sec
 * total energy  :  -209.2866916 Eh     change       -0.2655526E-03 Eh
   gradient norm :     0.0033112 Eh/α   predicted    -0.1871165E-03 ( -29.54%)
   displ. norm   :     0.6429697 α      lambda       -0.3025847E-03
   maximum displ.:     0.4516752 α      in ANC's #3, #1, #2, ...

........................................................................
.............................. CYCLE   57 ..............................
........................................................................
------------------------------------------------------------
  cycle        total energy    energy error   density error
------------------------------------------------------------
      1     -209.2869789506  -2.1242898E+02   7.1314321E-04
      2     -209.2869797339  -7.8322850E-07   4.2156005E-04
      3     -209.2869748374   4.8964423E-06   1.0422258E-04
      4     -209.2869802401  -5.4026524E-06   1.7264309E-05
      5     -209.2869803187  -7.8614562E-08   8.7774496E-06
------------------------------------------------------------

 total:                                   1.264 sec
 * total energy  :  -209.2869803 Eh     change       -0.2887238E-03 Eh
   gradient norm :     0.0027101 Eh/α   predicted    -0.2138417E-03 ( -25.94%)
   displ. norm   :     0.6856958 α      lambda       -0.3182089E-03
   maximum displ.:     0.4842083 α      in ANC's #3, #1, #2, ...

........................................................................
.............................. CYCLE   58 ..............................
........................................................................
------------------------------------------------------------
  cycle        total energy    energy error   density error
------------------------------------------------------------
      1     -209.2872806727  -2.1242930E+02   7.5285538E-04
      2     -209.2872815764  -9.0377057E-07   4.4557683E-04
      3     -209.2872757310   5.8454716E-06   1.1450965E-04
      4     -209.2872821564  -6.4254167E-06   1.9251901E-05
      5     -209.2872822609  -1.0446982E-07   9.7418101E-06
------------------------------------------------------------

 total:                                   2.216 sec
 * total energy  :  -209.2872823 Eh     change       -0.3019422E-03 Eh
   gradient norm :     0.0019082 Eh/α   predicted    -0.2339121E-03 ( -22.53%)
   displ. norm   :     1.0634442 α      lambda       -0.3155947E-03
   maximum displ.:     0.7548809 α      in ANC's #3, #1, #2, ...

........................................................................
.............................. CYCLE   59 ..............................
........................................................................
------------------------------------------------------------
  cycle        total energy    energy error   density error
------------------------------------------------------------
      1     -209.2877096566  -2.1242889E+02   1.1515284E-03
      2     -209.2877118157  -2.1590941E-06   6.8042385E-04
      3     -209.2877030112   8.8045236E-06   1.4561185E-04
      4     -209.2877128239  -9.8126750E-06   2.7219439E-05
      5     -209.2877130013  -1.7738577E-07   1.4477658E-05
------------------------------------------------------------

 total:                                   1.924 sec
 * total energy  :  -209.2877130 Eh     change       -0.4307404E-03 Eh
   gradient norm :     0.0017083 Eh/α   predicted    -0.2371113E-03 ( -44.95%)
   displ. norm   :     1.0139842 α      lambda       -0.2688571E-03
   maximum displ.:     0.7235221 α      in ANC's #3, #1, #2, ...

........................................................................
.............................. CYCLE   60 ..............................
........................................................................
------------------------------------------------------------
  cycle        total energy    energy error   density error
------------------------------------------------------------
      1     -209.2880781874  -2.1242876E+02   1.0801341E-03
      2     -209.2880797876  -1.6002183E-06   6.3829872E-04
      3     -209.2880682342   1.1553464E-05   1.6191410E-04
      4     -209.2880807983  -1.2564093E-05   2.8446399E-05
      5     -209.2880810523  -2.5400175E-07   1.3696178E-05
------------------------------------------------------------

 total:                                   2.032 sec
 * total energy  :  -209.2880811 Eh     change       -0.3680510E-03 Eh
   gradient norm :     0.0024445 Eh/α   predicted    -0.1958637E-03 ( -46.78%)
   displ. norm   :     0.6586484 α      lambda       -0.2398477E-03
   maximum displ.:     0.4712855 α      in ANC's #3, #1, #2, ...

........................................................................
.............................. CYCLE   61 ..............................
........................................................................
------------------------------------------------------------
  cycle        total energy    energy error   density error
------------------------------------------------------------
      1     -209.2883070363  -2.1242876E+02   6.9834492E-04
      2     -209.2883077216  -6.8536866E-07   4.1247442E-04
      3     -209.2883030310   4.6906423E-06   1.0166355E-04
      4     -209.2883081800  -5.1489614E-06   1.7711472E-05
      5     -209.2883082737  -9.3759411E-08   8.6220242E-06
------------------------------------------------------------

 total:                                   2.005 sec
 * total energy  :  -209.2883083 Eh     change       -0.2272214E-03 Eh
   gradient norm :     0.0027952 Eh/α   predicted    -0.1719495E-03 ( -24.33%)
   displ. norm   :     0.7050696 α      lambda       -0.2592009E-03
   maximum displ.:     0.5060422 α      in ANC's #3, #1, #2, ...

........................................................................
.............................. CYCLE   62 ..............................
........................................................................
------------------------------------------------------------
  cycle        total energy    energy error   density error
------------------------------------------------------------
      1     -209.2885522137  -2.1242964E+02   7.6075595E-04
      2     -209.2885527834  -5.6972937E-07   4.4866445E-04
      3     -209.2885469212   5.8622055E-06   1.1501910E-04
      4     -209.2885533279  -6.4067272E-06   1.6933101E-05
      5     -209.2885534073  -7.9372967E-08   8.6911890E-06
------------------------------------------------------------

 total:                                   1.803 sec
 * total energy  :  -209.2885534 Eh     change       -0.2451336E-03 Eh
   gradient norm :     0.0027060 Eh/α   predicted    -0.1940293E-03 ( -20.85%)
   displ. norm   :     0.7681621 α      lambda       -0.2752442E-03
   maximum displ.:     0.5506850 α      in ANC's #3, #1, #2, ...

[...]
M  CHG  1 165  -1
M  END

 Bond Distances (Angstroems)
 ---------------------------
C1-C2=1.3956         C1-C6=1.3836         C1-H131=1.0780       C2-C1=1.3956         C2-C3=1.4207         C2-O22=1.3392        
C3-C2=1.4207         C3-C4=1.4213         C3-C7=1.4350         C4-C3=1.4213         C4-C5=1.3859         C4-C10=1.4637        
C5-C4=1.3859         C5-C6=1.3889         C5-H130=1.0799       C6-C1=1.3836         C6-C5=1.3889         C6-C52=1.5187        
C7-C3=1.4350         C7-C8=1.4369         C7-C11=1.4456        C8-C7=1.4369         C8-C9=1.4110         C8-C14=1.4080        
C9-C8=1.4110         C9-C10=1.4614        C9-C17=1.3876        C10-C4=1.4637        C10-C9=1.4614        C10-O50=1.2284       
C11-C7=1.4456        C11-C12=1.4216       C11-C18=1.4250       C12-C11=1.4216       C12-C13=1.4649       C12-C21=1.3857       
C13-C12=1.4649       C13-C14=1.4612       C13-O51=1.2278       C14-C8=1.4080        C14-C13=1.4612       C14-C15=1.3899       
C14-H252=1.2067      C15-C14=1.3899       C15-C16=1.3868       C15-H133=1.0788      C15-C202=1.6049      C15-H252=0.6741      
C16-C15=1.3868       C16-C17=1.3897       C16-C60=1.5189       C16-C202=1.6480      C17-C9=1.3876        C17-C16=1.3897       
C17-H132=1.0806      C18-C11=1.4250       C18-C19=1.3999       C18-O23=1.3417       C19-C18=1.3999       C19-C20=1.3836       
C19-H135=1.0775      C20-C19=1.3836       C20-C21=1.3866       C20-C56=1.5180       C21-C12=1.3857       C21-C20=1.3866       
C21-H134=1.0799      O22-C2=1.3392        O22-B24=1.4790       O23-C18=1.3417       O23-B24=1.4623       B24-O22=1.4790       
B24-O23=1.4623       B24-O45=1.4802       B24-O46=1.4450       C25-C26=1.3998       C25-C30=1.3846       C25-H138=1.0789      
C26-C25=1.3998       C26-C27=1.4243       C26-O46=1.3286       C27-C26=1.4243       C27-C28=1.4234       C27-C31=1.4510       
C28-C27=1.4234       C28-C29=1.3907       C28-C47=1.4634       C29-C28=1.3907       C29-C30=1.3842       C29-H139=1.0782      
C30-C25=1.3846       C30-C29=1.3842       C30-C64=1.5185       C31-C27=1.4510       C31-C32=1.4360       C31-C34=1.4289       
C32-C31=1.4360       C32-C33=1.4082       C32-C37=1.4125       C33-C32=1.4082       C33-C40=1.3899       C33-C47=1.4611       
C34-C31=1.4289       C34-C35=1.4257       C34-C41=1.4318       C35-C34=1.4257       C35-C36=1.4632       C35-C44=1.3876       
C36-C35=1.4632       C36-C37=1.4582       C36-O48=1.2287       C37-C32=1.4125       C37-C36=1.4582       C37-C38=1.3878       
C37-C216=1.5734      C37-H225=0.8447      C38-C37=1.3878       C38-C39=1.3901       C38-H140=1.0805      C38-C216=1.2844      
C38-H223=1.3604      C38-H225=0.9471      C39-C38=1.3901       C39-C40=1.3874       C39-C72=1.5184       C40-C33=1.3899       
C40-C39=1.3874       C40-H141=1.0787      C41-C34=1.4318       C41-C42=1.3961       C41-O45=1.3206       C42-C41=1.3961       
C42-C43=1.3869       C42-H136=1.0791      C43-C42=1.3869       C43-C44=1.3901       C43-C68=1.5185       C43-C176=1.8940      
C43-C177=1.2374      C43-O189=1.6610      C44-C35=1.3876       C44-C43=1.3901       C44-H137=1.0778      C44-C177=1.8213      
C44-O189=1.7224      O45-B24=1.4802       O45-C41=1.3206       O46-B24=1.4450       O46-C26=1.3286       C47-C28=1.4634       
C47-C33=1.4611       C47-O49=1.2289       O48-C36=1.2287       O49-C47=1.2289       O50-C10=1.2284       O51-C13=1.2278       
C52-C6=1.5187        C52-C53=1.5304       C52-C54=1.5353       C52-C55=1.5355       C53-C52=1.5304       C53-H121=1.0892      
C53-H122=1.0874      C53-H123=1.0868      C53-C195=1.7571      C53-H270=1.2103      C54-C52=1.5353       C54-H127=1.0889      
C54-H128=1.0876      C54-H129=1.0860      C55-C52=1.5355       C55-H124=1.0890      C55-H125=1.0866      C55-H126=1.0882      
C56-C20=1.5180       C56-C57=1.5352       C56-C58=1.5357       C56-C59=1.5273       C57-C56=1.5352       C57-H97=1.0887       
C57-H98=1.0865       C57-H99=1.0877       C58-C56=1.5357       C58-H94=1.0890       C58-H95=1.0882       C58-H96=1.0867       
C58-C198=1.7343      C58-H240=1.2989      C59-C56=1.5273       C59-H100=1.0894      C59-H101=1.0869      C59-H102=1.0857      
C60-C16=1.5189       C60-C61=1.5351       C60-C62=1.5306       C60-C63=1.5351       C61-C60=1.5351       C61-H109=1.0888      
C61-H110=1.0863      C61-H111=1.0881      C62-C60=1.5306       C62-H106=1.0890      C62-H107=1.0875      C62-H108=1.0873      
C63-C60=1.5351       C63-H103=1.0888      C63-H104=1.0881      C63-H105=1.0863      C64-C30=1.5185       C64-C65=1.5337       
C64-C66=1.5350       C64-C67=1.5311       C65-C64=1.5337       C65-H112=1.0888      C65-H113=1.0879      C65-H114=1.0853      
C66-C64=1.5350       C66-H115=1.0889      C66-H116=1.0861      C66-H117=1.0879      C66-H254=1.0728      C67-C64=1.5311       
C67-H118=1.0890      C67-H119=1.0873      C67-H120=1.0870      C68-C43=1.5185       C68-C69=1.5358       C68-C70=1.5309       
C68-C71=1.5346       C68-C176=1.5592      C68-C177=1.6038      C68-C185=1.6775      C68-O189=1.5639      C69-C68=1.5358       
C69-H91=1.0889       C69-H92=1.0882       C69-H93=1.0864       C69-C176=0.8705      C69-C177=1.9234      C69-C184=1.8379      
C69-C185=0.5867      C69-H278=1.3306      C70-C68=1.5309       C70-H85=1.0890       C70-H86=1.0870       C70-H87=1.0873       
C70-O189=1.3288      C71-C68=1.5346       C71-H88=1.0889       C71-H89=1.0861       C71-H90=1.0873       C71-C200=1.2268      
C71-H242=1.0682      C71-H243=1.1064      C72-C39=1.5184       C72-C73=1.5350       C72-C74=1.5308       C72-C75=1.5350       
C73-C72=1.5350       C73-H79=1.0887       C73-H80=1.0882       C73-H81=1.0864       C74-C72=1.5308       C74-H76=1.0889       
C74-H77=1.0874       C74-H78=1.0873       C75-C72=1.5350       C75-H82=1.0888       C75-H83=1.0862       C75-H84=1.0880       
H76-C74=1.0889       H77-C74=1.0874       H78-C74=1.0873       H79-C73=1.0887       H80-C73=1.0882       H81-C73=1.0864       
H82-C75=1.0888       H83-C75=1.0862       H84-C75=1.0880       H85-C70=1.0890       H86-C70=1.0870       H87-C70=1.0873       
H87-O189=1.1629      H88-C71=1.0889       H88-C200=1.1317      H88-H243=0.4274      H89-C71=1.0861       H89-H276=0.7562      
H90-C71=1.0873       H90-C200=0.9984      H90-H242=0.5832      H91-C69=1.0889       H91-C184=1.3126      H91-C185=0.6359      
H92-C69=1.0882       H92-C176=1.2543      H93-C69=1.0864       H93-C175=1.2596      H93-C176=0.9841      H93-C185=1.2811      
H94-C58=1.0890       H95-C58=1.0882       H96-C58=1.0867       H97-C57=1.0887       H98-C57=1.0865       H99-C57=1.0877       
H100-C59=1.0894      H101-C59=1.0869      H102-C59=1.0857      H103-C63=1.0888      H104-C63=1.0881      H105-C63=1.0863      
H106-C62=1.0890      H107-C62=1.0875      H108-C62=1.0873      H109-C61=1.0888      H110-C61=1.0863      H111-C61=1.0881      
H112-C65=1.0888      H113-C65=1.0879      H114-C65=1.0853      H115-C66=1.0889      H115-H254=0.4010     H116-C66=1.0861      
H117-C66=1.0879      H118-C67=1.0890      H119-C67=1.0873      H120-C67=1.0870      H121-C53=1.0892      H121-C195=1.3652     
H122-C53=1.0874      H123-C53=1.0868      H124-C55=1.0890      H125-C55=1.0866      H126-C55=1.0882      H127-C54=1.0889      
H128-C54=1.0876      H129-C54=1.0860      H130-C5=1.0799       H131-C1=1.0780       H132-C17=1.0806      H133-C15=1.0788      
H134-C21=1.0799      H135-C19=1.0775      H136-C42=1.0791      H137-C44=1.0778      H138-C25=1.0789      H139-C29=1.0782      
H140-C38=1.0805      H141-C40=1.0787      C142-C143=1.3956     C142-C147=1.3836     C142-H272=1.0780     C143-C142=1.3956     
C143-C144=1.4207     C143-O163=1.3392     C144-C143=1.4207     C144-C145=1.4213     C144-C148=1.4350     C145-C144=1.4213     
C145-C146=1.3859     C145-C151=1.4637     C146-C145=1.3859     C146-C147=1.3889     C146-H271=1.0799     C147-C142=1.3836     
C147-C146=1.3889     C147-C193=1.5187     C148-C144=1.4350     C148-C149=1.4369     C148-C152=1.4456     C149-C148=1.4369     
C149-C150=1.4110     C149-C155=1.4080     C150-C149=1.4110     C150-C151=1.4614     C150-C158=1.3876     C151-C145=1.4637     
C151-C150=1.4614     C151-O191=1.2284     C152-C148=1.4456     C152-C153=1.4216     C152-C159=1.4250     C153-C152=1.4216     
C153-C154=1.4649     C153-C162=1.3857     C154-C153=1.4649     C154-C155=1.4612     C154-O192=1.2278     C155-C149=1.4080     
C155-C154=1.4612     C155-C156=1.3899     C156-C155=1.3899     C156-C157=1.3868     C156-H274=1.0788     C157-C156=1.3868     
C157-C158=1.3897     C157-C201=1.5189     C158-C150=1.3876     C158-C157=1.3897     C158-H273=1.0806     C159-C152=1.4250     
C159-C160=1.3999     C159-O164=1.3417     C160-C159=1.3999     C160-C161=1.3836     C160-H276=1.0775     C161-C160=1.3836     
C161-C162=1.3866     C161-C197=1.5180     C162-C153=1.3857     C162-C161=1.3866     C162-H275=1.0799     O163-C143=1.3392     
O163-B165=1.4790     O164-C159=1.3417     O164-B165=1.4623     B165-O163=1.4790     B165-O164=1.4623     B165-O186=1.4802     
B165-O187=1.4450     C166-C167=1.3998     C166-C171=1.3846     C166-H279=1.0789     C167-C166=1.3998     C167-C168=1.4243     
C167-O187=1.3286     C168-C167=1.4243     C168-C169=1.4234     C168-C172=1.4510     C169-C168=1.4234     C169-C170=1.3907     
C169-C188=1.4634     C170-C169=1.3907     C170-C171=1.3842     C170-H280=1.0782     C171-C166=1.3846     C171-C170=1.3842     
C171-C205=1.5185     C172-C168=1.4510     C172-C173=1.4360     C172-C175=1.4289     C173-C172=1.4360     C173-C174=1.4082     
C173-C178=1.4125     C174-C173=1.4082     C174-C181=1.3899     C174-C188=1.4611     C175-H93=1.2596      C175-C172=1.4289     
C175-C176=1.4257     C175-C182=1.4318     C176-C43=1.8940      C176-C68=1.5592      C176-C69=0.8705      C176-H92=1.2543      
C176-H93=0.9841      C176-C175=1.4257     C176-C177=1.4632     C176-C185=1.3876     C177-C43=1.2374      C177-C44=1.8213      
C177-C68=1.6038      C177-C69=1.9234      C177-C176=1.4632     C177-C178=1.4582     C177-O189=1.2287     C178-C173=1.4125     
C178-C177=1.4582     C178-C179=1.3878     C179-C178=1.3878     C179-C180=1.3901     C179-H281=1.0805     C180-C179=1.3901     
C180-C181=1.3874     C180-C213=1.5184     C181-C174=1.3899     C181-C180=1.3874     C181-H282=1.0787     C182-C175=1.4318     
C182-C183=1.3961     C182-O186=1.3206     C183-C182=1.3961     C183-C184=1.3869     C183-H277=1.0791     C184-C69=1.8379      
C184-H91=1.3126      C184-C183=1.3869     C184-C185=1.3901     C184-C209=1.5185     C185-C68=1.6775      C185-C69=0.5867      
C185-H91=0.6359      C185-H93=1.2811      C185-C176=1.3876     C185-C184=1.3901     C185-H278=1.0778     O186-B165=1.4802     
O186-C182=1.3206     O187-B165=1.4450     O187-C167=1.3286     C188-C169=1.4634     C188-C174=1.4611     C188-O190=1.2289     
O189-C43=1.6610      O189-C44=1.7224      O189-C68=1.5639      O189-C70=1.3288      O189-H87=1.1629      O189-C177=1.2287     
O190-C188=1.2289     O191-C151=1.2284     O192-C154=1.2278     C193-C147=1.5187     C193-C194=1.5304     C193-C195=1.5353     
C193-C196=1.5355     C194-C193=1.5304     C194-H262=1.0892     C194-H263=1.0874     C194-H264=1.0868     C195-C53=1.7571      
C195-H121=1.3652     C195-C193=1.5353     C195-H268=1.0889     C195-H269=1.0876     C195-H270=1.0860     C196-C193=1.5355     
C196-H265=1.0890     C196-H266=1.0866     C196-H267=1.0882     C197-C161=1.5180     C197-C198=1.5352     C197-C199=1.5357     
C197-C200=1.5273     C198-C58=1.7343      C198-C197=1.5352     C198-H238=1.0887     C198-H239=1.0865     C198-H240=1.0877     
C199-C197=1.5357     C199-H235=1.0890     C199-H236=1.0882     C199-H237=1.0867     C200-C71=1.2268      C200-H88=1.1317      
C200-H90=0.9984      C200-C197=1.5273     C200-H241=1.0894     C200-H242=1.0869     C200-H243=1.0857     C201-C157=1.5189     
C201-C202=1.5351     C201-C203=1.5306     C201-C204=1.5351     C202-C15=1.6049      C202-C16=1.6480      C202-C201=1.5351     
C202-H250=1.0888     C202-H251=1.0863     C202-H252=1.0881     C203-C201=1.5306     C203-H247=1.0890     C203-H248=1.0875     
C203-H249=1.0873     C204-C201=1.5351     C204-H244=1.0888     C204-H245=1.0881     C204-H246=1.0863     C205-C171=1.5185     
C205-C206=1.5337     C205-C207=1.5350     C205-C208=1.5311     C206-C205=1.5337     C206-H253=1.0888     C206-H254=1.0879     
C206-H255=1.0853     C207-C205=1.5350     C207-H256=1.0889     C207-H257=1.0861     C207-H258=1.0879     C208-C205=1.5311     
C208-H259=1.0890     C208-H260=1.0873     C208-H261=1.0870     C209-C184=1.5185     C209-C210=1.5358     C209-C211=1.5309     
C209-C212=1.5346     C210-C209=1.5358     C210-H232=1.0889     C210-H233=1.0882     C210-H234=1.0864     C211-C209=1.5309     
C211-H226=1.0890     C211-H227=1.0870     C211-H228=1.0873     C212-C209=1.5346     C212-H229=1.0889     C212-H230=1.0861     
C212-H231=1.0873     C213-C180=1.5184     C213-C214=1.5350     C213-C215=1.5308     C213-C216=1.5350     C214-C213=1.5350     
C214-H220=1.0887     C214-H221=1.0882     C214-H222=1.0864     C215-C213=1.5308     C215-H217=1.0889     C215-H218=1.0874     
C215-H219=1.0873     C216-C37=1.5734      C216-C38=1.2844      C216-C213=1.5350     C216-H223=1.0888     C216-H224=1.0862     
C216-H225=1.0880     H217-C215=1.0889     H218-C215=1.0874     H219-C215=1.0873     H220-C214=1.0887     H221-C214=1.0882     
H222-C214=1.0864     H223-C38=1.3604      H223-C216=1.0888     H224-C216=1.0862     H225-C37=0.8447      H225-C38=0.9471      
H225-C216=1.0880     H226-C211=1.0890     H227-C211=1.0870     H228-C211=1.0873     H229-C212=1.0889     H230-C212=1.0861     
H231-C212=1.0873     H232-C210=1.0889     H233-C210=1.0882     H234-C210=1.0864     H235-C199=1.0890     H236-C199=1.0882     
H237-C199=1.0867     H238-C198=1.0887     H239-C198=1.0865     H240-C58=1.2989      H240-C198=1.0877     H241-C200=1.0894     
H242-C71=1.0682      H242-H90=0.5832      H242-C200=1.0869     H243-C71=1.1064      H243-H88=0.4274      H243-C200=1.0857     
H244-C204=1.0888     H245-C204=1.0881     H246-C204=1.0863     H247-C203=1.0890     H248-C203=1.0875     H249-C203=1.0873     
H250-C202=1.0888     H251-C202=1.0863     H252-C14=1.2067      H252-C15=0.6741      H252-C202=1.0881     H253-C206=1.0888     
H254-C66=1.0728      H254-H115=0.4010     H254-C206=1.0879     H255-C206=1.0853     H256-C207=1.0889     H257-C207=1.0861     
H258-C207=1.0879     H259-C208=1.0890     H260-C208=1.0873     H261-C208=1.0870     H262-C194=1.0892     H263-C194=1.0874     
H264-C194=1.0868     H265-C196=1.0890     H266-C196=1.0866     H267-C196=1.0882     H268-C195=1.0889     H269-C195=1.0876     
H270-C53=1.2103      H270-C195=1.0860     H271-C146=1.0799     H272-C142=1.0780     H273-C158=1.0806     H274-C156=1.0788     
H275-C162=1.0799     H276-H89=0.7562      H276-C160=1.0775     H277-C183=1.0791     H278-C69=1.3306      H278-C185=1.0778     
H279-C166=1.0789     H280-C170=1.0782     H281-C179=1.0805     H282-C181=1.0787     
 H  H  Rav=0.5419 sigma=0.1420  Rmin=0.4010  Rmax=0.7562     4
 C  H  Rav=1.0902 sigma=0.0772  Rmin=0.6359  Rmax=1.3652   152
 C  C  Rav=1.4586 sigma=0.1292  Rmin=0.5867  Rmax=1.9234   165
 O  H  Rav=1.1629 sigma=0.0000  Rmin=1.1629  Rmax=1.1629     1
 O  B  Rav=1.4666 sigma=0.0144  Rmin=1.4450  Rmax=1.4802     8
 O  C  Rav=1.3382 sigma=0.1414  Rmin=1.2278  Rmax=1.7224    20

 selected bond angles (degree)
 --------------------
C6-C1-C2=123.00                H131-C1-C2=114.90              H131-C1-C6=122.05              C3-C2-C1=121.06                
O22-C2-C1=116.53               O22-C2-C3=122.42               C4-C3-C2=114.87                C7-C3-C2=124.62                
C7-C3-C4=120.15                C5-C4-C3=122.28                C10-C4-C3=121.87               C10-C4-C5=115.84               
C6-C5-C4=122.14                H130-C5-C4=116.28              H130-C5-C6=121.57              C5-C6-C1=116.38                
C52-C6-C1=123.86               C52-C6-C5=119.75               C8-C7-C3=115.42                C11-C7-C3=128.54               
C11-C7-C8=115.93               C9-C8-C7=122.09                C14-C8-C7=122.32               C14-C8-C9=115.59               
C10-C9-C8=120.40               C17-C9-C8=121.29               C17-C9-C10=118.24              C9-C10-C4=113.79               
O50-C10-C4=123.20              O50-C10-C9=122.78              

 selected dihedral angles (degree)
 ---------------------------------
C3-C2-C1-C6=  4.73            C3-C2-C1-H131=182.33          O22-C2-C1-C6=185.12           O22-C2-C1-H131=  2.72         
C4-C3-C2-C1=354.62            C4-C3-C2-O22=174.21           C7-C3-C2-C1=167.80            C7-C3-C2-O22=347.38           
C5-C4-C3-C2=  1.85            C5-C4-C3-C7=188.35            C10-C4-C3-C2=180.24           C10-C4-C3-C7=  6.73           
Note: The following floating-point exceptions are signalling: IEEE_INVALID_FLAG IEEE_UNDERFLOW_FLAG
ERROR STOP 

Error termination. Backtrace:
#0  0x1035afcf7
#1  0x1035b0b07
#2  0x1035b1f17
#3  0x1024a3d43
#4  0x10239fe8b
#5  0x102655c57
abnormal termination of xtb
C6-C5-C4-C3=  2.68            C6-C5-C4-C10=184.20           H130-C5-C4-C3=181.26          H130-C5-C4-C10=  2.78         
C5-C6-C1-C2=359.91            C5-C6-C1-H131=182.48          C52-C6-C1-C2=179.33           C52-C6-C1-H131=  1.90         
C1-C6-C5-C4=356.44            C1-C6-C5-H130=177.93          C52-C6-C5-C4=176.99           C52-C6-C5-H130=358.48         
C8-C7-C3-C2=203.03            C8-C7-C3-C4= 15.86            C11-C7-C3-C2= 18.94           C11-C7-C3-C4=191.78           
C9-C8-C7-C3=336.84            C9-C8-C7-C11=160.39           C14-C8-C7-C3=155.95           C14-C8-C7-C11=339.50          
C10-C9-C8-C7=  7.41           C10-C9-C8-C14=188.25          C17-C9-C8-C7=184.29           C17-C9-C8-C14=  5.12          
C9-C10-C4-C3=337.99           C9-C10-C4-C5=156.48           O50-C10-C4-C3=163.35          O50-C10-C4-C5=341.84          
C4-C10-C9-C8= 14.89           C4-C10-C9-C17=197.92          O50-C10-C9-C8=189.56          O50-C10-C9-C17= 12.59         

 CMA Distance (Angstroems)
 ---------------------------
R(CMA):  7.0031
           -------------------------------------------------
          |                Final Singlepoint                |
           -------------------------------------------------
         :::::::::::::::::::::::::::::::::::::::::::::::::::::
         ::                     SUMMARY                     ::
         :::::::::::::::::::::::::::::::::::::::::::::::::::::
         :: total energy             -42.157187088154 Eh    ::
         :: gradient norm              8.295173429429 Eh/a0 ::
         ::.................................................::
         :: bond energy              -55.639428957277 Eh    ::
         :: angle energy               0.080811052455 Eh    ::
         :: torsion energy             0.171004585741 Eh    ::
         :: repulsion energy          17.049994673033 Eh    ::
         :: electrostat energy        -3.249824944270 Eh    ::
         :: dispersion energy         -0.522037598916 Eh    ::
         :: HB energy                 -0.007816906539 Eh    ::
         :: XB energy                  0.000000000000 Eh    ::
         :: bonded atm energy         -0.039888992381 Eh    ::
         :: external energy            0.000000000000 Eh    ::
         :: add. restraining           0.000000000000 Eh    ::
         :: total charge              -2.000000000000 e     ::
         :::::::::::::::::::::::::::::::::::::::::::::::::::::


last geometry written to: xtblast.mol

########################################################################
[ERROR] Program stopped due to fatal error
-6- Geometry optimization failed
-5- xtb_geoopt: Trying to recover from failed geometry optimization
-4- xtb_geoopt: Geometry optimization did not converge
-3- optimizer_ancopt: Could not relax/optimize structure
-2- optimizer_relax: |grad| > 500, something is totally wrong!
-1- gfnff_setup: Could not read topology file.
########################################################################
Optimizing stacked_dimer.mol using GFNFF
