282
 energy: -42.157187088154 gnorm: 8.295173429429 xtb: 6.7.1 (edcfbbe)
C           -2.12210000000000       -3.04340000000000        1.69290000000000
C           -2.21170000000000       -1.72950000000000        1.23110000000000
C           -2.90880000000000       -1.41980000000000        0.03250000000000
C           -3.38340000000000       -2.54710000000000       -0.69140000000000
C           -3.21100000000000       -3.84480000000000       -0.23660000000000
C           -2.61070000000000       -4.12630000000000        0.98380000000000
C           -3.26470000000000       -0.09360000000000       -0.38420000000000
C           -4.36720000000000       -0.01050000000000       -1.30190000000000
C           -4.74280000000000       -1.09510000000000       -2.12250000000000
C           -4.11690000000000       -2.40440000000000       -1.95000000000000
C           -2.71400000000000        1.16770000000000        0.05810000000000
C           -3.54940000000000        2.31700000000000        0.01220000000000
C           -4.90180000000000        2.28900000000000       -0.55000000000000
C           -5.15480000000000        1.14960000000000       -1.42910000000000
C           -6.19760000000000        1.23370000000000       -2.34410000000000
C           -6.49940000000000        0.19390000000000       -3.21070000000000
C           -5.75330000000000       -0.96950000000000       -3.06510000000000
C           -1.36330000000000        1.42420000000000        0.43290000000000
C           -0.94840000000000        2.72120000000000        0.75770000000000
C           -1.79660000000000        3.81430000000000        0.76630000000000
C           -3.11160000000000        3.57380000000000        0.39800000000000
O           -1.60320000000000       -0.79300000000000        1.97010000000000
O           -0.39090000000000        0.50080000000000        0.38940000000000
B           -0.25000000000000       -0.48950000000000        1.45600000000000
C            1.80070000000000       -3.39220000000000        1.41370000000000
C            1.62170000000000       -2.05120000000000        1.05430000000000
C            2.74720000000000       -1.24900000000000        0.71020000000000
C            3.92200000000000       -2.00390000000000        0.43430000000000
C            4.06260000000000       -3.33670000000000        0.80560000000000
C            3.02080000000000       -4.04580000000000        1.37820000000000
C            2.82620000000000        0.19300000000000        0.56990000000000
C            3.79060000000000        0.67360000000000       -0.37930000000000
C            4.75400000000000       -0.16300000000000       -0.97520000000000
C            2.25430000000000        1.17970000000000        1.43080000000000
C            2.68610000000000        2.53430000000000        1.32510000000000
C            3.21950000000000        3.04880000000000        0.06350000000000
C            3.84640000000000        2.02980000000000       -0.77010000000000
C            4.62840000000000        2.43650000000000       -1.84210000000000
C            5.46410000000000        1.56300000000000       -2.52840000000000
C            5.55950000000000        0.27580000000000       -2.01950000000000
C            1.38850000000000        0.95200000000000        2.54820000000000
C            1.40460000000000        1.83170000000000        3.63220000000000
C            2.06800000000000        3.04940000000000        3.61050000000000
C            2.61280000000000        3.42370000000000        2.38760000000000
O            0.53710000000000       -0.05410000000000        2.63150000000000
O            0.34620000000000       -1.69860000000000        0.93580000000000
C            5.01500000000000       -1.47170000000000       -0.38030000000000
O            3.20940000000000        4.24420000000000       -0.22050000000000
O            6.05540000000000       -2.08960000000000       -0.59470000000000
O           -4.28070000000000       -3.32930000000000       -2.74160000000000
O           -5.72340000000000        3.18490000000000       -0.37720000000000
C           -2.51090000000000       -5.56480000000000        1.46060000000000
C           -1.74730000000000       -5.69420000000000        2.78060000000000
C           -1.78700000000000       -6.39520000000000        0.39130000000000
C           -3.93060000000000       -6.11230000000000        1.66660000000000
C           -1.36870000000000        5.22720000000000        1.11970000000000
C           -1.65620000000000        6.15190000000000       -0.07160000000000
C           -2.17810000000000        5.68650000000000        2.34130000000000
C            0.11800000000000        5.32570000000000        1.45550000000000
C           -7.59460000000000        0.26590000000000       -4.26070000000000
C           -6.97380000000000        0.01680000000000       -5.64240000000000
C           -8.29250000000000        1.62800000000000       -4.28270000000000
C           -8.64410000000000       -0.81380000000000       -3.96200000000000
C            3.15500000000000       -5.46910000000000        1.89000000000000
C            2.26000000000000       -6.39690000000000        1.05910000000000
C            2.71630000000000       -5.50570000000000        3.36050000000000
C            4.59600000000000       -5.97950000000000        1.80480000000000
C            2.12680000000000        3.91280000000000        4.85830000000000
C            2.85460000000000        3.11560000000000        5.95080000000000
C            2.88790000000000        5.22000000000000        4.62220000000000
C            0.70980000000000        4.25770000000000        5.33610000000000
C            6.26820000000000        2.05740000000000       -3.71780000000000
C            7.23190000000000        3.15620000000000       -3.24850000000000
C            7.08450000000000        0.94000000000000       -4.37240000000000
C            5.30180000000000        2.62770000000000       -4.76520000000000
H            7.60210000000000        1.33000000000000       -5.24750000000000
H            6.43870000000000        0.12630000000000       -4.69380000000000
H            7.83130000000000        0.54770000000000       -3.68640000000000
H            7.82560000000000        3.51950000000000       -4.08570000000000
H            7.90610000000000        2.76430000000000       -2.48950000000000
H            6.69020000000000        3.99570000000000       -2.82180000000000
H            5.85420000000000        2.98770000000000       -5.63160000000000
H            4.72500000000000        3.45380000000000       -4.35950000000000
H            4.60740000000000        1.85700000000000       -5.09330000000000
H            2.93510000000000        5.78820000000000        5.55000000000000
H            2.38780000000000        5.83170000000000        3.87570000000000
H            3.90490000000000        5.02250000000000        4.29220000000000
H            0.75740000000000        4.84160000000000        6.25400000000000
H            0.12950000000000        3.36050000000000        5.53090000000000
H            0.18870000000000        4.84450000000000        4.58360000000000
H            2.92690000000000        3.70390000000000        6.86420000000000
H            3.86020000000000        2.86030000000000        5.62250000000000
H            2.32610000000000        2.19330000000000        6.17510000000000
H           -1.88280000000000        6.69310000000000        2.63360000000000
H           -2.00200000000000        5.01490000000000        3.17920000000000
H           -3.24360000000000        5.68940000000000        2.12790000000000
H           -1.34690000000000        7.16910000000000        0.16260000000000
H           -2.71360000000000        6.16390000000000       -0.32110000000000
H           -1.10100000000000        5.81500000000000       -0.94420000000000
H            0.36590000000000        6.35260000000000        1.72150000000000
H            0.73750000000000        5.04010000000000        0.60930000000000
H            0.36250000000000        4.68380000000000        2.29630000000000
H           -9.44340000000000       -0.77710000000000       -4.70040000000000
H           -9.07570000000000       -0.65420000000000       -2.97600000000000
H           -8.20260000000000       -1.80610000000000       -3.98360000000000
H           -9.05410000000000        1.63580000000000       -5.06100000000000
H           -7.58310000000000        2.42450000000000       -4.49470000000000
H           -8.77880000000000        1.83250000000000       -3.33190000000000
H           -7.73970000000000        0.06680000000000       -6.41460000000000
H           -6.50180000000000       -0.96040000000000       -5.69040000000000
H           -6.21820000000000        0.77030000000000       -5.85500000000000
H            2.37010000000000       -7.42730000000000        1.39330000000000
H            2.53460000000000       -6.34160000000000        0.00790000000000
H            1.21570000000000       -6.11680000000000        1.15360000000000
H            2.78500000000000       -6.52000000000000        3.75050000000000
H            1.69180000000000       -5.16330000000000        3.47310000000000
H            3.35630000000000       -4.85990000000000        3.95790000000000
H            4.65650000000000       -6.97820000000000        2.23480000000000
H            5.27050000000000       -5.32910000000000        2.35630000000000
H            4.92850000000000       -6.03600000000000        0.77140000000000
H           -1.69450000000000       -6.74180000000000        3.07410000000000
H           -2.24590000000000       -5.14390000000000        3.57490000000000
H           -0.73190000000000       -5.32020000000000        2.67950000000000
H           -3.89140000000000       -7.15160000000000        1.98930000000000
H           -4.50540000000000       -6.05820000000000        0.74610000000000
H           -4.45010000000000       -5.53210000000000        2.42660000000000
H           -1.60770000000000       -7.40650000000000        0.75300000000000
H           -0.83200000000000       -5.93740000000000        0.14380000000000
H           -2.37380000000000       -6.45820000000000       -0.52040000000000
H           -3.59130000000000       -4.62930000000000       -0.87380000000000
H           -1.60470000000000       -3.16040000000000        2.63130000000000
H           -5.94690000000000       -1.84220000000000       -3.67230000000000
H           -6.75450000000000        2.15770000000000       -2.34310000000000
H           -3.84220000000000        4.36780000000000        0.35300000000000
H            0.09740000000000        2.82970000000000        0.99320000000000
H            0.81410000000000        1.52750000000000        4.48260000000000
H            3.00950000000000        4.41070000000000        2.21380000000000
H            0.89700000000000       -3.90560000000000        1.70310000000000
H            5.01870000000000       -3.78670000000000        0.59130000000000
H            4.58310000000000        3.48650000000000       -2.09290000000000
H            6.27250000000000       -0.43790000000000       -2.40150000000000
C           -2.12210000000000       -3.04340000000000        5.69290000000000
C           -2.21170000000000       -1.72950000000000        5.23110000000000
C           -2.90880000000000       -1.41980000000000        4.03250000000000
C           -3.38340000000000       -2.54710000000000        3.30860000000000
C           -3.21100000000000       -3.84480000000000        3.76340000000000
C           -2.61070000000000       -4.12630000000000        4.98380000000000
C           -3.26470000000000       -0.09360000000000        3.61580000000000
C           -4.36720000000000       -0.01050000000000        2.69810000000000
C           -4.74280000000000       -1.09510000000000        1.87750000000000
C           -4.11690000000000       -2.40440000000000        2.05000000000000
C           -2.71400000000000        1.16770000000000        4.05810000000000
C           -3.54940000000000        2.31700000000000        4.01220000000000
C           -4.90180000000000        2.28900000000000        3.45000000000000
C           -5.15480000000000        1.14960000000000        2.57090000000000
C           -6.19760000000000        1.23370000000000        1.65590000000000
C           -6.49940000000000        0.19390000000000        0.78930000000000
C           -5.75330000000000       -0.96950000000000        0.93490000000000
C           -1.36330000000000        1.42420000000000        4.43290000000000
C           -0.94840000000000        2.72120000000000        4.75770000000000
C           -1.79660000000000        3.81430000000000        4.76630000000000
C           -3.11160000000000        3.57380000000000        4.39800000000000
O           -1.60320000000000       -0.79300000000000        5.97010000000000
O           -0.39090000000000        0.50080000000000        4.38940000000000
B           -0.25000000000000       -0.48950000000000        5.45600000000000
C            1.80070000000000       -3.39220000000000        5.41370000000000
C            1.62170000000000       -2.05120000000000        5.05430000000000
C            2.74720000000000       -1.24900000000000        4.71020000000000
C            3.92200000000000       -2.00390000000000        4.43430000000000
C            4.06260000000000       -3.33670000000000        4.80560000000000
C            3.02080000000000       -4.04580000000000        5.37820000000000
C            2.82620000000000        0.19300000000000        4.56990000000000
C            3.79060000000000        0.67360000000000        3.62070000000000
C            4.75400000000000       -0.16300000000000        3.02480000000000
C            2.25430000000000        1.17970000000000        5.43080000000000
C            2.68610000000000        2.53430000000000        5.32510000000000
C            3.21950000000000        3.04880000000000        4.06350000000000
C            3.84640000000000        2.02980000000000        3.22990000000000
C            4.62840000000000        2.43650000000000        2.15790000000000
C            5.46410000000000        1.56300000000000        1.47160000000000
C            5.55950000000000        0.27580000000000        1.98050000000000
C            1.38850000000000        0.95200000000000        6.54820000000000
C            1.40460000000000        1.83170000000000        7.63220000000000
C            2.06800000000000        3.04940000000000        7.61050000000000
C            2.61280000000000        3.42370000000000        6.38760000000000
O            0.53710000000000       -0.05410000000000        6.63150000000000
O            0.34620000000000       -1.69860000000000        4.93580000000000
C            5.01500000000000       -1.47170000000000        3.61970000000000
O            3.20940000000000        4.24420000000000        3.77950000000000
O            6.05540000000000       -2.08960000000000        3.40530000000000
O           -4.28070000000000       -3.32930000000000        1.25840000000000
O           -5.72340000000000        3.18490000000000        3.62280000000000
C           -2.51090000000000       -5.56480000000000        5.46060000000000
C           -1.74730000000000       -5.69420000000000        6.78060000000000
C           -1.78700000000000       -6.39520000000000        4.39130000000000
C           -3.93060000000000       -6.11230000000000        5.66660000000000
C           -1.36870000000000        5.22720000000000        5.11970000000000
C           -1.65620000000000        6.15190000000000        3.92840000000000
C           -2.17810000000000        5.68650000000000        6.34130000000000
C            0.11800000000000        5.32570000000000        5.45550000000000
C           -7.59460000000000        0.26590000000000       -0.26070000000000
C           -6.97380000000000        0.01680000000000       -1.64240000000000
C           -8.29250000000000        1.62800000000000       -0.28270000000000
C           -8.64410000000000       -0.81380000000000        0.03800000000000
C            3.15500000000000       -5.46910000000000        5.89000000000000
C            2.26000000000000       -6.39690000000000        5.05910000000000
C            2.71630000000000       -5.50570000000000        7.36050000000000
C            4.59600000000000       -5.97950000000000        5.80480000000000
C            2.12680000000000        3.91280000000000        8.85830000000000
C            2.85460000000000        3.11560000000000        9.95080000000000
C            2.88790000000000        5.22000000000000        8.62220000000000
C            0.70980000000000        4.25770000000000        9.33610000000000
C            6.26820000000000        2.05740000000000        0.28220000000000
C            7.23190000000000        3.15620000000000        0.75150000000000
C            7.08450000000000        0.94000000000000       -0.37240000000000
C            5.30180000000000        2.62770000000000       -0.76520000000000
H            7.60210000000000        1.33000000000000       -1.24750000000000
H            6.43870000000000        0.12630000000000       -0.69380000000000
H            7.83130000000000        0.54770000000000        0.31360000000000
H            7.82560000000000        3.51950000000000       -0.08570000000000
H            7.90610000000000        2.76430000000000        1.51050000000000
H            6.69020000000000        3.99570000000000        1.17820000000000
H            5.85420000000000        2.98770000000000       -1.63160000000000
H            4.72500000000000        3.45380000000000       -0.35950000000000
H            4.60740000000000        1.85700000000000       -1.09330000000000
H            2.93510000000000        5.78820000000000        9.55000000000000
H            2.38780000000000        5.83170000000000        7.87570000000000
H            3.90490000000000        5.02250000000000        8.29220000000000
H            0.75740000000000        4.84160000000000       10.25400000000000
H            0.12950000000000        3.36050000000000        9.53090000000000
H            0.18870000000000        4.84450000000000        8.58360000000000
H            2.92690000000000        3.70390000000000       10.86420000000000
H            3.86020000000000        2.86030000000000        9.62250000000000
H            2.32610000000000        2.19330000000000       10.17510000000000
H           -1.88280000000000        6.69310000000000        6.63360000000000
H           -2.00200000000000        5.01490000000000        7.17920000000000
H           -3.24360000000000        5.68940000000000        6.12790000000000
H           -1.34690000000000        7.16910000000000        4.16260000000000
H           -2.71360000000000        6.16390000000000        3.67890000000000
H           -1.10100000000000        5.81500000000000        3.05580000000000
H            0.36590000000000        6.35260000000000        5.72150000000000
H            0.73750000000000        5.04010000000000        4.60930000000000
H            0.36250000000000        4.68380000000000        6.29630000000000
H           -9.44340000000000       -0.77710000000000       -0.70040000000000
H           -9.07570000000000       -0.65420000000000        1.02400000000000
H           -8.20260000000000       -1.80610000000000        0.01640000000000
H           -9.05410000000000        1.63580000000000       -1.06100000000000
H           -7.58310000000000        2.42450000000000       -0.49470000000000
H           -8.77880000000000        1.83250000000000        0.66810000000000
H           -7.73970000000000        0.06680000000000       -2.41460000000000
H           -6.50180000000000       -0.96040000000000       -1.69040000000000
H           -6.21820000000000        0.77030000000000       -1.85500000000000
H            2.37010000000000       -7.42730000000000        5.39330000000000
H            2.53460000000000       -6.34160000000000        4.00790000000000
H            1.21570000000000       -6.11680000000000        5.15360000000000
H            2.78500000000000       -6.52000000000000        7.75050000000000
H            1.69180000000000       -5.16330000000000        7.47310000000000
H            3.35630000000000       -4.85990000000000        7.95790000000000
H            4.65650000000000       -6.97820000000000        6.23480000000000
H            5.27050000000000       -5.32910000000000        6.35630000000000
H            4.92850000000000       -6.03600000000000        4.77140000000000
H           -1.69450000000000       -6.74180000000000        7.07410000000000
H           -2.24590000000000       -5.14390000000000        7.57490000000000
H           -0.73190000000000       -5.32020000000000        6.67950000000000
H           -3.89140000000000       -7.15160000000000        5.98930000000000
H           -4.50540000000000       -6.05820000000000        4.74610000000000
H           -4.45010000000000       -5.53210000000000        6.42660000000000
H           -1.60770000000000       -7.40650000000000        4.75300000000000
H           -0.83200000000000       -5.93740000000000        4.14380000000000
H           -2.37380000000000       -6.45820000000000        3.47960000000000
H           -3.59130000000000       -4.62930000000000        3.12620000000000
H           -1.60470000000000       -3.16040000000000        6.63130000000000
H           -5.94690000000000       -1.84220000000000        0.32770000000000
H           -6.75450000000000        2.15770000000000        1.65690000000000
H           -3.84220000000000        4.36780000000000        4.35300000000000
H            0.09740000000000        2.82970000000000        4.99320000000000
H            0.81410000000000        1.52750000000000        8.48260000000000
H            3.00950000000000        4.41070000000000        6.21380000000000
H            0.89700000000000       -3.90560000000000        5.70310000000000
H            5.01870000000000       -3.78670000000000        4.59130000000000
H            4.58310000000000        3.48650000000000        1.90710000000000
H            6.27250000000000       -0.43790000000000        1.59850000000000
282
 energy: -47.572596978762 gnorm: 4959.066758363310 xtb: 6.7.1 (edcfbbe)
C           -2.11906663841494       -3.04377667626934        1.69217100479709
C           -2.21235932209928       -1.72866773534362        1.22965750383648
C           -2.90911600940689       -1.42003683022608        0.03075741635921
C           -3.38325342474326       -2.54686209104518       -0.69368649320807
C           -3.20809943604427       -3.84648076546674       -0.24185371272563
C           -2.60533034733845       -4.12938790375303        0.98190471681009
C           -3.26564724901273       -0.09366487829530       -0.38520948814657
C           -4.36650364337869       -0.01173482437361       -1.30370485944340
C           -4.74103908733312       -1.09654072710314       -2.12443435342159
C           -4.11697716395855       -2.40462804264948       -1.95066552159326
C           -2.71596081775015        1.16835230655884        0.05775720680753
C           -3.55116543436472        2.31748437867770        0.01115580656844
C           -4.90197013498054        2.28961579022117       -0.55139014508122
C           -5.14603378238151        1.15562863417746       -1.42863484271976
C           -6.18490555948977        1.28681021294550       -2.39836221951768
C           -6.49469692715715        0.19493959049749       -3.23191959675272
C           -5.74957200940436       -0.97282859277407       -3.07048729281179
C           -1.36535370431044        1.42519275672943        0.43284818468659
C           -0.95022548080276        2.72198601867208        0.75793178872301
C           -1.79886896319457        3.81397426747802        0.76553809519770
C           -3.11351589185240        3.57376670905079        0.39678982286264
O           -1.60431574022978       -0.79101335547271        1.97018141065994
O           -0.39134857876468        0.50018023044824        0.38991054221735
B           -0.25198526993321       -0.48892076740700        1.45739541620426
C            1.79895994086697       -3.39183916928507        1.41644186471443
C            1.62092169640554       -2.05106577711424        1.05656628220311
C            2.74636133855869       -1.24865094351142        0.71291012105708
C            3.92127964720333       -2.00380795169077        0.43724882453534
C            4.06133530908185       -3.33566899736975        0.80914697871304
C            3.01894274104093       -4.04445045824386        1.38113531159197
C            2.82442281305233        0.19282053651245        0.57187136184436
C            3.78629491083093        0.67105789056512       -0.37535844726068
C            4.75217421551636       -0.16400960393783       -0.97250554559915
C            2.25100077585002        1.18073864769928        1.43205047697748
C            2.68176105471347        2.53463650441838        1.32277932718938
C            3.21379847157992        3.05069195174111        0.06712082789879
C            3.80007180566992        2.03036853694518       -0.75912567480046
C            4.59924493310786        2.44236752851534       -1.89120106650691
C            5.46541157360853        1.56028378417511       -2.53138647369295
C            5.55778856198757        0.27434137269349       -2.01810929068157
C            1.38619765435873        0.95272449719433        2.54810142817343
C            1.39554147946418        1.83009438182242        3.62971683847901
C            2.00919776664881        3.04688485180867        3.58987298296234
C            2.59971972805177        3.42404173835850        2.37124703881526
O            0.53494230395816       -0.05537731234652        2.63026921083814
O            0.34315307370269       -1.69776546948801        0.93710207791676
C            5.01375998275917       -1.47131525801404       -0.37687323721584
O            3.20723377043039        4.24508470927482       -0.21870433457864
O            6.05424660538563       -2.08871352131731       -0.59036430189254
O           -4.28009265992909       -3.32956508753414       -2.74206236574506
O           -5.72454648864607        3.18443255436666       -0.37996503239954
C           -2.51232831318540       -5.56493435679004        1.45959800733382
C           -1.74438662269408       -5.68356545901840        2.76584060568480
C           -1.78750946666511       -6.39497131302842        0.39236100149895
C           -3.93178795531756       -6.11259362670286        1.66633875045130
C           -1.37107367055335        5.22724541684834        1.11764249303432
C           -1.65803722693013        6.15208614506507       -0.07248540739821
C           -2.18848022250903        5.68304134320323        2.32486902982414
C            0.11562322862048        5.32628441492543        1.45536843418172
C           -7.59463830400468        0.26430471945967       -4.26609688698095
C           -6.97236786020925        0.01546080013997       -5.64515621431754
C           -8.29182818101822        1.62672536515293       -4.28639295901057
C           -8.64356678902000       -0.81526487549176       -3.96577967642132
C            3.15334338168227       -5.46763798989283        1.89227825086363
C            2.25873320603291       -6.39619811854655        1.06249440419178
C            2.71739040804523       -5.49072124654073        3.34908035633588
C            4.59426920246250       -5.97849024614024        1.80922583684433
C            2.09775303448554        3.93057848510593        4.85963834652238
C            3.02353940013834        3.02279868350481        5.78642963071054
C            2.87343211252346        5.25496335504277        4.64855216192158
C            0.73349994555451        4.20722983360119        5.33206646287151
C            6.26907387308258        2.05751803972503       -3.71486678433441
C            7.23224109459385        3.15638809635687       -3.24494023554476
C            7.08541041268391        0.94004216825178       -4.36821185858094
C            5.30284096318550        2.62748201176209       -4.76222262489333
H            7.60344455578428        1.32979077848274       -5.24318964679015
H            6.43969980000467        0.12610013990000       -4.68979550760246
H            7.83191027539671        0.54779363938483       -3.68168814448904
H            7.82623859464935        3.51971392037818       -4.08159461068780
H            7.90610190678616        2.76487035657896       -2.48530658431251
H            6.69023741605519        3.99631623909682       -2.81851642860770
H            5.85547638067901        2.98747966240878       -5.62846385406935
H            4.72558835605630        3.45379598501586       -4.35686831123408
H            4.60843413516989        1.85670996473548       -5.09052850118638
H            2.93105374971072        5.79244991440141        5.55314865260574
H            2.38377329528766        5.83484281646431        3.87670632013701
H            3.90942355064800        5.03243328005407        4.29958745641096
H            0.80432120547246        4.85482677011854        6.26151005288374
H            0.12656179306469        3.36579395665269        5.54312467458101
H            0.16593780272481        4.82812519693967        4.56237020867625
H            2.96726309135907        3.73371964006945        6.91539109317456
H            3.88102001034360        2.85725663120577        5.62034152493151
H            2.31675186477972        2.18247800105685        6.19323018964434
H           -1.88761200091437        6.69834645107173        2.62666519965600
H           -2.00790996845923        5.00867145507906        3.17566954245131
H           -3.24828670008945        5.68953995539641        2.12526673467338
H           -1.34914972202866        7.16946945486718        0.16160344155603
H           -2.71557825844964        6.16393708160235       -0.32259496177005
H           -1.10249329243974        5.81514114151024       -0.94492908585342
H            0.36323388648230        6.35334942466498        1.72154082516794