116
 energy: -22.928061455056 gnorm: 0.329736929581 xtb: 6.6.1 (8d0f1dd)
C           -3.31122850772930        0.79849766164622       -0.92477639677520
C           -2.44380812530352       -0.12270372891954       -0.27661132624697
C           -1.41337090092821        0.39579727573559        0.56335275196199
C           -0.89266158675590        1.65801491088749        0.27377586709581
C           -1.72665675402493        2.51431363229076       -0.49448366572522
C           -2.95444148494349        2.13954154133227       -1.01494489940871
C           -0.74098268209890       -0.43411532818871        1.49825021926784
C            0.56872586496315        0.03782116815119        1.86248088067890
C            1.03782416582094        1.29402317993033        1.50887470833621
N            0.31238977034758        2.07067427098208        0.65193736800696
C           -1.29695700510141       -1.39996043042223        2.41574187746061
C           -0.38243517664656       -2.18060797534842        3.13232615520648
N            0.91308504082021       -1.90366887689689        3.30325166013478
C            1.37712470144904       -0.74872102533751        2.81811050966982
C            2.52149331701875       -0.17739833758153        3.39379298866852
C            2.95849061756259        1.02681208890480        2.95105897606587
C            2.24288949469137        1.78498308775960        2.03503020483770
C           -2.74860936222260       -1.74497937691422        2.38401158947411
C           -3.09416315450955       -2.91614440870436        3.00571134491758
C           -2.16786021984049       -3.77788778654213        3.63251872101904
C           -0.85708937311598       -3.40495313382985        3.68547234358092
O           -3.71994433332149       -0.94984598373544        1.67726658385724
O           -2.55702603277562       -1.47241711578389       -0.57241635275616
C           -3.84297843593025        3.13357444054366       -1.60938954875544
C           -2.68769581069131       -5.03867041417370        4.30484659386931
H           -1.39666850744143        3.51251503834900       -0.76806311868865
H           -4.27662633836220        0.55105838579656       -1.33106614114542
H            2.66329581305412        2.73912661909249        1.72562431984580
H            3.05775395548473       -0.69369546277216        4.16536137542516
H           -0.24710966264510       -4.12034095424229        4.22946223699121
H           -4.11477991332403       -3.04712728052358        3.03244694615357
O           -4.21824883374556        4.03433712717988       -0.87713382485991
O           -4.44510595673734        2.90643496899600       -2.81853501752979
C           -5.44216520282800        3.83300025693726       -3.02488532025093
C            4.23586651889298        1.50004220933226        3.59165660008449
O            5.05927614697201        0.66079890002952        3.91714215179376
O            4.47001334453535        2.86385149488593        3.72605651435371
C            5.79457498613219        3.08584475587818        4.15829123132174
O           -3.82227255313510       -5.27347675879771        4.16636005494405
O           -1.85023202017753       -5.79767454267276        5.06656077253571
C           -2.55119635829503       -6.86252441382958        5.62930343183426
C           -5.07197156564436       -1.42399175670916        1.58830531863830
C           -1.33089900128490       -2.23622472573986       -0.99264499351172
H           -2.54510546830388       -7.76426885143998        4.99136022291012
H           -3.57194749219491       -6.44405511486021        5.74196173723541
H           -2.09133598235598       -7.02043774843818        6.64022264233588
H            5.72707967266424        3.46798026205549        5.10135971236643
H            6.34060091246885        3.78468702308830        3.50069950143490
H            6.17933064298187        2.03010500085905        4.19342358084693
H           -0.91862729772622       -2.57650129080332       -0.01361370304871
H           -0.49769766914251       -1.60651221708571       -1.34094446550576
H           -1.52632419730509       -2.94569707152159       -1.75361447637286
H           -5.11788846557077       -2.41810833635233        1.17520213188926
H           -5.67929807973498       -0.69619639428435        1.04301666067831
H           -5.57598832326623       -1.42383358739762        2.57928294206544
H           -6.13050215934830        3.76035386975488       -2.23272855695873
H           -5.86615610071888        3.45938329385866       -4.02668959924245
H           -5.13479557532099        4.87790991548477       -2.98314551356402
C           -1.38192942069774        3.73616555005018        2.91232598411686
C           -1.84821468128685        2.59982427735607        3.49755545445181
C           -1.05946531454833        2.05730632010638        4.60922730982276
C            0.19893954712228        2.69376791964407        4.86302140881997
C            0.50425395911860        3.94630308659851        4.28768785650746
C           -0.26031777722226        4.46998310053134        3.25072669343212
C           -1.20488993561782        0.74454293276906        5.14851520323437
C           -0.06287609782692        0.02744069315890        5.60930570802864
C            1.19208754369866        0.71421540266195        5.78882868583885
N            1.19428660993148        2.06344359410476        5.62744624321596
C           -2.41361422770794        0.07928500213936        5.25249410304426
C           -2.45851584031083       -1.32662100968547        5.60237876023992
N           -1.29466212405906       -1.98318595734370        5.89916817085159
C           -0.14475655767527       -1.32117560077092        5.98824682881008
C            0.97209270935794       -1.98958449505532        6.53157704134458
C            2.21982707914082       -1.36973967291181        6.68703967237737
C            2.30561929262884       -0.09745313075593        6.26436900324455
C           -3.73018485967715        0.71367583494582        5.25810242262992
C           -4.89964478833448       -0.06184623426677        5.21204641615509
C           -4.82617965800088       -1.39228978090841        5.46901303780036
C           -3.67144193418464       -1.98914944386360        5.67265433266067
O           -3.75568638935321        2.07705011038914        5.52067969627343
O           -2.94192434743730        1.91263938797883        3.01658762327703
C            0.21273512614467        5.50086066357994        2.34765104514621
C           -6.06660304520411       -2.17604633098929        5.80641622556876
H            1.41756699010566        4.38133362238595        4.66974005703471
H           -1.82880610647429        4.11982501512100        2.06992133318584
H            3.26888037378556        0.32655662585251        6.31721410015598
H            0.87146188387207       -3.08471526305024        6.57830423410869
H           -3.67716811065157       -3.05999292755990        5.83019634570050
H           -5.77379677507622        0.43595144608221        4.71017130754348
O            1.34459852619901        5.82615848916894        2.44941456579099
O           -0.74718748219123        6.07961784856304        1.59848183464284
C           -0.21473095568964        7.24015934882472        1.05753806029483
C            3.53228080814219       -2.00967610361154        7.02506769044485
O            3.64093082622715       -3.14437803815732        7.50071391725347
O            4.56565258381079       -1.22937033368332        6.69086985080897
C            5.72579357310716       -1.80692399125161        7.22246151275881
O           -7.04801223588612       -1.95726935745904        5.14194115322235
O           -6.01514389321278       -2.93743591896022        6.94765316328794
C           -7.21292732384718       -3.62681918543340        7.15115816329978
C           -4.95459780685163        2.65960679932188        5.86868674392943
C           -3.68284113682406        2.59129188358641        2.05479246020704
H           -7.43119628931628       -4.22607794725959        6.20622607140901
H           -8.06548455146707       -2.91765848248592        7.29781126410398
H           -7.07314693247270       -4.33087306029711        7.91223421050944
H            6.57332189837178       -1.29353136199234        6.78341268688262
H            5.74663761932316       -2.84282155125561        6.88089468184451
H            5.69426191474290       -1.72781984964892        8.29460302186842
H           -4.10481209541493        3.44288266176275        2.60483747673152
H           -4.49244774344916        1.87419893016926        1.82433103764650
H           -3.18901540870812        2.85154642679373        1.06781919454921
H           -5.55414326821421        2.76698137191684        4.93950725322359
H           -4.78658370641210        3.62090640967288        6.25983200635257
H           -5.43485580473958        1.97242995129449        6.65265772412460
H            0.89164886030839        7.38838561720231        1.13776105146914
H           -0.62894889903848        8.04195665205089        1.64837664327952
H           -0.59282546386754        7.45699159724320        0.03719083132488
116
 energy: -22.492511694828 gnorm: 0.563434282017 xtb: 6.6.1 (8d0f1dd)
C           -3.58387098348797        0.64520545442433       -1.79398632646732
C           -2.76189497809462       -0.09811605210822       -0.96619204759496
C           -2.05841770418388        0.49098995994314        0.20537043466003
C           -1.72653013302865        1.76564424451824        0.03411453458233
C           -2.34669796983128        2.52622618998477       -1.03562342639514
C           -3.51685012342507        2.07403996347924       -1.71962475863627
C           -1.37216843766218       -0.27860677050006        1.20105354409606
C           -0.17693106520259        0.26826983239546        1.59165761068410
C            0.22437640172798        1.58858631518251        1.20988294567999
N           -0.54478021622250        2.33388220920880        0.39999298745124
C           -1.85736913955835       -1.53837878062748        1.75327173656765
C           -0.81859305752224       -2.41576399480452        2.31057505203212
N            0.38035591886091       -1.89625850355400        2.73051352671806
C            0.50351379932940       -0.48197745587898        2.55172279023748
C            1.81112914511079       -0.00367213416380        2.94572334686948
C            2.34022905932473        1.16672411845591        2.41653599456913
C            1.53647020997838        2.00837777396309        1.60857056721582
C           -3.15584047580907       -2.08826681999014        1.85607127832571
C           -3.33578133161368       -3.36548172596547        2.45534823258328
C           -2.33510993446585       -4.24542736562269        2.54480378706110
C           -1.04890974134390       -3.83918313568515        2.30899218068753
O           -4.20355459430840       -1.24166457581532        1.46166670377376
O           -2.79129875508693       -1.59097752266698       -1.19032017282825
C           -4.33813567561239        2.87197068414930       -2.77661148252859
C           -2.80179213717005       -5.54932437921455        3.09529773397905
H           -1.82081659728155        3.54469851180390       -0.92901474181360
H           -4.27812811057956       -0.19026783723404       -2.13713200485551
H            1.74970312389881        2.92418444038655        1.09773285670003
H            2.48278059472443       -0.66992877855778        3.46926917343035
H           -0.35351393854546       -4.69229713777693        2.42634862840087
H           -4.29098299938763       -3.68501975721465        2.77294979553479
O           -4.09377787118315        4.06807498190055       -2.78439527708422
O           -5.41505771877976        2.28649079226492       -3.58290246691162
C           -5.87069495757211        3.24562356497088       -4.55377608828088
C            3.77203197712177        1.34296162162557        2.94030714425620
O            4.23018263868590        0.49457446153041        3.73586099379739
O            4.35613658748408        2.39374456951240        2.35035961846197
C            5.55130063541715        2.73317650013381        2.96212679355684
O           -3.79445487564602       -6.20547328499847        2.66614555776270
O           -1.76086486837917       -6.11351331745812        3.85101082398322
C           -2.04429984053793       -6.58326399207680        5.22617233072599
C           -5.64542985449453       -1.34016387031289        1.93535898171162
C           -2.06534034710397       -2.01826147885224       -2.40958091265819
H           -2.66739057232100       -6.10114162818718        6.08060902067089
H           -1.12613842133980       -6.69762963456939        5.70292834070931
H           -2.55721134228749       -7.52740551046184        5.05041364716953
H            5.41100877291677        3.67672270394865        3.76865730378050
H            6.52289965061349        2.87942976522748        2.29015586533426
H            5.83278738080605        2.09201772125193        3.78947113162155
H           -2.88162732805700       -2.91213751769611       -2.90744326791355
H           -1.09212173858366       -2.52085731112054       -2.44937091347534
H           -1.94853718376409       -1.06807710515354       -3.08428370613274
H           -6.35272674098924       -1.46937671203092        1.22395484166031
H           -6.03127405650180       -0.39912354667752        2.58089082201123
H           -5.62352761255367       -2.13909513951372        2.71178066262332
H           -5.47212747593696        2.84851857843563       -5.47276233988283
H           -5.57104652373006        3.99068480830608       -3.94147423572035
H           -6.94181427324511        3.44013605151781       -4.42270292366545
C           -1.06384262531051        3.88898575109571        3.55759690361026
C           -1.29321800305935        2.73739980178087        4.29312807851801
C           -0.37381605088847        2.22606125817086        5.28271997764012
C            0.84256572660716        2.78974802641600        5.30826990058028
C            1.17259208210666        3.91805940666243        4.45728821038130
C            0.16394584357916        4.43543631336185        3.66126179649743
C           -0.59716771828119        0.89809857028572        5.74654447266242
C            0.51659023060611        0.21779729890394        6.29796857648346
C            1.71537089478008        0.99348378939164        6.41760145334676
N            1.81981001857456        2.24146059763911        6.06265127736139
C           -1.85201148038001        0.14936245007095        5.85723292945536
C           -1.81074031655934       -1.26654946480668        5.90327794682551
N           -0.65068314805236       -2.00211778649884        6.08344710533937
C            0.46976214541210       -1.24653039191490        6.29407734125933
C            1.54524553666584       -1.88512656245413        6.85437594179998
C            2.51805479446109       -1.05554912609557        7.58393077227259
C            2.56266347547886        0.23496366058343        7.35734282275001
C           -3.10463282812413        0.76512349624531        6.38487740893934
C           -4.35405073738077       -0.03454483948408        6.23315177562204
C           -4.25804950967999       -1.37218169146720        5.98920045061969
C           -2.95401546513768       -2.02658669468586        5.82580049266432
O           -2.76586039701848        1.98164348309828        6.99448573773849
O           -2.38681677396590        1.92698446391856        4.14637730657878
C            0.40283784233968        5.86285601425062        3.09226970254556
C           -5.43152264181252       -2.23081644755991        5.93743472967745
H            2.16302548833765        4.31943179060678        4.21552819740432
H           -1.72730299768784        4.17510029901980        2.84968630686932
H            3.16381184762184        0.78306982216229        7.99649316565090
H            1.62821373106365       -2.91219224566481        7.05539084767015
H           -3.12465176184451       -3.09961149211465        6.15669462138480
H           -5.31643227836790        0.27215449552708        6.55887978730317
O           -0.35815720873958        6.60844606540807        3.65771579477681
O            1.14315971099036        6.40157053953211        2.07168252044831
C            0.43179545729685        7.47224952297851        1.27772291993745
C            3.37200636780520       -1.49157194408559        8.63701989713592
O            2.76312880280536       -2.00311192768847        9.54057611533356
O            4.72601221383415       -1.34735649278533        8.75062698279771
C            5.63830687831712       -1.90780047078528        9.59836770724224
O           -5.42973132862251       -3.19950060623494        5.15897665303526
O           -6.64159967230049       -1.71972879216152        6.55381006529098
C           -7.76216849873999       -2.64830539166880        6.20572752915013
C           -3.78751315798309        2.67083597772536        7.53422124694730
C           -2.99755018579940        1.89166614809451        2.77985932493845
H           -7.84162529910922       -2.77436711754225        5.15919966581728
H           -8.59649591959381       -2.49477083532539        6.76947693115183
H           -7.44070969030687       -3.70431160284511        6.58040352842713
H            5.45707221909010       -3.01690138145133        9.31918736139453
H            5.31786702669952       -1.83210748817908       10.65473914270687
H            6.71649282703795       -1.52574260818291        9.26559276069889
H           -2.08025685966245        2.13719208686925        2.13209004245052
H           -3.94152451254305        2.42575798999122        2.27658839123961
H           -3.09520436138680        0.75224120893629        2.55066110202568
H           -3.57600029422571        2.62003144576647        8.57855987629739
H           -4.57390179803111        2.09434156232740        7.26735269936712
H           -3.54830316470499        3.63039987674399        7.18722659230177
H            0.75606027313041        8.13800304919925        2.11374711757634
H           -0.63343702321024        7.15982040477455        1.07447217977728
H            0.74452709641067        8.06059715056033        0.45238378154053
116
 energy: -22.604927531091 gnorm: 0.558318403157 xtb: 6.6.1 (8d0f1dd)
C           -3.81447084337176        0.08558220003102       -2.03980844901404
C           -3.25606450930046       -0.51207347673713       -0.87562912621212
C           -2.15450813633329        0.15105872526732       -0.10828417574299
C           -1.54643659019095        1.20956684170865       -0.66161037459275
C           -1.95558235414580        1.70158297893402       -1.84464204641355
C           -3.18217431654412        1.28902952257844       -2.42528387201746
C           -1.71162891032344       -0.30078381513508        1.22087347546443
C           -0.56202084189458        0.23175783514100        1.77358394824670
C           -0.12831960110185        1.45645838556258        1.20767465765161
N           -0.56683423063789        1.90712392070087        0.06155060620413
C           -2.14001997704097       -1.64232394607342        1.79299594155357
C           -1.05449138936263       -2.39474055794676        2.51887769796850
N            0.05039415436683       -1.88573641173006        2.99712484541401
C            0.22859245578118       -0.51833472850559        2.77806453862786
C            1.32525784151803        0.21493563485825        3.33192201195856
C            1.58370931619229        1.50700116328794        2.93901023658128
C            0.92350871218439        2.12216194788071        1.83099365763147
C           -3.54016436949262       -1.99391557687188        2.08649268926281
C           -3.73990357133036       -3.23726450394059        2.72363323782767
C           -2.65414384092378       -4.13651313938006        2.74051490435107
C           -1.31205728387198       -3.77535283398756        2.71023178180912
O           -4.48503463703484       -1.12725314248578        1.86887894301504
O           -3.52719005258258       -1.86142585538699       -0.56206839107260
C           -3.82251490728216        1.92648688254900       -3.53278294409136
C           -2.85326906105508       -5.60447598017727        2.97613747866093
H           -1.31717128990431        2.43099055031242       -2.31347151033668
H           -4.53592818756700       -0.30130772795021       -2.89900893797076
H            1.61102182032454        2.64476312610328        1.21923898056023
H            2.11590693017902       -0.18877517485849        3.96718972221286
H           -0.76738646248822       -4.70355525456248        3.02182586669907
H           -4.64122793680843       -3.75221326887968        3.07744444646903
O           -3.22961411619798        2.61491169207609       -4.31409428503227
O           -5.14070317257593        1.70368621571428       -3.70637244225212
C           -5.97214877198400        2.49526325664238       -4.80883371999195
C            2.90252999579344        2.16215578391184        3.30861445596912
O            3.52690124174836        1.75864154635046        4.25407815046736
O            3.44301374056270        2.94195598740987        2.35617069072195
C            4.55256633412947        3.36980700367658        2.87380012410328
O           -3.63779535821377       -6.17856335882907        2.19818847553329
O           -2.05035151760658       -6.12531609615768        4.10104297929778
C           -2.22520999350989       -7.45248711177354        4.39274274990519
C           -4.25996845163762        0.22789398514316        2.31497744062583
C           -4.02876271267582       -2.69448459814238       -1.56137218879253
H           -1.38999277512054       -7.64944913198834        5.01023962432919
H           -1.81767044225051       -8.06407644147036        3.50885479384317
H           -3.18891804756581       -7.69736406227803        4.92966996760368
H            4.94939009116240        4.10544707727084        2.15572128617400
H            5.19955924132433        2.56021597922066        3.07594091422066
H            4.65355179406224        4.28512363156620        3.60531795384563
H           -5.08164353535611       -2.57775990920190       -1.88411481420170
H           -3.98866672655553       -3.75144347056260       -1.55211287053410
H           -3.33598361617432       -2.55198746477818       -2.43001415665419
H           -4.11181542657584       -0.00464580609478        3.28834091798063
H           -5.11895651886129        0.82210009388146        1.95900964849615
H           -3.25449290807296        0.66002084846387        1.87287061571780
H           -7.07476964051768        2.40911136268771       -4.65052407017069
H           -5.84694926645302        1.91034868733444       -5.65133795312080
H           -5.65949114770649        3.41577016708663       -4.84257249794178
C           -0.34174085735550        3.93930511826760        4.11402431148522
C           -1.04388152978151        2.84205918128461        4.66170565254924
C           -0.49591693157416        2.46680601764827        5.97872879539078
C            0.84093008354656        2.85710164755842        6.26900131280040
C            1.43451019563999        3.91260026179759        5.66361464040944
C            0.91247987464678        4.44896956992625        4.55947501906951
C           -0.81604083752920        1.05647511190761        6.30556947559696
C            0.17443065230129        0.28633495997120        7.04704623033967
C            1.28976223841415        0.90602537395040        7.60247157697359
N            1.47835390001491        2.18615451021150        7.29539503271999
C           -1.99718868592180        0.30245845527458        6.04033122477473
C           -1.74937562596574       -1.03824300042426        5.74484409684447
N           -0.58937842368778       -1.67736874002620        6.03791993846307
C            0.40035264954919       -1.07567360577505        6.69531449183171
C            1.58595529228781       -1.83147438990074        7.05371237808501
C            2.54978755818834       -1.19228589262085        7.78214346954172
C            2.44899008995716        0.14892763746332        8.05934086525673
C           -3.32836516832111        0.84873890264770        6.18402611138459
C           -4.36240099616145        0.04726189957245        5.82428501991788
C           -4.21141067772768       -1.32908022681779        5.63013187649960
C           -2.88772593402214       -1.83548216046408        5.61472706094040
O           -3.55357551643177        2.24370618508447        6.36185607064512
O           -1.99600875097176        1.97078606117858        4.06583005297589
C            1.55474746248889        5.69415419702645        3.89232306275761
C           -5.36763643334177       -2.29878668636029        5.44176499346581
H            2.30702669729828        4.33830024283363        6.14038733692929
H           -0.79594863370878        4.56279537915715        3.39510844553048
H            3.27617779882896        0.75201980884599        8.46417677503858
H            1.68269121352833       -2.91696601409169        6.95630219551878
H           -2.73830367773452       -2.91337641528200        5.54927441326051
H           -5.30697767360044        0.18045664597525        6.07895391600251
O            2.63334969175167        5.92066943153169        4.52337354479632
O            0.99746658358371        6.25413931880732        2.85303421065743
C            1.92662820578771        7.32414873896405        2.54636013817313
C            3.97620436372962       -1.71688736916413        7.80885906519289
O            4.45425656877102       -2.41568106618362        6.88611803828842
O            4.79333065660934       -0.89126667723669        8.51777590017010
C            6.19125227749694       -0.82250990844361        7.98138803607346
O           -5.29981784211232       -3.33709071124743        6.07338523716656
O           -6.40475406605727       -1.78145367843653        4.76537972094575
C           -7.30636701695487       -2.76525810593391        4.47002918146117
C           -4.74913051752941        2.59617429994284        7.16666717071354
C           -3.06335634404594        2.89637909226790        3.52370319528638
H           -7.47418495988725       -2.90215493885468        3.49307069022003
H           -8.46148814196309       -2.35445986221682        4.73524063345599
H           -7.00233907881237       -3.69573428163253        4.87353753668348
H            6.09906173060242       -0.35074036237292        7.09256677663400
H            6.30492380006065       -1.91087864533360        7.63493002514416
H            6.98251009599861       -0.35642349276704        8.48744946058985
H           -2.64371266291559        3.10040591007604        2.59435476931223
H           -3.05414041386957        3.73988365678261        4.04363911164218
H           -4.04594877470673        2.38963801896878        3.59780891206039
H           -5.66732859669785        1.95100387838842        7.00622577036007
H           -4.73879667559891        3.63628555119358        7.31171451834948
H           -4.48127363110986        2.26188246873963        8.21459905282483
H            2.89671413102812        6.93769400488461        2.22179456106862
H            2.19348001539561        7.94116721374452        3.33334533734843
H            1.41616917806473        7.79051613414729        1.60303043974288
116
 energy: -22.628611034481 gnorm: 0.483721142128 xtb: 6.6.1 (8d0f1dd)
C           -3.21712339222936       -0.35787435825226       -2.11535071254502
C           -2.41806609710458       -1.13100517183324       -1.19628787131114
C           -1.66445246244132       -0.43442997330331       -0.14161933891514
C           -1.29021258102613        0.96337621599452       -0.33418081002896
C           -1.95324142239296        1.72453038622787       -1.40238730903074
C           -3.06014222673828        1.07877476964616       -2.09121282508961
C           -1.27006835167538       -1.01067668732172        1.03937031378118
C           -0.19263150383867       -0.38160218190530        1.65527418219915
C            0.40181203443352        0.77050475685955        1.02873786438461
N           -0.14241871938991        1.53270945581494        0.12168115761886
C           -1.82082479386545       -2.05684621328694        1.79159666800617
C           -1.13276548579077       -2.63098190018064        2.82885471772291
N            0.16059288203143       -2.18789901836696        3.25573951099384
C            0.52388584455326       -0.99419047031645        2.72814004807319
C            1.64322248911972       -0.33464038122663        3.40548854650965
C            2.14729757659215        0.80717818402755        2.73224744335659
C            1.58564716670283        1.15964022018137        1.49772165354547
C           -3.12254703066780       -2.53204671774453        1.57365628630177
C           -3.61251044019271       -3.56310514898737        2.32821336312117
C           -2.86140844450890       -4.25391414772493        3.21917504739662
C           -1.61363507370723       -3.82625933127111        3.41514063628915
O           -3.99217036701448       -1.60336791274031        0.84026866273445
O           -2.32190823370968       -2.57906445661050       -1.26525939094430
C           -3.93958316488867        1.71963145178491       -3.23146489754495
C           -3.61623295337998       -5.32360734430716        3.87938307254474
H           -1.61517949116254        2.68337104615513       -1.70459308760668
H           -3.79111937410782       -0.64325673424364       -3.09567520576811
H            2.01090440731081        2.01779878666677        1.13663915093543
H            2.25651752573685       -1.00455320961651        4.08912090831299
H           -0.85323509831312       -4.25227486348696        4.06321907233611
H           -4.56093846887028       -4.04902454258252        2.26100432191706
O           -5.06923587654197        1.34819545322416       -3.20489689191252