116
 energy: -22.934392681633 gnorm: 0.351333096736 xtb: 6.6.1 (8d0f1dd)
C           -1.83395820603497        0.03710322808440       -0.16858559547067
C           -1.75734721140056        1.16203272624325        0.66739969008000
C           -0.65164110251471        1.31255855647048        1.57714254480834
C            0.26896723534868        0.30406333247924        1.73977318917799
C            0.18248620344822       -0.75724546705112        0.75651313897785
C           -0.80547144375690       -0.95626894976385       -0.16639150993241
C           -0.53240533236554        2.44055606092128        2.49126578324190
C            0.05885992661188        2.17526916110358        3.69591333701527
C            0.91677581698413        1.02055408264054        3.79010080301033
N            1.15642331632065        0.24501779258110        2.73124131133749
C           -1.16999786745989        3.69897421036382        2.35087218539944
C           -1.58473393522669        4.34304209128570        3.56328280128719
N           -1.25648750658468        3.91056734060205        4.82119946766015
C           -0.18904780264924        2.95535401524746        4.88308214124949
C            0.66327922869968        2.80195583917291        5.99887526121634
C            1.61765921151278        1.78896161343861        6.05076057281161
C            1.66917263544913        0.94505445011408        4.93910670790771
C           -1.16572963419769        4.47603989884874        1.14534376568184
C           -1.96195774533816        5.55582560453755        1.00445453754860
C           -2.58968231046804        6.13623620933779        2.16077220158697
C           -2.31532532784327        5.52833976245229        3.39462146051493
O           -0.30211295236928        4.17686330035821        0.02345833670562
O           -2.78476014436755        2.14325823265032        0.77203523151172
C           -0.75440060540574       -2.04073816074544       -1.16885715537831
C           -3.65678538937065        7.10054483896861        2.00291646289814
H            1.10733969542001       -1.39155747736887        0.57481994588488
H           -2.50731042309889       -0.04133642595151       -1.00282215310912
H            2.37399285812230        0.13126289124892        5.03647567133603
H            0.27562587651486        3.36147631378977        6.86372417734477
H           -2.70657241600316        6.03240551200616        4.30490649286537
H           -2.10021159474624        6.14633272172698        0.15999441266051
O           -1.76438357303446       -2.20415783215098       -1.84580913065563
O            0.37794765491042       -2.75181344635416       -1.15898132953768
C            0.18419502720245       -3.87914104077917       -1.99383007049238
C            2.41903456364343        1.39981209766540        7.23193568935468
O            3.24948237828525        0.55492102119945        7.13659482519305
O            2.13202614132857        1.96871189455545        8.40659277941634
C            2.73545923091806        1.28061876262673        9.47480678668167
O           -4.45793421242996        7.31654769951147        2.86020930285153
O           -3.57372655813406        7.65515616228389        0.71194118918505
C           -4.29536613906303        8.81539584498063        0.60611106858505
C           -0.27940472613117        5.11767251443527       -1.09422445519325
C           -3.68834534715050        2.21573666845952       -0.29576706415455
H           -4.66705996927357        9.04163997305646       -0.40216243880157
H           -3.73976718817255        9.75353948162932        0.93528351832892
H           -5.15254646336245        8.61972043404822        1.25938874710503
H            2.61088620023964        1.56880280334095       10.52677155320562
H            3.84173287399884        1.35339977510124        9.29470844264357
H            2.54339512547760        0.24707581756340        9.38852891982931
H           -3.13332539600340        2.78951315042203       -1.01709247561923
H           -4.58722125256686        2.68845900498095        0.09025111299522
H           -3.92328531157515        1.26936621337695       -0.64278883956500
H            0.64166605601302        5.15565923192596       -1.64488314008066
H           -0.36222744674878        6.12051146568039       -0.68433385546083
H           -1.17938784957652        4.78380179137334       -1.61447748272289
H            0.43756185321612       -3.57845967567506       -3.01605521336726
H           -0.82604425381511       -4.29424668382171       -1.91132523065582
H            0.89475324833471       -4.68833923965483       -1.83792717882989
C           -0.25908425007046       -4.46951554443249        2.19312307929050
C           -0.32411162179112       -3.41927243665951        3.20928665381299
C           -1.53481773778225       -2.70742553815090        3.25811873296332
C           -2.43899906462853       -2.75685064858732        2.16796153502712
C           -2.27371307160175       -3.76586434409068        1.19664219626562
C           -1.27081067528717       -4.68769702769688        1.26784156630654
C           -1.74217364476745       -1.79786298982110        4.35513787959186
C           -2.73533303379874       -0.79012276811491        4.05661841402416
C           -3.47408610499634       -0.69480534953551        2.86554393342974
N           -3.37353889615197       -1.77002206897297        2.06204280554131
C           -1.07804055606227       -1.76560775902901        5.58376286828908
C           -1.17609768730614       -0.58041217007616        6.39556178684612
N           -1.93069710058800        0.50055563891711        6.02493384355131
C           -2.77093521067327        0.36232903036887        4.94234093170588
C           -3.54807828865610        1.47380045071531        4.65311082271836
C           -4.31886050342318        1.50861803542910        3.43434032577718
C           -4.30002232140082        0.41321052830802        2.64127907041332
C           -0.59785735460564       -2.99183512633510        6.20567769000657
C            0.15704959571462       -2.95409788381012        7.35472192930968
C            0.25956806265464       -1.72669366834365        7.98748935552519
C           -0.43375577512117       -0.60863295466327        7.56539460425359
O           -0.93619041032680       -4.32828577171221        5.72197731951103
O            0.79011732971462       -2.93769227928228        4.00632614828487
C           -1.24183948214615       -5.70070427903210        0.25146033798711
C            1.00711073946803       -1.65294720688529        9.22447366996751
H           -2.98908596297281       -3.77477477981830        0.37644504958587
H            0.56911942709891       -5.11185421147441        2.30367599383366
H           -4.78881960720309        0.26893178992671        1.73836364715749
H           -3.50150347974849        2.26458045110140        5.36297809689598
H           -0.48956318418997        0.26177045790763        8.20737781255832
H            0.84711961103406       -3.70987301082561        7.78963269789055
O           -0.25387812155354       -6.43768119039226        0.13926946652484
O           -2.31000457262775       -5.74752883568556       -0.54675020696592
C           -2.24771578191426       -6.82676893772785       -1.45477094927153
C           -5.09335238708502        2.74018564327156        3.09644918510098
O           -5.74498150410541        2.79452559091290        2.06104172722604
O           -5.10600072023498        3.75595035125898        4.00292265978018
C           -5.93388082735173        4.72373395137940        3.58727977500514
O            0.84358187062831       -0.61434962139035        9.89917155403758
O            1.89971038488117       -2.62128704393558        9.55149763047300
C            2.40591500421355       -2.47529925002325       10.78458101896655
C           -1.24660065456229       -5.33376293385946        6.68081074424280
C            1.90513733572416       -3.74732464697723        4.20671483565005
H            2.42067242911761       -3.51906860167378       11.24667223490133
H            1.81613351755011       -1.80021596601646       11.38993029874877
H            3.47950755247626       -2.17143532635364       10.54398007048594
H           -5.55520468356132        5.07912785645652        2.64216583566370
H           -5.91987565721598        5.54462798123623        4.38102588805120
H           -6.95469411398883        4.28272220939583        3.52367793849715
H            2.79582086982954       -3.16115260274229        4.36662018782181
H            2.22029974933132       -4.39633786730969        3.40113846721353
H            1.71431140860053       -4.31011947652403        5.15171321054742
H           -2.08942354119842       -5.03168121575926        7.28387133331909
H           -0.49784746120496       -5.59295403455738        7.38682272745190
H           -1.45487882271222       -6.27006973538010        6.11761592917880
H           -1.40587521120329       -6.56769374421306       -2.08345350150256
H           -3.19534813637708       -6.73410489037253       -1.93940872696218
H           -2.18364807672784       -7.79149089284886       -0.91826073715576
116
 energy: -22.857348055273 gnorm: 0.411017620947 xtb: 6.6.1 (8d0f1dd)
C           -1.83258421775874        0.59745378654452       -0.48002944591928
C           -1.87003859003403        1.58433620938972        0.54397334262670
C           -0.65428177703340        1.67892901137128        1.34577387243635
C            0.24084897267283        0.56314879833752        1.37079887628204
C            0.22995564197747       -0.33627554981534        0.32707728626081
C           -0.78086069670895       -0.29268295116650       -0.55759461433056
C           -0.46823623716857        2.70644030736772        2.29317957770488
C            0.23531943564192        2.36999525600572        3.46783720119351
C            1.02747788087070        1.17498292957059        3.42614828307020
N            1.10364741956424        0.42317971137933        2.33911698383720
C           -1.04078593142670        4.01236462247416        2.25638120563613
C           -1.19471278149964        4.68884499097397        3.51523112961372
N           -0.63009161408733        4.31777330730861        4.67220542052042
C            0.19181572333733        3.22746434448853        4.58187860871446
C            0.94724338015354        2.82130688509035        5.72036288939456
C            1.75996145912672        1.71303033670011        5.67825578373981
C            1.73986096973088        0.88012052588517        4.54923547518154
C           -1.59494394767031        4.58813245022066        1.04722906221608
C           -2.31265252424224        5.81764061420822        1.15728698473452
C           -2.53752559259631        6.41060032941914        2.42158014266818
C           -1.94289195575414        5.87450420216153        3.53513431290482
O           -1.34561435464339        4.18018408520551       -0.29859639360298
O           -3.02955829220606        2.35531324897074        0.77771749780932
C           -0.86708376189180       -1.46715648990009       -1.47039564928759
C           -3.64370435499796        7.37511132889562        2.58627740481298
H            1.16140332571594       -0.94887149455493        0.18051970644614
H           -2.55774671287639        0.52166955926728       -1.28940777052788
H            2.38674263499510       -0.01522939182952        4.47907074489360
H            0.78411900354810        3.26105863389467        6.74144963435619
H           -2.31408303960509        6.24119664419103        4.51879286521544
H           -2.81242376756013        6.15632298365000        0.28612851684192
O           -1.73305803824562       -1.53020794729518       -2.40092939198961
O           -0.03699994674950       -2.48141625622731       -0.99720903418005
C           -0.42648271600608       -3.54369178508935       -1.77039364406550
C            2.61047403350783        1.21310885015340        6.74493830923221
O            3.37886509848190        0.29705975100951        6.34699458673540
O            2.52660607517856        1.89695003660737        7.89170178834489
C            3.16670199357378        1.24686549888811        8.89313663907357
O           -3.97774683609792        7.83647267607893        3.70539490555984
O           -4.33636788319167        7.55322377704339        1.38954099404258
C           -5.15017638397638        8.60695456704978        1.31205912501778
C            0.01701439214153        4.19437815501608       -0.52597326795043
C           -4.04652007391557        2.17780947607992       -0.21089798616027
H           -6.06514752326631        8.42604833232610        0.72853602890714
H           -4.51792860463207        9.20815403038909        0.63742788445080
H           -5.39507575301473        8.88038633595548        2.29497234513400
H            3.22487517257668        1.92067598206368        9.66574139430879
H            4.03824050503137        0.70901672502921        8.62972035423248
H            2.34611211791447        0.57833854978575        9.15128126403681
H           -3.82750651075037        2.68384904716339       -1.17424290093359
H           -4.86086765052216        2.65346067067867        0.35476089117935
H           -4.16879120902870        1.20371023483026       -0.21398946087415
H            0.25318500160556        5.14171528234571       -0.05320379803626
H            0.15060902337927        4.38200351653758       -1.57444589918143
H            0.51608564881120        3.37214782191083       -0.16980036328977
H            0.00631264873436       -3.35329535629847       -2.80702800448565
H           -1.56461021978804       -3.55690508172925       -1.81700385049223
H           -0.06193052135215       -4.43940925539044       -1.23375782815215
C            0.10016573725738       -4.73364502828779        2.42744947600911
C            0.00643480637964       -3.66772339672956        3.20238311429689
C           -1.14766209800580       -2.72797955646657        3.16364891695928
C           -1.97561594325512       -2.77773566995194        2.02301257884930
C           -1.87366062979838       -3.92243515611930        1.31700960699777
C           -0.92906406951136       -4.91067889031036        1.46854212532806
C           -1.34210470442356       -1.78433237789121        4.19563190649502
C           -2.32517105627100       -0.83905970020472        3.89017792102752
C           -3.04786615315996       -0.91525928519615        2.70789452959900
N           -2.92470938862908       -1.82035374922168        1.75140247944632
C           -0.67700068497250       -1.76864505925028        5.47553689267786
C           -0.72094737894201       -0.48875676030262        6.15666980388138
N           -1.39255638905398        0.62051735861515        5.74454776065993
C           -2.33748994804479        0.33433153056615        4.71830812319140
C           -3.25007103596462        1.38664353730223        4.29914729993428
C           -4.04672065668349        1.27015194694025        3.21091483245534
C           -3.96710285020345        0.12024169786775        2.44712793626835
C           -0.47026112422367       -2.99678582921172        6.24027932086996
C           -0.15602172127015       -2.80257576944652        7.55572928946269
C            0.01735402169534       -1.57160756825072        8.09383503669278
C           -0.06407383535764       -0.44701753813730        7.38230914025850
O           -0.68455463555892       -4.25836989551853        5.67624114682549
O            1.01668504108925       -3.41299523175513        4.11932205723686
C           -1.02086602658877       -6.08143678161586        0.59297752244360
C            0.34882902889158       -1.62207987062807        9.55797173124089
H           -2.80181621199915       -4.05611381349401        0.70023153771667
H            0.94198132811916       -5.36176308928235        2.57862524965784
H           -4.75837613723331       -0.00825689890744        1.74093862088207
H           -3.20635812986769        2.31754834686115        4.75973292267447
H            0.08191017265878        0.51708419356404        7.87767195362806
H           -0.14532441866408       -3.72476525088045        8.16934608600305
O           -0.02745071446351       -6.52858712804338       -0.02205664109804
O           -2.29664912605987       -6.43217258231291        0.46236319081789
C           -2.39559183571356       -7.61692728083335       -0.23143603683389
C           -4.93292199109594        2.46093571917646        2.90457036169388
O           -5.71682043246006        2.42462948288627        1.97148323627928
O           -4.86386015764383        3.51098056153585        3.83060318292994
C           -5.70382922682159        4.52973766278683        3.51043061031774
O            0.68916182541160       -0.57393894390303       10.01581531940234
O            0.21171517037230       -2.77865831702492       10.22520521706189
C            0.41820984883698       -2.56345054451056       11.50635046193166
C           -1.37668002410944       -5.21476073504047        6.49585305561167
C            2.28019289039766       -3.93766708873870        3.95118893566952
H            0.58743749696774       -3.45658602448815       11.96183314289876
H           -0.56093192594905       -2.14672099262753       11.83667571333845
H            1.28358729575980       -1.90003842794813       11.72531824950217
H           -4.97384274467710        5.18207253174356        2.83608368355187
H           -5.99310695606472        5.00932616194670        4.43286655715287
H           -6.66587479094390        4.29594258839001        2.88836837903086
H            3.06364696647324       -3.30215073892593        4.52795807162485
H            2.59527592901056       -3.96455530250984        2.89133225240482
H            2.34548586927333       -5.05585345707894        4.29734279277153
H           -0.64552807631718       -5.58847079943415        7.32511615483608
H           -2.19323652452113       -5.79810019273965        5.90833995294065
H           -2.04233439614503       -4.55441436868555        7.07136481617675
H           -2.21411239166095       -7.33394104817160       -1.29236411144141
H           -3.30338294361084       -8.06053070587611       -0.10801080198499
H           -1.72772975826795       -8.35757306076522        0.12029768040699
116
 energy: -22.883155147002 gnorm: 0.400483292294 xtb: 6.6.1 (8d0f1dd)
C           -1.88796374155176        0.09682229309470       -0.72014280497366
C           -1.85993090305738        1.12479436022288        0.22200893370620
C           -0.78986160724048        1.27865852036910        1.20297690449177
C            0.09923415017377        0.16242986895454        1.20454608202600
C            0.15454760580872       -0.70934546152919        0.13556975142905
C           -0.80332959900356       -0.76606623288236       -0.85864332224282
C           -0.76044378692723        2.23729032109875        2.21189991071199
C           -0.03209466046242        1.77281023452582        3.43839824229080
C            0.80306652110813        0.62845024021340        3.34169250323482
N            0.96393684970647       -0.09866856798202        2.20578446066774
C           -1.23193077821888        3.57238294683227        2.06595594516107
C           -1.43295570446910        4.22111075530073        3.32751939248978
N           -0.82314566842817        3.73051422884512        4.46393539882816
C           -0.07485080773422        2.61911789149599        4.53256393339569
C            0.50273212654592        2.16682557241302        5.72512093155095
C            1.26486011003121        0.99390843113671        5.72377962576357
C            1.31534706568406        0.16726028779381        4.58051956783652
C           -1.49626820495926        4.35424007628136        0.88959714681661
C           -2.15027136000274        5.51088406416362        1.03338381548782
C           -2.62951720514847        5.90518729291966        2.29900519456563
C           -2.04920863068282        5.47372180626457        3.45678070922663
O           -1.09683538613307        3.98757238999524       -0.45044300381118
O           -2.79167077420651        2.17404598191721        0.17830987124001
C           -0.94515669298968       -1.95870030467691       -1.72236434070746
C           -3.57548028468621        7.03890513962993        2.32705622609130
H            0.93084099798840       -1.41596919967612        0.11425042515934
H           -2.83772652791842       -0.08590732448048       -1.31331564689475
H            1.57194173381112       -0.92005592736983        4.60576143229296
H            0.43515986145484        2.78870813904528        6.68469964033273
H           -2.28979865455322        5.96039731666810        4.38424672185740
H           -2.13823022265210        6.24760865353446        0.24295085331584
O           -1.95325062351731       -2.14993407183239       -2.29640364605454
O            0.06318450149817       -2.81372905895694       -1.66784470166253
C           -0.34381268246105       -4.05375292858640       -2.25736859429447
C            2.05082455319739        0.69506437904587        6.98711814116516
O            2.56602389796262       -0.36638870774016        7.17783030808747
O            2.02917429682793        1.79699200067085        7.89164396580188
C            2.48095130209826        1.20898253279110        9.10053518876857
O           -4.28267471623136        7.14730916493990        3.26287784572173
O           -3.56743863176141        7.94333796842914        1.27905907103803
C           -4.63110194661244        8.82503786223402        1.40515292553919
C            0.20715848956345        3.38290597451563       -0.69452874167973
C           -3.70223839288933        2.09656920767485       -0.97056619844635
H           -4.18187330993256        9.62259473157508        2.02676335971585
H           -5.44751122781442        8.16995709717765        1.82063435437948
H           -4.80350491883025        9.41439946630653        0.50431329056339
H            1.80083373342422        1.51286902503952        9.97951078615926
H            3.51846538267998        1.57692025473256        9.23101032911862
H            2.56808358735813        0.08094721816744        9.15646636161669
H           -3.16747090156385        2.28169201068708       -1.89712068195352
H           -4.32185489428380        2.98280904631268       -0.76998563159390
H           -4.24861695146024        1.26066234271224       -1.04110415434327
H            0.54120832607332        3.69717994313539       -1.70648609031283
H            0.44008538021020        2.29919449251935       -0.63166796729751
H            0.89081065110432        3.96315838715184       -0.07250674409407
H           -0.52643273868667       -4.01415701503926       -3.28972085062718
H           -1.30367359794875       -4.32650533442770       -1.83295574382569
H            0.35193048919317       -4.87119533577673       -2.06603660874649
C           -0.03576041341046       -4.22906350011812        2.42381382070966
C           -0.00199453210432       -3.21585186701857        3.32548463968943
C           -1.12478208357842       -2.28113408342365        3.31327795356032
C           -1.88206940928057       -2.17460896308006        2.11015778931600
C           -1.73217037986667       -3.14887473526337        1.12912942167166
C           -0.87352476225232       -4.24669588308309        1.27071634168080
C           -1.43114673644758       -1.41267705695477        4.43434516648719
C           -2.46339608803294       -0.52990928913631        4.17215026593201
C           -3.03377149739677       -0.35301922681957        2.90711287969148
N           -2.85324093364686       -1.17766981726098        1.93283994676943
C           -0.99493911645805       -1.45485161834588        5.89380434562749
C           -1.31235456787079       -0.41909938424074        6.75769117988724
N           -2.11112298814834        0.64411812448641        6.38657410053530
C           -2.79029937245697        0.45550423580371        5.23987994946341
C           -3.63783978964752        1.53380233357143        4.89625044207564
C           -4.13936133533298        1.67794096755685        3.61691811998686
C           -3.89435812974018        0.71178807960182        2.65748183186693
C           -0.39764855178060       -2.54893325398102        6.49341079722994
C            0.19167624237811       -2.51409958578957        7.81520738543902
C           -0.11057908391404       -1.47724442602619        8.66259424907901
C           -0.88269341365620       -0.47105554302958        8.12127866553898
O           -0.59072477550356       -3.76040476103452        5.81751063714113
O            1.13278816122933       -2.86662447502401        4.15579809223947
C           -1.00242910067914       -5.49252256222895        0.42682214010039
C            0.46165531947002       -1.42072919769237       10.04008969923197
H           -2.26271655372454       -2.98386464466492        0.14313748415545
H            0.60924917058779       -5.02546393587390        2.66707244307764
H           -4.38547400715859        0.83381296575103        1.67387260632476
H           -3.94572679089415        2.23810488287819        5.66042982644017
H           -1.24964182054140        0.34373384638303        8.80852088676518
H            0.86968771663921       -3.32167993412647        8.07224830383076
O           -0.09895622190301       -6.24425160185820        0.45927526531390
O           -2.21485879736858       -5.64609453122618       -0.29404741732013
C           -2.13632177020691       -6.77097238727492       -1.15398205518858
C           -4.94045557425826        2.86550841914033        3.21607061029329
O           -5.18288104783008        3.16634449940550        2.08847817987761
O           -5.44051838941479        3.57189266364798        4.28357050477348
C           -6.02469223757493        4.85402005784102        3.90437968382247
O            0.36379628963398       -0.41589534466002       10.77432471677100
O            1.07463467713709       -2.60486981353995       10.38386175648355
C            1.84039984522883       -2.46153496513730       11.48816541408007
C            0.07901392306388       -4.92088664570833        6.30959446155178
C            2.24932056248809       -3.29777302123431        3.57656029702025
H            2.06854279315320       -3.34482357461494       11.96478937885997
H            1.39598331431447       -1.75528181593967       12.16807058267893
H            2.70908953885671       -1.92794305332720       11.09648627779075
H           -5.33941194803605        5.57958642333534        3.61779563565202
H           -6.59115571698202        5.17931668699172        4.70457979331274
H           -6.66989407131486        4.87822142534268        3.01744387927129
H            3.19281096939214       -2.66005472226012        3.92495310869573
H            2.05941870567669       -3.25736808896760        2.51689663490177
H            2.46075306864414       -4.33131557153011        3.95737360236054
H            1.13106897368716       -4.61980883764036        6.12956131880271
H           -0.39566031860135       -5.91187732478334        5.88811783884748
H           -0.01781994772539       -5.12335626413203        7.38654783088005
H           -2.03989578602024       -6.42580313178984       -2.15215778022147
H           -2.96476100383216       -7.44691404610720       -1.06796416416725
H           -1.27572680872977       -7.47543618754473       -0.85562418480343
116
 energy: -22.884852232150 gnorm: 0.389740224858 xtb: 6.6.1 (8d0f1dd)
C           -1.50911605073769       -0.14921687403266       -0.99312639574287
C           -1.81984690017230        0.63230324528237        0.08276040429667
C           -0.73323622701547        0.75773240609902        1.04000650292209
C            0.36102174859515       -0.18563152741345        1.14883498765253
C            0.52924135190786       -0.89107062029617       -0.05055413053213
C           -0.31288078213363       -0.85672081385086       -1.12318224727345
C           -0.69466382493278        1.87493445708649        1.98313713552517
C            0.01572185906950        1.62065938443235        3.11828206764075
C            0.75868659867446        0.42751562244791        3.31326582167560
N            1.05126156575140       -0.38416598943097        2.26256070080503
C           -1.19738746839892        3.20322960293735        1.85261114060226
C           -1.55374004287257        3.84107356511760        3.08619287522652
N           -1.14645937641373        3.43927224037212        4.29154534095301
C           -0.29587634218989        2.37230947866770        4.31692103941063
C            0.38341209459429        2.21432618973324        5.49810286017658
C            1.19174522286759        1.09174884888394        5.66916150037858
C            1.30308664596534        0.21047065493295        4.58370171524119
C           -1.51220692921389        3.91013661813253        0.63453348530779
C           -2.25689877247875        5.14006976768153        0.71444496459671
C           -2.66014175958120        5.74606590785574        1.86583628215636
C           -2.26003948622977        5.08004140884768        3.05606803090802
O           -1.17382813444666        3.42989331522165       -0.66470944307442
O           -3.10610143171783        1.25908127067147        0.32979071008707
C           -0.18272230330281       -1.79433951790989       -2.30743299050467
C           -3.46251298500773        6.95562111782431        1.91764137364271
H            1.45112868382630       -1.51242935682539       -0.10478613705756
H           -2.28198303593997       -0.47265358172487       -1.69584498841738
H            1.73739389763147       -0.72717910030131        4.93273132362332
H            0.26906695200901        2.90433695295786        6.36802663570524
H           -2.73188008791526        5.30603766522999        3.98655396539376
H           -2.65155927906785        5.52578987836678       -0.21568245854325
O           -1.02032858521164       -1.88883737358431       -3.18130338275410