116
 energy: -22.928061455056 gnorm: 0.329736929581 xtb: 6.6.1 (8d0f1dd)
C           -3.31122850772930        0.79849766164622       -0.92477639677520
C           -2.44380812530352       -0.12270372891954       -0.27661132624697
C           -1.41337090092821        0.39579727573559        0.56335275196199
C           -0.89266158675590        1.65801491088749        0.27377586709581
C           -1.72665675402493        2.51431363229076       -0.49448366572522
C           -2.95444148494349        2.13954154133227       -1.01494489940871
C           -0.74098268209890       -0.43411532818871        1.49825021926784
C            0.56872586496315        0.03782116815119        1.86248088067890
C            1.03782416582094        1.29402317993033        1.50887470833621
N            0.31238977034758        2.07067427098208        0.65193736800696
C           -1.29695700510141       -1.39996043042223        2.41574187746061
C           -0.38243517664656       -2.18060797534842        3.13232615520648
N            0.91308504082021       -1.90366887689689        3.30325166013478
C            1.37712470144904       -0.74872102533751        2.81811050966982
C            2.52149331701875       -0.17739833758153        3.39379298866852
C            2.95849061756259        1.02681208890480        2.95105897606587
C            2.24288949469137        1.78498308775960        2.03503020483770
C           -2.74860936222260       -1.74497937691422        2.38401158947411
C           -3.09416315450955       -2.91614440870436        3.00571134491758
C           -2.16786021984049       -3.77788778654213        3.63251872101904
C           -0.85708937311598       -3.40495313382985        3.68547234358092
O           -3.71994433332149       -0.94984598373544        1.67726658385724
O           -2.55702603277562       -1.47241711578389       -0.57241635275616
C           -3.84297843593025        3.13357444054366       -1.60938954875544
C           -2.68769581069131       -5.03867041417370        4.30484659386931
H           -1.39666850744143        3.51251503834900       -0.76806311868865
H           -4.27662633836220        0.55105838579656       -1.33106614114542
H            2.66329581305412        2.73912661909249        1.72562431984580
H            3.05775395548473       -0.69369546277216        4.16536137542516
H           -0.24710966264510       -4.12034095424229        4.22946223699121
H           -4.11477991332403       -3.04712728052358        3.03244694615357
O           -4.21824883374556        4.03433712717988       -0.87713382485991
O           -4.44510595673734        2.90643496899600       -2.81853501752979
C           -5.44216520282800        3.83300025693726       -3.02488532025093
C            4.23586651889298        1.50004220933226        3.59165660008449
O            5.05927614697201        0.66079890002952        3.91714215179376
O            4.47001334453535        2.86385149488593        3.72605651435371
C            5.79457498613219        3.08584475587818        4.15829123132174
O           -3.82227255313510       -5.27347675879771        4.16636005494405
O           -1.85023202017753       -5.79767454267276        5.06656077253571
C           -2.55119635829503       -6.86252441382958        5.62930343183426
C           -5.07197156564436       -1.42399175670916        1.58830531863830
C           -1.33089900128490       -2.23622472573986       -0.99264499351172
H           -2.54510546830388       -7.76426885143998        4.99136022291012
H           -3.57194749219491       -6.44405511486021        5.74196173723541
H           -2.09133598235598       -7.02043774843818        6.64022264233588
H            5.72707967266424        3.46798026205549        5.10135971236643
H            6.34060091246885        3.78468702308830        3.50069950143490
H            6.17933064298187        2.03010500085905        4.19342358084693
H           -0.91862729772622       -2.57650129080332       -0.01361370304871
H           -0.49769766914251       -1.60651221708571       -1.34094446550576
H           -1.52632419730509       -2.94569707152159       -1.75361447637286
H           -5.11788846557077       -2.41810833635233        1.17520213188926
H           -5.67929807973498       -0.69619639428435        1.04301666067831
H           -5.57598832326623       -1.42383358739762        2.57928294206544
H           -6.13050215934830        3.76035386975488       -2.23272855695873
H           -5.86615610071888        3.45938329385866       -4.02668959924245
H           -5.13479557532099        4.87790991548477       -2.98314551356402
C           -1.38192942069774        3.73616555005018        2.91232598411686
C           -1.84821468128685        2.59982427735607        3.49755545445181
C           -1.05946531454833        2.05730632010638        4.60922730982276
C            0.19893954712228        2.69376791964407        4.86302140881997
C            0.50425395911860        3.94630308659851        4.28768785650746
C           -0.26031777722226        4.46998310053134        3.25072669343212
C           -1.20488993561782        0.74454293276906        5.14851520323437
C           -0.06287609782692        0.02744069315890        5.60930570802864
C            1.19208754369866        0.71421540266195        5.78882868583885
N            1.19428660993148        2.06344359410476        5.62744624321596
C           -2.41361422770794        0.07928500213936        5.25249410304426
C           -2.45851584031083       -1.32662100968547        5.60237876023992
N           -1.29466212405906       -1.98318595734370        5.89916817085159
C           -0.14475655767527       -1.32117560077092        5.98824682881008
C            0.97209270935794       -1.98958449505532        6.53157704134458
C            2.21982707914082       -1.36973967291181        6.68703967237737
C            2.30561929262884       -0.09745313075593        6.26436900324455
C           -3.73018485967715        0.71367583494582        5.25810242262992
C           -4.89964478833448       -0.06184623426677        5.21204641615509
C           -4.82617965800088       -1.39228978090841        5.46901303780036
C           -3.67144193418464       -1.98914944386360        5.67265433266067
O           -3.75568638935321        2.07705011038914        5.52067969627343
O           -2.94192434743730        1.91263938797883        3.01658762327703
C            0.21273512614467        5.50086066357994        2.34765104514621
C           -6.06660304520411       -2.17604633098929        5.80641622556876
H            1.41756699010566        4.38133362238595        4.66974005703471
H           -1.82880610647429        4.11982501512100        2.06992133318584
H            3.26888037378556        0.32655662585251        6.31721410015598
H            0.87146188387207       -3.08471526305024        6.57830423410869
H           -3.67716811065157       -3.05999292755990        5.83019634570050
H           -5.77379677507622        0.43595144608221        4.71017130754348
O            1.34459852619901        5.82615848916894        2.44941456579099
O           -0.74718748219123        6.07961784856304        1.59848183464284
C           -0.21473095568964        7.24015934882472        1.05753806029483
C            3.53228080814219       -2.00967610361154        7.02506769044485
O            3.64093082622715       -3.14437803815732        7.50071391725347
O            4.56565258381079       -1.22937033368332        6.69086985080897
C            5.72579357310716       -1.80692399125161        7.22246151275881
O           -7.04801223588612       -1.95726935745904        5.14194115322235
O           -6.01514389321278       -2.93743591896022        6.94765316328794
C           -7.21292732384718       -3.62681918543340        7.15115816329978
C           -4.95459780685163        2.65960679932188        5.86868674392943
C           -3.68284113682406        2.59129188358641        2.05479246020704
H           -7.43119628931628       -4.22607794725959        6.20622607140901
H           -8.06548455146707       -2.91765848248592        7.29781126410398
H           -7.07314693247270       -4.33087306029711        7.91223421050944
H            6.57332189837178       -1.29353136199234        6.78341268688262
H            5.74663761932316       -2.84282155125561        6.88089468184451
H            5.69426191474290       -1.72781984964892        8.29460302186842
H           -4.10481209541493        3.44288266176275        2.60483747673152
H           -4.49244774344916        1.87419893016926        1.82433103764650
H           -3.18901540870812        2.85154642679373        1.06781919454921
H           -5.55414326821421        2.76698137191684        4.93950725322359
H           -4.78658370641210        3.62090640967288        6.25983200635257
H           -5.43485580473958        1.97242995129449        6.65265772412460
H            0.89164886030839        7.38838561720231        1.13776105146914
H           -0.62894889903848        8.04195665205089        1.64837664327952
H           -0.59282546386754        7.45699159724320        0.03719083132488
116
 energy: -22.528489513292 gnorm: 0.612200755980 xtb: 6.6.1 (8d0f1dd)
C           -2.62334305614133        1.30584476773374       -1.05020936264285
C           -1.76341794686127        0.23683492387538       -0.68136932715645
C           -0.73537587091093        0.32720483158336        0.23184531726950
C           -0.07761415554993        1.67781582749862        0.16516319494643
C           -1.05634370027702        2.72292924294494        0.00656139380341
C           -2.29725462791201        2.53132608683159       -0.52685661973737
C           -0.20758418239978       -0.71958248024431        1.02900443383772
C            1.11068650236201       -0.35975699528679        1.37888523410552
C            1.75867070706263        1.00474381412548        1.26997246731677
N            1.16276677842819        2.04565931790554        0.64441510813782
C           -0.82977414411415       -1.97929366005231        1.58653803243545
C            0.18125751176727       -2.67713989230304        2.34425142296376
N            1.59145546944318       -2.72049061632837        2.11536907134171
C            2.04388035215566       -1.44772053576694        1.78700431111928
C            3.48495232970718       -1.11546767764072        1.87262194853396
C            3.92839696676840        0.18167873728503        2.08656662319877
C            3.08792837425564        1.14100791511210        1.68424812496035
C           -2.21979403520700       -2.27094931197430        1.55926487136282
C           -2.59780793673206       -3.31151854881122        2.49815807210780
C           -1.66134791781725       -3.79790694695450        3.43410725029331
C           -0.25811806283479       -3.62572086202597        3.25493601623730
O           -3.39205676731113       -1.52582696721287        1.05895724688365
O           -2.00829578512133       -0.92666579231075       -1.55094967413997
C           -3.25646983565232        3.58956196255946       -0.88081055104784
C           -2.01026877699433       -4.44002449190293        4.68749465621894
H           -0.81257626244244        3.71302551566300        0.21677816277722
H           -3.37186841759981        1.13685380325254       -1.88418401863979
H            3.43963150209089        2.12904386624770        1.90466097028548
H            4.11721969239366       -1.86875494678107        2.14018396456391
H            0.49784946352798       -4.30149504282481        3.50974087292502
H           -3.63486805297003       -3.27198137133253        2.59770523440779
O           -3.88795666582059        4.22922917767646       -0.10326818722645
O           -3.60275111136147        3.64430779035345       -2.24682884416262
C           -4.84445381232529        4.33186170817580       -2.53545965915423
C            5.18335152588178        0.31665084566954        2.75820192371288
O            5.87841069212874       -0.66727025204108        2.68572273444638
O            5.29207918441136        1.44395243723073        3.43815493107934
C            6.26287258587415        1.45382104070407        4.51866071001839
O           -3.21971600563402       -4.79453478110989        4.83491456563133
O           -0.99648089851234       -4.81763117375867        5.49422100064966
C           -1.22984249051752       -5.11855400678138        6.87606788578306
C           -4.20980459073275       -2.17439403469431        0.14761729538803
C           -0.93892128725145       -1.65645785583013       -1.76835401146308
H           -0.83847625368295       -4.08332100674509        7.29713489656082
H           -0.80263176461058       -6.01074951519680        7.32734853953503
H           -2.38729774084230       -4.89362090785480        7.13220990061477
H            6.36476338783898        2.33975323120241        4.90603478056269
H            7.17527539123737        1.37995236058938        3.95474352994013
H            6.19574633846304        0.45882526156113        5.06197024349978
H           -0.03150348643328       -1.11967642822978       -2.40588485052328
H           -1.02060068954182       -2.28345203152555       -2.68311107069354
H           -0.95328007235301       -2.27814849534550       -0.86044184039363
H           -5.13611617352756       -2.36095202289480        0.50855340849008
H           -3.78614752253057       -3.21170134311786       -0.22704217110011
H           -4.47417580101042       -1.65703693371747       -0.76334471970013
H           -5.65698135003296        3.72001080142875       -2.10815972717257
H           -5.28027074210132        4.78757439854362       -3.32098115767862
H           -5.00045315105186        5.12452787431935       -1.66139433186824
C           -2.44703613416505        4.02012063479625        3.50520568593313
C           -2.68049476604380        2.84640153963624        4.19780438387170
C           -1.78520517731580        2.35155029679413        5.20736477979258
C           -0.55048189065281        2.86900284671966        5.02534403296287
C           -0.32607704918533        3.84877159823780        4.16571122759251
C           -1.16945838492038        4.59258952839542        3.34982253507109
C           -1.86571958344479        1.19066287712366        6.06622691145512
C           -0.61794583436461        0.41330839919495        6.05094214556950
C            0.59981945982226        0.88899015066735        5.49831964890604
N            0.62890605825604        2.14422026642304        5.15691121649478
C           -3.19045145882590        0.46009917024104        6.21132307331684
C           -3.04268394914114       -0.89714770680095        6.40239791790435
N           -1.84289520444181       -1.50253055065683        6.61144861528396
C           -0.60164944853482       -0.83278763422435        6.60242758262272
C            0.57037228795509       -1.56421129121215        6.63987906231692
C            1.79771102692181       -1.18824186849360        6.21751489917995
C            1.75794226819712        0.00238197403945        5.34469499642638
C           -4.45590964755731        1.15406085755237        6.32525457001861
C           -5.54655127187702        0.30607266028118        6.23785087476934
C           -5.38456601040609       -1.07045786293155        6.22055363971946
C           -4.18097763132458       -1.65861397462790        6.61788335887131
O           -4.44321024350259        2.50140216439481        6.68567092389547
O           -3.71372813621076        1.99672871355629        3.80315305956040
C           -0.86053822637101        5.73867818344706        2.38178378900465
C           -6.67804878617642       -1.82429257365284        6.23734679116107
H            0.68300160314286        4.27157887816252        4.24618446932728
H           -3.40633416721112        4.40414556691698        2.84095943126391
H            2.44028177847411        0.22407556967699        4.49075756913833
H            0.49486846370765       -2.65561207758440        7.00789702155167
H           -4.15156511651129       -2.66727608579194        6.72349117705934
H           -6.57413653185226        0.69692372377918        6.31064413423171
O           -0.37194541341622        6.88537468839907        2.81023530111934
O           -1.38106898700500        5.52015585075151        1.13616087335621
C           -1.91203584150183        6.81060659297779        0.87324936917691
C            2.93680109032676       -1.90950479539060        6.52834756342225
O            2.91001318375249       -2.74856292865878        7.39348692358225
O            4.08732831321457       -1.44313336385204        5.93907444002336
C            5.11926909057621       -2.28862226589876        6.27731631010716
O           -7.77349794601402       -1.35119025202831        5.94851844899998
O           -6.54880176077141       -3.04714035853208        7.00448626338093
C           -7.49936305963514       -3.91996165553185        7.47136658280748
C           -5.57035912575120        3.17381456381484        6.66602094930990
C           -3.68341887526149        1.59762057704393        2.39783600234558
H           -7.27214643698717       -4.96181899721035        7.57244735293077
H           -8.38267468204749       -3.68183675175618        6.88812957422419
H           -7.81887699721891       -3.44073144864957        8.33860569037033
H            5.84944301411483       -1.87051598421058        6.90318865856227
H            5.73935011261288       -2.65673441699978        5.35865349450833
H            4.91567164698007       -3.20530894020193        6.64319423413492
H           -3.77085917576670        0.39871125730903        2.42994409280251
H           -2.59618672964879        1.90879393398748        2.17940379819345
H           -4.59484305049692        2.10896292644647        1.92282148576905
H           -5.96967423622452        3.14660608703849        5.54502018287905
H           -5.27640060065289        4.14788973517577        6.80068292186560
H           -6.44704648783703        2.87139406914449        7.42685880584397
H           -2.52291805371017        6.69597841663193        0.01381800943621
H           -1.04289281008762        7.31458138532379        0.39035068295723
H           -2.44531667038961        7.43333001667317        1.69886744504263
116
 energy: -22.594351654681 gnorm: 0.591502818359 xtb: 6.6.1 (8d0f1dd)
C           -2.65155858232773        0.73399916192081       -0.64704197448748
C           -1.73819177491090       -0.30034211084588       -0.37310473871660
C           -0.74750690568873        0.17342440224502        0.52047520827498
C           -0.36280694660642        1.55141751166574        0.48359250601238
C           -1.30885358364089        2.54774848014780        0.11560768714957
C           -2.44070463369221        2.10119296321398       -0.61293453646576
C            0.01427051802609       -0.69648069299306        1.28093358524983
C            1.32497298005154       -0.21444101001777        1.59040257026849
C            1.78002256296315        1.07377276464358        1.14100208029992
N            0.98367414294197        2.00511251495585        0.50173630675790
C           -0.47608731325597       -1.83624277730650        2.11917545716860
C            0.54192881410917       -2.70618715356100        2.58362732864397
N            1.86049823534845       -2.43699307510473        2.42596485157578
C            2.31766338435908       -1.17474183379007        2.09503392875230
C            3.70373028452955       -0.80618004848272        2.50308223094495
C            4.11437905378487        0.48688010346746        2.06843042819131
C            3.14744527797023        1.29247866196423        1.45563692536830
C           -1.88435836586457       -2.00260938459372        2.53221805469162
C           -2.15374773482633       -3.21906199849784        3.13852568587251
C           -1.22696047105378       -4.06679573970343        3.66206400338688
C            0.05755006443433       -3.77029487581932        3.40096464938009
O           -2.93206453517765       -1.16030056742218        2.29343020875896
O           -1.94929893541493       -1.50050932163649       -0.90425037957228
C           -3.36586758927114        3.08677612977477       -1.33926234766826
C           -1.63972949215501       -5.52147963530907        4.15619077357898
H           -0.57178968321940        3.39877965033292       -0.01845500523770
H           -3.56035145316295        0.42357826529270       -1.24291228165176
H            3.43160052139788        2.23132211783418        1.17665317805868
H            4.34298738778029       -1.50064220503772        2.96088081209225
H            0.82477186435673       -4.46647149844384        3.69601962758352
H           -3.08895932986969       -3.50545763051058        3.56944892441705
O           -2.87909071420663        4.13192749103987       -1.53468760019614
O           -4.28396401457263        2.28323143778451       -2.11402615005271
C           -4.82626141174397        2.80233527148978       -3.22660878045766
C            5.51272270853556        0.83847308073728        1.99868865263080
O            5.84731840063213        1.85092484369784        1.41393806365549
O            6.25689825896537        0.12965553353282        2.84433093274801
C            7.17233170396146        0.92120295505228        3.65631757939306
O           -2.58677161965368       -5.97978859562797        3.58963395101332
O           -0.82715296649948       -6.19984415308426        5.03787468125431
C           -1.28268899449933       -7.22384175311034        5.78015614552509
C           -3.88831860708669       -1.54873434564774        1.29441195697311
C           -0.80451550036633       -2.30921357028504       -0.89026579482028
H           -0.52052521363978       -7.17690093576631        6.74377187854396
H           -1.26125909139354       -8.28119924765225        5.25702992000629
H           -2.26683701095208       -7.13220516232740        6.15061147026362
H            7.52982308707750        0.22212986222557        4.21221264900870
H            6.65378824401430        1.54721072038637        4.17188276009361
H            7.91833408731548        1.32879936459248        2.95654908237153
H            0.00499326804752       -2.11776531588502       -1.47927412289290
H           -1.12414558475392       -3.34600975210314       -1.16061668147752
H           -0.59087916990380       -2.58392797195855        0.18431752525263
H           -4.99234071662289       -1.63574059064531        1.47753352943753
H           -3.59884610228436       -2.65256447117547        0.88842378921324
H           -3.71943293970769       -0.94661988850101        0.44660490265816
H           -5.14271012455813        3.83800891407800       -3.23840492790577
H           -5.55367452173278        2.17690443752901       -3.61790355428106
H           -3.80260230919690        2.60236860344659       -3.85464018070091
C           -2.84031743928966        4.16039177795282        3.23561108139325
C           -2.93889559885204        2.78128823924169        3.64502700878727
C           -1.82200226643721        2.22787267162298        4.33212012814777
C           -0.55447322485131        2.87051215615313        4.44586788195606
C           -0.44274430268487        4.13900720086574        3.82023504434477
C           -1.51511094077444        4.63520502591528        3.11839036203033
C           -2.00686909180499        1.15583926560316        5.24939413777785
C           -0.84444486261443        0.37760636738668        5.55834534519899
C            0.46739475958396        0.97190427786631        5.29971090452569
N            0.58975417599689        2.21584379293134        4.76854224508519
C           -3.25899328522612        0.73649036259144        5.83092038887378
C           -3.34397334639952       -0.69464139256535        6.13397667441305
N           -2.24154398664336       -1.47575042877703        6.54141497310045
C           -1.04982213723418       -0.91368631856899        6.28350480678863
C            0.15548869040921       -1.69820636105419        6.60999685117457
C            1.45927784140238       -1.18589143732301        6.32140929828901
C            1.49078214943020        0.06985485153419        5.69073180993856
C           -4.41512546345013        1.47833469354275        6.26000711838542
C           -5.64663693885217        0.81665402141897        6.49750382725707
C           -5.79626418776056       -0.58188774625146        6.50221134362923
C           -4.67510869150980       -1.34106475822531        6.30612541314255
O           -4.47511525849897        2.82936941739947        5.99473040221002
O           -4.22203672234316        2.45382329942502        3.36859807243974
C           -1.33540750550361        6.02104735596282        2.69486446717263
C           -6.99109288675943       -1.50378927337788        6.93376305635302
H            0.56513281239029        4.75452826759505        3.77589699150884
H           -3.52377050909603        4.67399646561752        2.79237379536790
H            2.34227219987348        0.44551757739501        5.42030912534338
H            0.11980577769062       -2.66928751193177        6.87184772198471
H           -4.74607577774815       -2.40341400963778        6.51504922147771
H           -6.48251283159116        1.42600806880829        6.68275879039602
O           -0.56742781240982        6.41358552716458        1.83128575153078
O           -2.24105910247401        7.02953256474541        3.18954539572149
C           -1.87493907347341        8.32492567361263        2.79257275493046
C            2.72318823029073       -2.04773593439841        6.50627735004612
O            2.84886727173877       -3.24172100370551        6.78262657248325
O            3.86578025543729       -1.20160617555243        6.39771886387110
C            5.24984519960999       -1.66599137263349        6.51722984027899
O           -7.02004856794242       -2.41319410548759        7.73333470485893
O           -8.21668960804238       -1.21221358941887        6.13375730089719
C           -9.22814203822233       -2.03532151988859        6.42250257211272
C           -3.58609251061853        3.80498513406711        6.71221672278048
C           -4.56303704778799        1.07034133682316        3.20340660235241
H           -9.49776966387760       -2.89299331297402        5.71319614434468
H           -9.91875940319566       -1.51766224414881        7.08728638027787
H           -8.74327042980517       -2.80857565300680        7.11196309057939
H            5.34160661130049       -2.06156747828990        7.56464671155140
H            5.79414074904293       -0.75235395076127        6.34528012502903
H            5.52482446076725       -2.25314713439556        5.74502154271043
H           -4.96437708483540        0.94507735577603        2.15447526392279
H           -5.23452968816794        0.65165946464831        3.94351907811103
H           -3.54805553208356        0.50718398521945        3.34588609323157
H           -4.14356730594806        4.36872466748609        7.53877273894803
H           -3.20652714935246        4.50679307835564        6.07146121577684
H           -2.86237489571759        3.31010034324874        7.34944519607306
H           -1.99719400599172        8.89773194114810        3.73637069165653
H           -2.60667643368550        8.83458406664657        2.05114431990880
H           -0.85200555916757        8.24439849152383        2.51573385311305
116
 energy: -22.565250911043 gnorm: 0.543738700695 xtb: 6.6.1 (8d0f1dd)
C           -2.55083865730726        0.02834795363138       -0.95635889359207
C           -1.71377285216099       -0.88675045331924       -0.37874714889325
C           -0.73575600715641       -0.43202715563799        0.55676707374196
C           -0.59442348269923        1.01729799183342        0.70084437511058
C           -1.57027639237010        1.92090783804272        0.20206694025105
C           -2.60733233853841        1.42361764466455       -0.63585474227289
C            0.22193460943086       -1.28949902093144        1.22280576628071
C            1.34502998066241       -0.55012463405662        1.70637335082497
C            1.30942690576031        0.85872854414309        1.62482213646351
N            0.36592838530890        1.68212358131042        1.44175656348428
C           -0.06285111275942       -2.56462305455748        1.94168875452592
C            1.11811183220638       -3.37526244153699        2.40198463881076
N            2.28031236905603       -2.64792969887698        2.46268038470365
C            2.39066325929909       -1.26547068847283        2.22167206951697
C            3.63262614236235       -0.59901990767311        2.53230881871199
C            3.47974173051085        0.85223190468611        2.63172574639622
C            2.24423542702412        1.51109732795663        2.34884511384934
C           -1.33736004565608       -3.28411608474584        2.00106457211643
C           -1.31452645444156       -4.73339943911404        2.27112032684373
C           -0.30279062574686       -5.34193943776205        2.97262712433902
C            0.84718300734346       -4.57210017751672        3.08855571863099
O           -2.54176194828973       -2.45060948043347        2.08366205701466
O           -1.78385581018879       -2.27505023441574       -0.72383374956113
C           -3.27172634924590        2.31906480316497       -1.67188343833599
C           -0.59144207875544       -6.46569975966393        3.93638712473698
H           -1.33115848507188        2.92355060818314        0.09302340749933
H           -3.38764823229455       -0.40758510921816       -1.57648278606912
H            2.09662970670569        2.55122916255486        2.42863979133469
H            4.45061849678040       -1.00042808458731        3.15532264448301
H            1.76814470149096       -5.03830138290821        3.58470676606961
H           -2.24423196090356       -5.29431164578568        2.22190473552067
O           -3.15899284231150        3.55412932449592       -1.64865348076890