      -----------------------------------------------------------      
     |                   =====================                   |     
     |                           x T B                           |     
     |                   =====================                   |     
     |                         S. Grimme                         |     
     |          Mulliken Center for Theoretical Chemistry        |     
     |                    University of Bonn                     |     
      -----------------------------------------------------------      

   * xtb version 6.6.1 (8d0f1dd) compiled by 'runner@Mac-1690902418499.local' on 2023-08-01

   xtb is free software: you can redistribute it and/or modify it under
   the terms of the GNU Lesser General Public License as published by
   the Free Software Foundation, either version 3 of the License, or
   (at your option) any later version.
   
   xtb is distributed in the hope that it will be useful,
   but WITHOUT ANY WARRANTY; without even the implied warranty of
   MERCHANTABILITY or FITNESS FOR A PARTICULAR PURPOSE.  See the
   GNU Lesser General Public License for more details.
   
   Cite this work as:
   * C. Bannwarth, E. Caldeweyher, S. Ehlert, A. Hansen, P. Pracht,
     J. Seibert, S. Spicher, S. Grimme, WIREs Comput. Mol. Sci., 2020, 11,
     e01493. DOI: 10.1002/wcms.1493
   
   for GFN2-xTB:
   * C. Bannwarth, S. Ehlert and S. Grimme., J. Chem. Theory Comput., 2019,
     15, 1652-1671. DOI: 10.1021/acs.jctc.8b01176
   for GFN1-xTB:
   * S. Grimme, C. Bannwarth, P. Shushkov, J. Chem. Theory Comput., 2017,
     13, 1989-2009. DOI: 10.1021/acs.jctc.7b00118
   for GFN0-xTB:
   * P. Pracht, E. Caldeweyher, S. Ehlert, S. Grimme, ChemRxiv, 2019, preprint.
     DOI: 10.26434/chemrxiv.8326202.v1
   for GFN-FF:
   * S. Spicher and S. Grimme, Angew. Chem. Int. Ed., 2020, 59, 15665-15673.
     DOI: 10.1002/anie.202004239
   
   for ALPB and GBSA implicit solvation:
   * S. Ehlert, M. Stahn, S. Spicher, S. Grimme, J. Chem. Theory Comput.,
     2021, 17, 4250-4261. DOI: 10.1021/acs.jctc.1c00471
   
   for DFT-D4:
   * E. Caldeweyher, C. Bannwarth and S. Grimme, J. Chem. Phys., 2017,
     147, 034112. DOI: 10.1063/1.4993215
   * E. Caldeweyher, S. Ehlert, A. Hansen, H. Neugebauer, S. Spicher,
     C. Bannwarth and S. Grimme, J. Chem. Phys., 2019, 150, 154122.
     DOI: 10.1063/1.5090222
   * E. Caldeweyher, J.-M. Mewes, S. Ehlert and S. Grimme, Phys. Chem. Chem. Phys.
     2020, 22, 8499-8512. DOI: 10.1039/D0CP00502A
   
   for sTDA-xTB:
   * S. Grimme and C. Bannwarth, J. Chem. Phys., 2016, 145, 054103.
     DOI: 10.1063/1.4959605
   
   in the mass-spec context:
   * V. Asgeirsson, C. Bauer and S. Grimme, Chem. Sci., 2017, 8, 4879.
     DOI: 10.1039/c7sc00601b
   * J. Koopman and S. Grimme, ACS Omega 2019, 4, 12, 15120-15133.
     DOI: 10.1021/acsomega.9b02011
   
   for metadynamics refer to:
   * S. Grimme, J. Chem. Theory Comput., 2019, 155, 2847-2862
     DOI: 10.1021/acs.jctc.9b00143
   
   for SPH calculations refer to:
   * S. Spicher and S. Grimme, J. Chem. Theory Comput., 2021, 17, 1701-1714
     DOI: 10.1021/acs.jctc.0c01306
   
   with help from (in alphabetical order)
   P. Atkinson, C. Bannwarth, F. Bohle, G. Brandenburg, E. Caldeweyher
   M. Checinski, S. Dohm, S. Ehlert, S. Ehrlich, I. Gerasimov, C. Hölzer
   A. Katbashev, J. Koopman, C. Lavigne, S. Lehtola, F. März, M. Müller,
   F. Musil, H. Neugebauer, J. Pisarek, C. Plett, P. Pracht, F. Pultar,
   J. Seibert, P. Shushkov, S. Spicher, M. Stahn, M. Steiner, T. Strunk,
   J. Stückrath, T. Rose, and J. Unsleber
   
 * started run on 2024/11/14 at 10:37:39.425     

           -------------------------------------------------
          |                Calculation Setup                |
           -------------------------------------------------

          program call               : xtb Nitro2.mol --opt --gfn2 --chrg -1 --uhf 0 --tight
          coordinate file            : Nitro2.mol
          omp threads                :                     8

   ID    Z sym.   atoms
    1    6 C      1-26, 41, 43-48
    2    1 H      27-40, 42, 53-64
    3    7 N      49, 51
    4    8 O      50, 52
########################################################################
[WARNING] Please study the warnings concerning your input carefully
-2- prog_main: Charge in sdf/mol input was overwritten
-1- prog_main_parseArguments: Unknown option '--tight' provided
########################################################################

           -------------------------------------------------
          |                 G F N 2 - x T B                 |
           -------------------------------------------------

        Reference                      10.1021/acs.jctc.8b01176
      * Hamiltonian:
        H0-scaling (s, p, d)           1.850000    2.230000    2.230000
        zeta-weighting                 0.500000
      * Dispersion:
        s8                             2.700000
        a1                             0.520000
        a2                             5.000000
        s9                             5.000000
      * Repulsion:
        kExp                           1.500000    1.000000
        rExp                           1.000000
      * Coulomb:
        alpha                          2.000000
        third order                    shell-resolved
        anisotropic                    true
        a3                             3.000000
        a5                             4.000000
        cn-shift                       1.200000
        cn-exp                         4.000000
        max-rad                        5.000000

q/qsh data taken from xtbrestart
CAMM data taken from xtbrestart

          ...................................................
          :                      SETUP                      :
          :.................................................:
          :  # basis functions                 175          :
          :  # atomic orbitals                 175          :
          :  # shells                          101          :
          :  # electrons                       182          :
          :  max. iterations                   250          :
          :  Hamiltonian                  GFN2-xTB          :
          :  restarted?                       true          :
          :  GBSA solvation                  false          :
          :  PC potential                    false          :
          :  electronic temp.          300.0000000     K    :
          :  accuracy                    1.0000000          :
          :  -> integral cutoff          0.2500000E+02      :
          :  -> integral neglect         0.1000000E-07      :
          :  -> SCF convergence          0.1000000E-05 Eh   :
          :  -> wf. convergence          0.1000000E-03 e    :
          :  Broyden damping             0.4000000          :
          ...................................................

 iter      E             dE          RMSdq      gap      omega  full diag
   1   -100.0918427 -0.100092E+03  0.186E+00    1.59       0.0  T
   2    -99.6278912  0.463951E+00  0.212E+00    0.15       1.0  T
   3   -100.0905916 -0.462700E+00  0.121E+00    1.80       1.0  T
   4   -100.1208109 -0.302193E-01  0.825E-01    1.15       1.0  T
   5   -100.1326115 -0.118006E-01  0.597E-01    0.74       1.0  T
   6   -100.1597551 -0.271437E-01  0.324E-01    0.14       1.0  T
   7    -99.7544279  0.405327E+00  0.172E+00    0.12       1.0  T
   8   -100.1563251 -0.401897E+00  0.356E-01    0.17       1.0  T
   9   -100.1530895  0.323563E-02  0.379E-01    0.19       1.0  T
  10   -100.1566580 -0.356849E-02  0.334E-01    0.17       1.0  T
  11   -100.1683617 -0.117038E-01  0.168E-01    0.11       1.0  T
  12   -100.1705065 -0.214473E-02  0.114E-01    0.10       1.0  T
  13   -100.1714920 -0.985496E-03  0.778E-02    0.09       1.0  T
  14   -100.1722941 -0.802081E-03  0.209E-02    0.08       1.0  T
  15   -100.1723445 -0.504866E-04  0.927E-03    0.07       1.3  T
  16   -100.1723565 -0.119302E-04  0.126E-03    0.08       9.9  T
  17   -100.1723562  0.225504E-06  0.179E-03    0.07       7.0  T
  18   -100.1723567 -0.439089E-06  0.134E-04    0.08      93.2  T
  19   -100.1723567  0.782990E-09  0.141E-04    0.08      88.5  T

   *** convergence criteria satisfied after 19 iterations ***

         #    Occupation            Energy/Eh            Energy/eV
      -------------------------------------------------------------
         1        2.0000           -0.5846871             -15.9101
       ...           ...                  ...                  ...
        85        2.0000           -0.2769489              -7.5362
        86        2.0000           -0.2635540              -7.1717
        87        2.0000           -0.2595748              -7.0634
        88        2.0000           -0.2568449              -6.9891
        89        2.0000           -0.2415281              -6.5723
        90        2.0000           -0.2307848              -6.2800
        91        1.6190           -0.1715682              -4.6686 (HOMO)
        92        0.3753           -0.1688017              -4.5933 (LUMO)
        93        0.0056           -0.1646182              -4.4795
        94                         -0.1419754              -3.8633
        95                         -0.1385238              -3.7694
        96                         -0.1096690              -2.9842
       ...                                ...                  ...
       175                          0.8238667              22.4186
      -------------------------------------------------------------
                  HL-Gap            0.0027665 Eh            0.0753 eV
             Fermi-level           -0.1701937 Eh           -4.6312 eV

 SCC (total)                   0 d,  0 h,  0 min,  0.816 sec
 SCC setup                      ...        0 min,  0.000 sec (  0.017%)
 Dispersion                     ...        0 min,  0.000 sec (  0.060%)
 classical contributions        ...        0 min,  0.000 sec (  0.014%)
 integral evaluation            ...        0 min,  0.002 sec (  0.266%)
 iterations                     ...        0 min,  0.800 sec ( 98.080%)
 molecular gradient             ...        0 min,  0.010 sec (  1.237%)
 printout                       ...        0 min,  0.003 sec (  0.324%)

         :::::::::::::::::::::::::::::::::::::::::::::::::::::
         ::                     SUMMARY                     ::
         :::::::::::::::::::::::::::::::::::::::::::::::::::::
         :: total energy             -98.558585912688 Eh    ::
         :: gradient norm              0.218779876432 Eh/a0 ::
         :: HOMO-LUMO gap              0.075280852465 eV    ::
         ::.................................................::
         :: SCC energy              -100.172356686419 Eh    ::
         :: -> isotropic ES            0.162448725802 Eh    ::
         :: -> anisotropic ES          0.020843148289 Eh    ::
         :: -> anisotropic XC          0.036090189067 Eh    ::
         :: -> dispersion             -0.089399720874 Eh    ::
         :: repulsion energy           1.612551612556 Eh    ::
         :: add. restraining           0.000000000000 Eh    ::
         :: total charge              -1.000000844776 e     ::
         :::::::::::::::::::::::::::::::::::::::::::::::::::::

      ----------------------------------------------------------- 
     |                   =====================                   |
     |                        A N C O P T                        |
     |                   =====================                   |
     |               Approximate Normal Coordinate               |
     |                Rational Function Optimizer                |
      ----------------------------------------------------------- 

          ...................................................
          :                      SETUP                      :
          :.................................................:
          :   optimization level            normal          :
          :   max. optcycles                   200          :
          :   ANC micro-cycles                  20          :
          :   degrees of freedom               186          :
          :.................................................:
          :   RF solver                   davidson          :
          :   write xtbopt.log                true          :
          :   linear?                        false          :
          :   energy convergence         0.5000000E-05 Eh   :
          :   grad. convergence          0.1000000E-02 Eh/α :
          :   maxmium RF displ.          1.0000000          :
          :   Hlow (freq-cutoff)         0.1000000E-01      :
          :   Hmax (freq-cutoff)         5.0000000          :
          :   S6 in model hess.         20.0000000          :
          ...................................................

generating ANC from model Hessian ...
Using Lindh-Hessian (1995)
 Shifting diagonal of input Hessian by    9.9085208605691512E-003
 Lowest  eigenvalues of input Hessian
    0.000000    0.000000    0.000000    0.000000    0.000000    0.000000
    0.010000    0.010023    0.010284    0.010583    0.011089    0.011445
    0.011815    0.012012    0.012605    0.012741    0.013291    0.013966
 Highest eigenvalues
    2.004237    2.049036    2.082338    2.092006    2.200415    2.580589


........................................................................
.............................. CYCLE    1 ..............................
........................................................................

 iter      E             dE          RMSdq      gap      omega  full diag
   1   -100.1723567 -0.100172E+03  0.223E-04    0.08       0.0  T
   2   -100.1723538  0.286949E-05  0.452E-03    0.08       2.8  T
   3   -100.1723567 -0.287643E-05  0.324E-05    0.08     385.9  T
   4   -100.1723567 -0.992202E-10  0.138E-05    0.08     906.3  T
   5   -100.1723567  0.763123E-11  0.127E-05    0.08     983.9  T
     SCC iter.                  ...        0 min,  0.127 sec
     gradient                   ...        0 min,  0.011 sec
 * total energy  :   -98.5585859 Eh     change       -0.2575959E-08 Eh
   gradient norm :     0.2187729 Eh/α   predicted     0.0000000E+00 (-100.00%)
   displ. norm   :     0.2949945 α      lambda       -0.4120912E-01
   maximum displ.:     0.1029798 α      in ANC's #13, #53, #143, ...

........................................................................
.............................. CYCLE    2 ..............................
........................................................................

 iter      E             dE          RMSdq      gap      omega  full diag
   1   -100.1555610 -0.100156E+03  0.586E-01    0.34       0.0  T
   2    -99.6891613  0.466400E+00  0.192E+00    0.17       1.0  T
   3   -100.1498097 -0.460648E+00  0.659E-01    0.52       1.0  T
   4   -100.1788454 -0.290357E-01  0.284E-01    0.15       1.0  T
   5   -100.0701768  0.108669E+00  0.936E-01    0.02       1.0  T
   6   -100.1843899 -0.114213E+00  0.188E-01    0.06       1.0  T
   7   -100.1194918  0.648980E-01  0.696E-01    0.01       1.0  T
   8   -100.1868556 -0.673638E-01  0.948E-02    0.10       1.0  T
   9   -100.1879542 -0.109861E-02  0.339E-02    0.09       1.0  T
  10   -100.1879269  0.272968E-04  0.361E-02    0.09       1.0  T
  11   -100.1879025  0.244543E-04  0.377E-02    0.09       1.0  T
  12   -100.1880629 -0.160455E-03  0.169E-02    0.09       1.0  T
  13   -100.1881011 -0.382110E-04  0.393E-03    0.08       3.2  T
  14   -100.1881031 -0.199211E-05  0.934E-04    0.08      13.4  T
  15   -100.1881032 -0.428531E-07  0.641E-04    0.08      19.5  T
  16   -100.1881032 -0.520667E-07  0.207E-04    0.08      60.5  T
     SCC iter.                  ...        0 min,  0.380 sec
     gradient                   ...        0 min,  0.017 sec
 * total energy  :   -98.5871302 Eh     change       -0.2854426E-01 Eh
   gradient norm :     0.0864812 Eh/α   predicted    -0.2240755E-01 ( -21.50%)
   displ. norm   :     0.3521643 α      lambda       -0.1357733E-01
   maximum displ.:     0.2023798 α      in ANC's #13, #33, #6, ...

........................................................................
.............................. CYCLE    3 ..............................
........................................................................

 iter      E             dE          RMSdq      gap      omega  full diag
   1   -100.1806597 -0.100181E+03  0.460E-01    0.23       0.0  T
   2    -99.6939924  0.486667E+00  0.193E+00    0.18       1.0  T
   3   -100.1734810 -0.479489E+00  0.547E-01    0.37       1.0  T
   4   -100.1989496 -0.254686E-01  0.153E-01    0.12       1.0  T
   5   -100.1902186  0.873098E-02  0.293E-01    0.05       1.0  T
   6   -100.2004108 -0.101922E-01  0.824E-02    0.08       1.0  T
   7   -100.2005082 -0.973737E-04  0.637E-02    0.08       1.0  T
   8   -100.2010276 -0.519403E-03  0.960E-03    0.09       1.3  T
   9   -100.2010326 -0.496894E-05  0.527E-03    0.09       2.4  T
  10   -100.2010323  0.274712E-06  0.412E-03    0.09       3.0  T
  11   -100.2010295  0.282394E-05  0.602E-03    0.09       2.1  T
  12   -100.2010342 -0.472534E-05  0.173E-03    0.09       7.2  T
  13   -100.2010345 -0.336277E-06  0.768E-04    0.09      16.3  T
  14   -100.2010346 -0.705287E-07  0.162E-04    0.09      77.1  T
     SCC iter.                  ...        0 min,  0.394 sec
     gradient                   ...        0 min,  0.010 sec
 * total energy  :   -98.5954522 Eh     change       -0.8321987E-02 Eh
   gradient norm :     0.0194652 Eh/α   predicted    -0.7634789E-02 (  -8.26%)
   displ. norm   :     0.3154771 α      lambda       -0.2383368E-02
   maximum displ.:     0.1800635 α      in ANC's #13, #6, #4, ...

........................................................................
.............................. CYCLE    4 ..............................
........................................................................

 iter      E             dE          RMSdq      gap      omega  full diag
   1   -100.2012908 -0.100201E+03  0.192E-01    0.13       0.0  T
   2    -99.7333022  0.467989E+00  0.181E+00    0.17       1.0  T
   3   -100.1980491 -0.464747E+00  0.265E-01    0.14       1.0  T
   4   -100.2051069 -0.705781E-02  0.399E-02    0.09       1.0  T
   5   -100.2050632  0.437026E-04  0.296E-02    0.09       1.0  T
   6   -100.2050291  0.340567E-04  0.247E-02    0.09       1.0  T
   7   -100.2051140 -0.848245E-04  0.464E-03    0.09       2.7  T
   8   -100.2051164 -0.247046E-05  0.132E-03    0.09       9.4  T
   9   -100.2051164 -0.698809E-08  0.763E-04    0.09      16.4  T
  10   -100.2051164  0.532913E-07  0.845E-04    0.09      14.8  T
     SCC iter.                  ...        0 min,  0.222 sec
     gradient                   ...        0 min,  0.011 sec
 * total energy  :   -98.5971159 Eh     change       -0.1663761E-02 Eh
   gradient norm :     0.0109998 Eh/α   predicted    -0.1310343E-02 ( -21.24%)
   displ. norm   :     0.3311600 α      lambda       -0.1166525E-02
   maximum displ.:     0.1661504 α      in ANC's #6, #13, #4, ...

........................................................................
.............................. CYCLE    5 ..............................
........................................................................

 iter      E             dE          RMSdq      gap      omega  full diag
   1   -100.2093767 -0.100209E+03  0.913E-02    0.10       0.0  T
   2    -99.9224156  0.286961E+00  0.140E+00    0.08       1.0  T
   3   -100.2091633 -0.286748E+00  0.969E-02    0.10       1.0  T
   4   -100.2099004 -0.737107E-03  0.399E-02    0.09       1.0  T
   5   -100.2099338 -0.334114E-04  0.167E-02    0.09       1.0  T
   6   -100.2099496 -0.158246E-04  0.111E-02    0.09       1.1  T
   7   -100.2099671 -0.175244E-04  0.277E-03    0.09       4.5  T
   8   -100.2099680 -0.882173E-06  0.101E-03    0.09      12.4  T
   9   -100.2099681 -0.996387E-07  0.243E-04    0.09      51.3  T
  10   -100.2099681  0.272649E-09  0.179E-04    0.09      69.8  T
     SCC iter.                  ...        0 min,  0.214 sec
     gradient                   ...        0 min,  0.010 sec
 * total energy  :   -98.5979256 Eh     change       -0.8096271E-03 Eh
   gradient norm :     0.0079582 Eh/α   predicted    -0.6472429E-03 ( -20.06%)
   displ. norm   :     0.3054425 α      lambda       -0.5623179E-03
   maximum displ.:     0.1780723 α      in ANC's #6, #4, #10, ...

........................................................................
.............................. CYCLE    6 ..............................
........................................................................

 iter      E             dE          RMSdq      gap      omega  full diag
   1   -100.2140071 -0.100214E+03  0.508E-02    0.09       0.0  T
   2   -100.2110753  0.293175E-02  0.148E-01    0.13       1.0  T
   3   -100.2110866 -0.113380E-04  0.144E-01    0.07       1.0  T
   4   -100.2136419 -0.255524E-02  0.594E-02    0.10       1.0  T
   5   -100.2137598 -0.117934E-03  0.438E-02    0.10       1.0  T
   6   -100.2140305 -0.270645E-03  0.999E-03    0.09       1.3  T
   7   -100.2140441 -0.136738E-04  0.852E-04    0.09      14.7  T
   8   -100.2140442 -0.397532E-07  0.468E-04    0.09      26.7  T
   9   -100.2140441  0.270683E-07  0.567E-04    0.09      22.1  T
     SCC iter.                  ...        0 min,  0.268 sec
     gradient                   ...        0 min,  0.012 sec
 * total energy  :   -98.5983352 Eh     change       -0.4096230E-03 Eh
   gradient norm :     0.0059217 Eh/α   predicted    -0.3074480E-03 ( -24.94%)
   displ. norm   :     0.2849606 α      lambda       -0.3626962E-03
   maximum displ.:     0.1681729 α      in ANC's #6, #4, #1, ...

........................................................................
.............................. CYCLE    7 ..............................
........................................................................

 iter      E             dE          RMSdq      gap      omega  full diag
   1   -100.2161373 -0.100216E+03  0.661E-02    0.08       0.0  T
   2   -100.2038513  0.122860E-01  0.303E-01    0.23       1.0  T
   3   -100.2162598 -0.124085E-01  0.513E-02    0.09       1.0  T
   4   -100.2160711  0.188652E-03  0.575E-02    0.10       1.0  T
   5   -100.2152867  0.784406E-03  0.915E-02    0.08       1.0  T
   6   -100.2164767 -0.118999E-02  0.705E-03    0.09       1.8  T
   7   -100.2164686  0.805348E-05  0.103E-02    0.09       1.2  T
   8   -100.2164840 -0.153757E-04  0.533E-04    0.09      23.4  T
   9   -100.2164840  0.396953E-07  0.655E-04    0.09      19.1  T
  10   -100.2164840 -0.461194E-07  0.204E-04    0.09      61.2  T
     SCC iter.                  ...        0 min,  0.239 sec
     gradient                   ...        0 min,  0.011 sec
 * total energy  :   -98.5986232 Eh     change       -0.2880558E-03 Eh
   gradient norm :     0.0046616 Eh/α   predicted    -0.1960747E-03 ( -31.93%)
   displ. norm   :     0.3463127 α      lambda       -0.3641774E-03
   maximum displ.:     0.1952237 α      in ANC's #6, #4, #1, ...

........................................................................
.............................. CYCLE    8 ..............................
........................................................................

 iter      E             dE          RMSdq      gap      omega  full diag
   1   -100.2169729 -0.100217E+03  0.754E-02    0.08       0.0  T
   2   -100.2040889  0.128840E-01  0.310E-01    0.24       1.0  T
   3   -100.2170956 -0.130067E-01  0.562E-02    0.09       1.0  T
   4   -100.2168442  0.251435E-03  0.657E-02    0.10       1.0  T
   5   -100.2161709  0.673230E-03  0.908E-02    0.08       1.0  T
   6   -100.2173625 -0.119152E-02  0.195E-03    0.09       6.4  T
   7   -100.2173486  0.138467E-04  0.983E-03    0.09       1.3  T
   8   -100.2173627 -0.140763E-04  0.636E-04    0.09      19.7  T
   9   -100.2173624  0.304041E-06  0.158E-03    0.09       7.9  T
  10   -100.2173627 -0.330877E-06  0.269E-04    0.09      46.5  T
  11   -100.2173627 -0.757915E-08  0.128E-04    0.09      98.0  T
     SCC iter.                  ...        0 min,  0.247 sec
     gradient                   ...        0 min,  0.010 sec
 * total energy  :   -98.5989244 Eh     change       -0.3012133E-03 Eh
   gradient norm :     0.0049665 Eh/α   predicted    -0.2039368E-03 ( -32.29%)
   displ. norm   :     0.4724865 α      lambda       -0.4313226E-03
   maximum displ.:     0.2507274 α      in ANC's #6, #4, #1, ...

........................................................................
.............................. CYCLE    9 ..............................
........................................................................

 iter      E             dE          RMSdq      gap      omega  full diag
   1   -100.2164975 -0.100216E+03  0.791E-02    0.09       0.0  T
   2   -100.2107805  0.571700E-02  0.203E-01    0.15       1.0  T
   3   -100.2074790  0.330155E-02  0.253E-01    0.05       1.0  T
   4   -100.2154786 -0.799960E-02  0.974E-02    0.11       1.0  T
   5   -100.2157750 -0.296387E-03  0.743E-02    0.11       1.0  T
   6   -100.2163361 -0.561097E-03  0.399E-02    0.10       1.0  T
   7   -100.2165616 -0.225535E-03  0.674E-03    0.09       1.9  T
   8   -100.2165679 -0.632443E-05  0.783E-04    0.09      16.0  T
   9   -100.2165679  0.402269E-07  0.889E-04    0.09      14.1  T
  10   -100.2165680 -0.982054E-07  0.344E-04    0.09      36.3  T
     SCC iter.                  ...        0 min,  0.313 sec
     gradient                   ...        0 min,  0.011 sec
 * total energy  :   -98.5992886 Eh     change       -0.3641960E-03 Eh
   gradient norm :     0.0059530 Eh/α   predicted    -0.2638085E-03 ( -27.56%)
   displ. norm   :     0.6125717 α      lambda       -0.5046778E-03
   maximum displ.:     0.3021654 α      in ANC's #6, #4, #1, ...

........................................................................
.............................. CYCLE   10 ..............................
........................................................................

 iter      E             dE          RMSdq      gap      omega  full diag
   1   -100.2141267 -0.100214E+03  0.107E-01    0.10       0.0  T
   2   -100.1100303  0.104096E+00  0.841E-01    0.01       1.0  T
   3   -100.2142143 -0.104184E+00  0.635E-02    0.10       1.0  T
   4   -100.2138108  0.403535E-03  0.677E-02    0.08       1.0  T
   5   -100.2142429 -0.432170E-03  0.216E-02    0.09       1.0  T
   6   -100.2143000 -0.570725E-04  0.476E-03    0.09       2.6  T
   7   -100.2143019 -0.190006E-05  0.235E-03    0.09       5.3  T
   8   -100.2143017  0.225616E-06  0.243E-03    0.09       5.1  T
   9   -100.2143025 -0.866619E-06  0.181E-04    0.09      69.0  T
  10   -100.2143025 -0.682562E-09  0.102E-04    0.09     122.4  T
     SCC iter.                  ...        0 min,  0.257 sec
     gradient                   ...        0 min,  0.010 sec
 * total energy  :   -98.5997110 Eh     change       -0.4223513E-03 Eh
   gradient norm :     0.0063139 Eh/α   predicted    -0.3470281E-03 ( -17.83%)
   displ. norm   :     0.6308020 α      lambda       -0.4900626E-03
   maximum displ.:     0.2733679 α      in ANC's #6, #1, #4, ...

........................................................................
.............................. CYCLE   11 ..............................
........................................................................

 iter      E             dE          RMSdq      gap      omega  full diag
   1   -100.2117246 -0.100212E+03  0.127E-01    0.11       0.0  T
   2    -99.8664904  0.345234E+00  0.152E+00    0.10       1.0  T
   3   -100.2122638 -0.345773E+00  0.738E-02    0.09       1.0  T
   4   -100.2103760  0.188775E-02  0.136E-01    0.08       1.0  T
   5   -100.2117484 -0.137238E-02  0.643E-02    0.08       1.0  T
   6   -100.2123395 -0.591085E-03  0.146E-02    0.09       1.0  T
   7   -100.2123552 -0.157286E-04  0.943E-03    0.09       1.3  T
   8   -100.2123634 -0.817418E-05  0.554E-03    0.09       2.3  T
   9   -100.2123680 -0.458875E-05  0.385E-04    0.09      32.4  T
  10   -100.2123679  0.430259E-07  0.580E-04    0.09      21.5  T
  11   -100.2123680 -0.331552E-07  0.323E-04    0.09      38.7  T
     SCC iter.                  ...        0 min,  0.238 sec
     gradient                   ...        0 min,  0.010 sec
 * total energy  :   -98.6001150 Eh     change       -0.4040036E-03 Eh
   gradient norm :     0.0065645 Eh/α   predicted    -0.3425343E-03 ( -15.22%)
   displ. norm   :     0.5883713 α      lambda       -0.4749919E-03
   maximum displ.:     0.2580150 α      in ANC's #9, #1, #4, ...

........................................................................
.............................. CYCLE   12 ..............................
........................................................................

 iter      E             dE          RMSdq      gap      omega  full diag
   1   -100.2118924 -0.100212E+03  0.127E-01    0.11       0.0  T
   2    -99.8379222  0.373970E+00  0.158E+00    0.12       1.0  T
   3   -100.2125223 -0.374600E+00  0.712E-02    0.10       1.0  T
   4   -100.2108407  0.168157E-02  0.130E-01    0.08       1.0  T
   5   -100.2120693 -0.122858E-02  0.609E-02    0.08       1.0  T
   6   -100.2126176 -0.548262E-03  0.103E-02    0.09       1.2  T
   7   -100.2126201 -0.254280E-05  0.864E-03    0.09       1.4  T
   8   -100.2126279 -0.772697E-05  0.459E-03    0.09       2.7  T
   9   -100.2126310 -0.314882E-05  0.361E-04    0.09      34.7  T
  10   -100.2126310  0.191569E-07  0.476E-04    0.09      26.3  T
  11   -100.2126310 -0.195851E-07  0.288E-04    0.09      43.5  T
     SCC iter.                  ...        0 min,  0.265 sec
     gradient                   ...        0 min,  0.011 sec
 * total energy  :   -98.6005031 Eh     change       -0.3881546E-03 Eh
   gradient norm :     0.0067555 Eh/α   predicted    -0.3197129E-03 ( -17.63%)
   displ. norm   :     0.5040426 α      lambda       -0.4448131E-03
   maximum displ.:     0.2526693 α      in ANC's #9, #1, #2, ...

........................................................................
.............................. CYCLE   13 ..............................
........................................................................

 iter      E             dE          RMSdq      gap      omega  full diag
   1   -100.2151227 -0.100215E+03  0.102E-01    0.10       0.0  T
   2   -100.0230744  0.192048E+00  0.113E+00    0.04       1.0  T
   3   -100.2152796 -0.192205E+00  0.611E-02    0.10       1.0  T
   4   -100.2151329  0.146742E-03  0.520E-02    0.09       1.0  T
   5   -100.2153801 -0.247227E-03  0.182E-02    0.09       1.0  T
   6   -100.2154195 -0.393919E-04  0.371E-03    0.09       3.4  T
   7   -100.2154190  0.434337E-06  0.347E-03    0.09       3.6  T
   8   -100.2154198 -0.777748E-06  0.243E-03    0.09       5.1  T
   9   -100.2154207 -0.877971E-06  0.171E-04    0.09      72.9  T
  10   -100.2154207 -0.222612E-08  0.802E-05    0.09     155.9  T
     SCC iter.                  ...        0 min,  0.254 sec
     gradient                   ...        0 min,  0.022 sec
 * total energy  :   -98.6008675 Eh     change       -0.3643210E-03 Eh
   gradient norm :     0.0059812 Eh/α   predicted    -0.2789123E-03 ( -23.44%)
   displ. norm   :     0.5383214 α      lambda       -0.4186421E-03
   maximum displ.:     0.2705777 α      in ANC's #9, #1, #2, ...

........................................................................
.............................. CYCLE   14 ..............................
........................................................................

 iter      E             dE          RMSdq      gap      omega  full diag
   1   -100.2161407 -0.100216E+03  0.103E-01    0.11       0.0  T
   2   -100.0176908  0.198450E+00  0.114E+00    0.04       1.0  T
   3   -100.2162931 -0.198602E+00  0.639E-02    0.10       1.0  T
   4   -100.2159412  0.351866E-03  0.771E-02    0.10       1.0  T
   5   -100.2164482 -0.506996E-03  0.907E-03    0.09       1.4  T
   6   -100.2164537 -0.549089E-05  0.307E-03    0.09       4.1  T
   7   -100.2164543 -0.595252E-06  0.157E-03    0.09       8.0  T
   8   -100.2164543  0.608937E-07  0.146E-03    0.09       8.6  T
   9   -100.2164545 -0.287896E-06  0.434E-04    0.09      28.8  T
  10   -100.2164546 -0.147833E-07  0.281E-04    0.09      44.5  T
     SCC iter.                  ...        0 min,  0.156 sec
     gradient                   ...        0 min,  0.019 sec
 * total energy  :   -98.6012147 Eh     change       -0.3472374E-03 Eh
   gradient norm :     0.0055756 Eh/α   predicted    -0.2699810E-03 ( -22.25%)
   displ. norm   :     0.5716875 α      lambda       -0.4159252E-03
   maximum displ.:     0.2944816 α      in ANC's #9, #2, #1, ...

........................................................................
.............................. CYCLE   15 ..............................
........................................................................

 iter      E             dE          RMSdq      gap      omega  full diag
   1   -100.2181616 -0.100218E+03  0.988E-02    0.10       0.0  T
   2   -100.1370652  0.810965E-01  0.727E-01    0.00       1.0  T
   3   -100.2177434 -0.806782E-01  0.814E-02    0.11       1.0  T
   4   -100.2178565 -0.113162E-03  0.617E-02    0.11       1.0  T
   5   -100.2181534 -0.296891E-03  0.325E-02    0.10       1.0  T
   6   -100.2182671 -0.113665E-03  0.166E-02    0.10       1.0  T
   7   -100.2183003 -0.331749E-04  0.753E-03    0.10       1.7  T
   8   -100.2183088 -0.851766E-05  0.604E-04    0.10      20.7  T
   9   -100.2183081  0.688079E-06  0.213E-03    0.10       5.9  T
  10   -100.2183087 -0.637727E-06  0.687E-04    0.10      18.2  T
  11   -100.2183088 -0.718330E-07  0.495E-05    0.10     252.8  T
     SCC iter.                  ...        0 min,  0.188 sec
     gradient                   ...        0 min,  0.011 sec
 * total energy  :   -98.6015473 Eh     change       -0.3325472E-03 Eh
   gradient norm :     0.0054762 Eh/α   predicted    -0.2759316E-03 ( -17.02%)
   displ. norm   :     0.5793503 α      lambda       -0.3528998E-03
   maximum displ.:     0.2788146 α      in ANC's #2, #9, #1, ...

........................................................................
.............................. CYCLE   16 ..............................
........................................................................

 iter      E             dE          RMSdq      gap      omega  full diag
   1   -100.2153230 -0.100215E+03  0.116E-01    0.12       0.0  T
   2    -99.7948803  0.420443E+00  0.164E+00    0.14       1.0  T
   3   -100.2162030 -0.421323E+00  0.557E-02    0.10       1.0  T
   4   -100.2155792  0.623719E-03  0.827E-02    0.09       1.0  T
   5   -100.2159679 -0.388699E-03  0.430E-02    0.09       1.0  T
   6   -100.2161975 -0.229580E-03  0.169E-02    0.09       1.0  T
   7   -100.2162286 -0.310537E-04  0.893E-03    0.09       1.4  T
   8   -100.2162391 -0.104836E-04  0.323E-03    0.10       3.9  T
   9   -100.2162406 -0.154127E-05  0.507E-04    0.10      24.7  T
  10   -100.2162406  0.200139E-07  0.598E-04    0.10      20.9  T
  11   -100.2162406 -0.471102E-07  0.213E-04    0.10      58.6  T
     SCC iter.                  ...        0 min,  0.269 sec
     gradient                   ...        0 min,  0.010 sec
 * total energy  :   -98.6018247 Eh     change       -0.2774814E-03 Eh
   gradient norm :     0.0056669 Eh/α   predicted    -0.2356782E-03 ( -15.07%)
   displ. norm   :     0.4666390 α      lambda       -0.3857572E-03
   maximum displ.:     0.2648535 α      in ANC's #2, #9, #10, ...

........................................................................
.............................. CYCLE   17 ..............................
........................................................................

 iter      E             dE          RMSdq      gap      omega  full diag
   1   -100.2222310 -0.100222E+03  0.825E-02    0.09       0.0  T
   2   -100.2135847  0.864635E-02  0.245E-01    0.20       1.0  T
   3   -100.2214366 -0.785194E-02  0.899E-02    0.08       1.0  T
   4   -100.2213805  0.561127E-04  0.958E-02    0.11       1.0  T
   5   -100.2223402 -0.959691E-03  0.223E-02    0.10       1.0  T
   6   -100.2224071 -0.669252E-04  0.490E-03    0.10       2.5  T
   7   -100.2224089 -0.173395E-05  0.334E-03    0.10       3.7  T
   8   -100.2224101 -0.122962E-05  0.168E-03    0.10       7.4  T
   9   -100.2224103 -0.209778E-06  0.104E-03    0.10      12.0  T
  10   -100.2224104 -0.116183E-06  0.566E-04    0.10      22.1  T
  11   -100.2224105 -0.386471E-07  0.293E-04    0.10      42.6  T
     SCC iter.                  ...        0 min,  0.245 sec
     gradient                   ...        0 min,  0.012 sec
 * total energy  :   -98.6020624 Eh     change       -0.2376320E-03 Eh
   gradient norm :     0.0063293 Eh/α   predicted    -0.2348799E-03 (  -1.16%)
   displ. norm   :     0.4986237 α      lambda       -0.2890729E-03
   maximum displ.:     0.2580907 α      in ANC's #2, #10, #1, ...

........................................................................
.............................. CYCLE   18 ..............................
........................................................................

 iter      E             dE          RMSdq      gap      omega  full diag
   1   -100.2150832 -0.100215E+03  0.122E-01    0.13       0.0  T
   2    -99.7331531  0.481930E+00  0.175E+00    0.17       1.0  T
   3   -100.2165292 -0.483376E+00  0.648E-02    0.09       1.0  T
   4   -100.2155466  0.982660E-03  0.935E-02    0.08       1.0  T
   5   -100.2164667 -0.920106E-03  0.511E-02    0.09       1.0  T
   6   -100.2168248 -0.358131E-03  0.125E-02    0.10       1.0  T
   7   -100.2168454 -0.205571E-04  0.255E-03    0.10       4.9  T
   8   -100.2168457 -0.393477E-06  0.148E-03    0.10       8.5  T
   9   -100.2168459 -0.194993E-06  0.571E-04    0.10      21.9  T
  10   -100.2168460 -0.310408E-07  0.131E-04    0.10      95.6  T
     SCC iter.                  ...        0 min,  0.274 sec
     gradient                   ...        0 min,  0.011 sec
 * total energy  :   -98.6022529 Eh     change       -0.1904921E-03 Eh
   gradient norm :     0.0059784 Eh/α   predicted    -0.1804766E-03 (  -5.26%)
   displ. norm   :     0.2569385 α      lambda       -0.1986620E-03
   maximum displ.:     0.1594355 α      in ANC's #2, #10, #5, ...

........................................................................
.............................. CYCLE   19 ..............................
........................................................................

 iter      E             dE          RMSdq      gap      omega  full diag
   1   -100.2174104 -0.100217E+03  0.508E-02    0.09       0.0  T
   2   -100.2111382  0.627219E-02  0.203E-01    0.17       1.0  T
   3   -100.2173167 -0.617851E-02  0.424E-02    0.09       1.0  T
   4   -100.2174815 -0.164784E-03  0.109E-02    0.10       1.1  T
   5   -100.2174904 -0.884263E-05  0.644E-03    0.10       1.9  T
   6   -100.2174962 -0.589260E-05  0.229E-03    0.10       5.5  T
   7   -100.2174968 -0.504620E-06  0.138E-03    0.10       9.0  T
   8   -100.2174969 -0.148686E-06  0.832E-04    0.10      15.0  T
   9   -100.2174970 -0.714553E-07  0.422E-04    0.10      29.6  T
     SCC iter.                  ...        0 min,  0.165 sec
     gradient                   ...        0 min,  0.011 sec
 * total energy  :   -98.6023957 Eh     change       -0.1428864E-03 Eh
   gradient norm :     0.0065119 Eh/α   predicted    -0.1058902E-03 ( -25.89%)
   displ. norm   :     0.3165123 α      lambda       -0.2090872E-03
   maximum displ.:     0.1853535 α      in ANC's #2, #10, #5, ...

........................................................................
.............................. CYCLE   20 ..............................
........................................................................

 iter      E             dE          RMSdq      gap      omega  full diag
   1   -100.2185488 -0.100219E+03  0.591E-02    0.10       0.0  T
   2   -100.2158675  0.268130E-02  0.135E-01    0.14       1.0  T
   3   -100.2141418  0.172571E-02  0.170E-01    0.07       1.0  T
   4   -100.2178756 -0.373379E-02  0.684E-02    0.11       1.0  T
   5   -100.2182291 -0.353506E-03  0.467E-02    0.11       1.0  T
   6   -100.2185035 -0.274365E-03  0.210E-02    0.10       1.0  T
   7   -100.2185708 -0.673098E-04  0.426E-03    0.10       2.9  T
   8   -100.2185733 -0.250809E-05  0.133E-03    0.10       9.4  T
   9   -100.2185735 -0.205850E-06  0.581E-04    0.10      21.5  T
  10   -100.2185736 -0.510828E-07  0.151E-04    0.10      82.6  T
     SCC iter.                  ...        0 min,  0.431 sec
     gradient                   ...        0 min,  0.012 sec
 * total energy  :   -98.6025328 Eh     change       -0.1370944E-03 Eh
   gradient norm :     0.0068187 Eh/α   predicted    -0.1150173E-03 ( -16.10%)
   displ. norm   :     0.2712981 α      lambda       -0.1546223E-03
   maximum displ.:     0.1661023 α      in ANC's #2, #10, #5, ...
 * RMSD in coord.:     0.8544284 α      energy gain  -0.4394693E-01 Eh

generating ANC from model Hessian ...
Using Lindh-Hessian (1995)
 Shifting diagonal of input Hessian by    9.8820440715863943E-003
 Lowest  eigenvalues of input Hessian
    0.000000    0.000000    0.000000    0.000000    0.000000    0.000000
    0.010000    0.010037    0.010463    0.010536    0.011249    0.011726
    0.012130    0.012803    0.012850    0.013654    0.014081    0.015513
 Highest eigenvalues
    2.024826    2.074653    2.105455    2.124329    2.176927    2.286486


........................................................................
.............................. CYCLE   21 ..............................
........................................................................

 iter      E             dE          RMSdq      gap      omega  full diag
   1   -100.2187438 -0.100219E+03  0.816E-02    0.08       0.0  T
   2   -100.2063043  0.124396E-01  0.299E-01    0.30       1.0  T
   3   -100.2185625 -0.122582E-01  0.797E-02    0.12       1.0  T
   4   -100.1971780  0.213845E-01  0.375E-01    0.04       1.0  T
   5   -100.2191705 -0.219925E-01  0.385E-02    0.11       1.0  T
   6   -100.2193448 -0.174250E-03  0.187E-02    0.10       1.0  T
   7   -100.2193879 -0.431348E-04  0.838E-03    0.10       1.5  T
   8   -100.2193890 -0.110276E-05  0.771E-03    0.10       1.6  T
   9   -100.2193976 -0.861904E-05  0.205E-03    0.10       6.1  T
  10   -100.2193983 -0.635051E-06  0.127E-04    0.10      98.2  T
  11   -100.2193983 -0.119357E-08  0.727E-05    0.10     172.1  T
     SCC iter.                  ...        0 min,  0.277 sec
     gradient                   ...        0 min,  0.011 sec
 * total energy  :   -98.6026317 Eh     change       -0.9884093E-04 Eh
   gradient norm :     0.0058637 Eh/α   predicted     0.0000000E+00 (-100.00%)
   displ. norm   :     0.0486025 α      lambda       -0.6652714E-04
   maximum displ.:     0.0251194 α      in ANC's #1, #4, #19, ...

........................................................................
.............................. CYCLE   22 ..............................
........................................................................

 iter      E             dE          RMSdq      gap      omega  full diag
   1   -100.2191393 -0.100219E+03  0.191E-02    0.09       0.0  T
   2   -100.2170496  0.208968E-02  0.117E-01    0.13       1.0  T
   3   -100.2189925 -0.194286E-02  0.340E-02    0.09       1.0  T
   4   -100.2191529 -0.160472E-03  0.105E-02    0.10       1.2  T
   5   -100.2191434  0.952376E-05  0.103E-02    0.10       1.2  T
   6   -100.2191603 -0.168913E-04  0.298E-03    0.10       4.2  T
   7   -100.2191617 -0.144697E-05  0.376E-04    0.10      33.3  T
   8   -100.2191617 -0.553911E-09  0.349E-04    0.10      35.8  T
   9   -100.2191618 -0.147605E-07  0.136E-04    0.10      91.9  T
     SCC iter.                  ...        0 min,  0.168 sec
     gradient                   ...        0 min,  0.013 sec
 * total energy  :   -98.6026933 Eh     change       -0.6157250E-04 Eh
   gradient norm :     0.0027138 Eh/α   predicted    -0.3952624E-04 ( -35.81%)
   displ. norm   :     0.1078273 α      lambda       -0.9047927E-04
   maximum displ.:     0.0624775 α      in ANC's #1, #4, #19, ...

........................................................................
.............................. CYCLE   23 ..............................
........................................................................

 iter      E             dE          RMSdq      gap      omega  full diag
   1   -100.2187676 -0.100219E+03  0.362E-02    0.09       0.0  T
   2   -100.2125063  0.626125E-02  0.203E-01    0.17       1.0  T
   3   -100.2186644 -0.615804E-02  0.391E-02    0.09       1.0  T
   4   -100.2187726 -0.108253E-03  0.276E-02    0.10       1.0  T
   5   -100.2188589 -0.862626E-04  0.548E-03    0.10       2.3  T
   6   -100.2188511  0.775498E-05  0.883E-03    0.10       1.4  T
   7   -100.2188632 -0.120860E-04  0.217E-03    0.10       5.8  T
   8   -100.2188639 -0.703288E-06  0.307E-04    0.10      40.7  T
   9   -100.2188639  0.258000E-07  0.466E-04    0.10      26.8  T
     SCC iter.                  ...        0 min,  0.192 sec
     gradient                   ...        0 min,  0.011 sec
 * total energy  :   -98.6027512 Eh     change       -0.5792397E-04 Eh
   gradient norm :     0.0023750 Eh/α   predicted    -0.4576586E-04 ( -20.99%)
   displ. norm   :     0.0803655 α      lambda       -0.3220847E-04
   maximum displ.:     0.0531263 α      in ANC's #1, #4, #3, ...

........................................................................
.............................. CYCLE   24 ..............................
........................................................................

 iter      E             dE          RMSdq      gap      omega  full diag
   1   -100.2188149 -0.100219E+03  0.214E-02    0.09       0.0  T
   2   -100.2153144  0.350049E-02  0.150E-01    0.14       1.0  T
   3   -100.2188290 -0.351457E-02  0.141E-02    0.09       1.0  T
   4   -100.2188153  0.136879E-04  0.174E-02    0.10       1.0  T
   5   -100.2188458 -0.305757E-04  0.333E-03    0.10       3.8  T
   6   -100.2188461 -0.228808E-06  0.310E-03    0.10       4.0  T
   7   -100.2188477 -0.159211E-05  0.595E-04    0.10      21.0  T
   8   -100.2188477 -0.527673E-07  0.934E-05    0.10     133.9  T
   9   -100.2188477  0.622579E-08  0.201E-04    0.10      62.1  T
     SCC iter.                  ...        0 min,  0.276 sec
     gradient                   ...        0 min,  0.011 sec
 * total energy  :   -98.6027772 Eh     change       -0.2598158E-04 Eh
   gradient norm :     0.0027409 Eh/α   predicted    -0.1620847E-04 ( -37.62%)
   displ. norm   :     0.1061112 α      lambda       -0.3909456E-04
   maximum displ.:     0.0722024 α      in ANC's #1, #4, #3, ...

........................................................................
.............................. CYCLE   25 ..............................
........................................................................

 iter      E             dE          RMSdq      gap      omega  full diag
   1   -100.2189463 -0.100219E+03  0.234E-02    0.09       0.0  T
   2   -100.2152554  0.369093E-02  0.153E-01    0.14       1.0  T
   3   -100.2189660 -0.371057E-02  0.141E-02    0.09       1.0  T
   4   -100.2189770 -0.110035E-04  0.608E-03    0.10       2.1  T
   5   -100.2189798 -0.284597E-05  0.266E-03    0.10       4.7  T
   6   -100.2189804 -0.557236E-06  0.810E-04    0.10      15.4  T
   7   -100.2189804 -0.655661E-07  0.402E-04    0.10      31.1  T
     SCC iter.                  ...        0 min,  0.112 sec
     gradient                   ...        0 min,  0.010 sec
 * total energy  :   -98.6028086 Eh     change       -0.3140477E-04 Eh
   gradient norm :     0.0018208 Eh/α   predicted    -0.1976768E-04 ( -37.06%)
   displ. norm   :     0.1743885 α      lambda       -0.3414553E-04
   maximum displ.:     0.1217948 α      in ANC's #1, #4, #3, ...

........................................................................
.............................. CYCLE   26 ..............................
........................................................................

 iter      E             dE          RMSdq      gap      omega  full diag
   1   -100.2190872 -0.100219E+03  0.325E-02    0.09       0.0  T
   2   -100.2144215  0.466570E-02  0.173E-01    0.15       1.0  T
   3   -100.2190551 -0.463360E-02  0.281E-02    0.09       1.0  T
   4   -100.2190743 -0.192090E-04  0.259E-02    0.10       1.0  T
   5   -100.2191350 -0.607129E-04  0.343E-03    0.10       3.6  T
   6   -100.2191363 -0.123219E-05  0.132E-03    0.10       9.5  T
   7   -100.2191365 -0.212583E-06  0.504E-04    0.10      24.8  T
   8   -100.2191365 -0.296365E-07  0.148E-04    0.10      84.6  T
     SCC iter.                  ...        0 min,  0.205 sec
     gradient                   ...        0 min,  0.014 sec
 * total energy  :   -98.6028454 Eh     change       -0.3681197E-04 Eh
   gradient norm :     0.0018309 Eh/α   predicted    -0.1730573E-04 ( -52.99%)
   displ. norm   :     0.1175796 α      lambda       -0.2051870E-04
   maximum displ.:     0.0847055 α      in ANC's #1, #4, #3, ...

........................................................................
.............................. CYCLE   27 ..............................
........................................................................

 iter      E             dE          RMSdq      gap      omega  full diag
   1   -100.2191863 -0.100219E+03  0.233E-02    0.09       0.0  T
   2   -100.2151679  0.401847E-02  0.160E-01    0.14       1.0  T
   3   -100.2192130 -0.404518E-02  0.128E-02    0.09       1.0  T
   4   -100.2192181 -0.505302E-05  0.597E-03    0.10       2.1  T
   5   -100.2192223 -0.417269E-05  0.339E-03    0.10       3.7  T
   6   -100.2192239 -0.167337E-05  0.112E-03    0.10      11.1  T
   7   -100.2192241 -0.155705E-06  0.382E-04    0.10      32.8  T
   8   -100.2192241 -0.177460E-07  0.130E-04    0.10      96.4  T
     SCC iter.                  ...        0 min,  0.188 sec
     gradient                   ...        0 min,  0.016 sec
 * total energy  :   -98.6028728 Eh     change       -0.2744562E-04 Eh
   gradient norm :     0.0017509 Eh/α   predicted    -0.1032315E-04 ( -62.39%)
   displ. norm   :     0.1435481 α      lambda       -0.2835636E-04
   maximum displ.:     0.1020312 α      in ANC's #1, #4, #3, ...

........................................................................
.............................. CYCLE   28 ..............................
........................................................................

 iter      E             dE          RMSdq      gap      omega  full diag
   1   -100.2193029 -0.100219E+03  0.233E-02    0.09       0.0  T
   2   -100.2178675  0.143536E-02  0.960E-02    0.12       1.0  T
   3   -100.2191617 -0.129413E-02  0.329E-02    0.09       1.0  T
   4   -100.2192472 -0.855248E-04  0.207E-02    0.10       1.0  T
   5   -100.2192960 -0.488060E-04  0.101E-02    0.10       1.2  T
   6   -100.2193128 -0.168015E-04  0.697E-04    0.10      17.9  T
   7   -100.2193128 -0.279916E-07  0.394E-04    0.10      31.7  T
   8   -100.2193128 -0.997080E-08  0.287E-04    0.10      43.6  T
     SCC iter.                  ...        0 min,  0.119 sec
     gradient                   ...        0 min,  0.010 sec
 * total energy  :   -98.6029092 Eh     change       -0.3639648E-04 Eh
   gradient norm :     0.0012795 Eh/α   predicted    -0.1430844E-04 ( -60.69%)
   displ. norm   :     0.1805622 α      lambda       -0.2870122E-04
   maximum displ.:     0.1296013 α      in ANC's #1, #4, #3, ...

........................................................................
.............................. CYCLE   29 ..............................
........................................................................

 iter      E             dE          RMSdq      gap      omega  full diag
   1   -100.2191339 -0.100219E+03  0.267E-02    0.10       0.0  T
   2   -100.2174223  0.171158E-02  0.104E-01    0.08       1.0  T
   3   -100.2189560 -0.153370E-02  0.371E-02    0.10       1.0  T
   4   -100.2191002 -0.144203E-03  0.185E-02    0.10       1.0  T
   5   -100.2191263 -0.261209E-04  0.939E-03    0.10       1.3  T
   6   -100.2191399 -0.135233E-04  0.222E-03    0.10       5.6  T
   7   -100.2191406 -0.753350E-06  0.227E-04    0.10      55.2  T
   8   -100.2191406 -0.128814E-08  0.101E-04    0.10     124.1  T
     SCC iter.                  ...        0 min,  0.114 sec
     gradient                   ...        0 min,  0.012 sec
 * total energy  :   -98.6029449 Eh     change       -0.3570549E-04 Eh
   gradient norm :     0.0011992 Eh/α   predicted    -0.1455950E-04 ( -59.22%)
   displ. norm   :     0.1598357 α      lambda       -0.2000165E-04
   maximum displ.:     0.1179586 α      in ANC's #1, #4, #3, ...

........................................................................
.............................. CYCLE   30 ..............................
........................................................................

 iter      E             dE          RMSdq      gap      omega  full diag
   1   -100.2191184 -0.100219E+03  0.242E-02    0.10       0.0  T
   2   -100.2136101  0.550821E-02  0.186E-01    0.06       1.0  T
   3   -100.2190787 -0.546860E-02  0.229E-02    0.10       1.0  T
   4   -100.2190956 -0.168808E-04  0.212E-02    0.10       1.0  T
   5   -100.2191333 -0.376768E-04  0.458E-03    0.10       2.7  T
   6   -100.2191363 -0.301540E-05  0.126E-03    0.10       9.9  T
   7   -100.2191365 -0.221200E-06  0.341E-04    0.10      36.7  T
   8   -100.2191365 -0.115974E-07  0.125E-04    0.10      99.7  T
     SCC iter.                  ...        0 min,  0.175 sec
     gradient                   ...        0 min,  0.011 sec
 * total energy  :   -98.6029706 Eh     change       -0.2562606E-04 Eh
   gradient norm :     0.0011075 Eh/α   predicted    -0.1011859E-04 ( -60.51%)
   displ. norm   :     0.1145444 α      lambda       -0.1308712E-04
   maximum displ.:     0.0889133 α      in ANC's #1, #4, #3, ...

........................................................................
.............................. CYCLE   31 ..............................
........................................................................

 iter      E             dE          RMSdq      gap      omega  full diag
   1   -100.2191332 -0.100219E+03  0.191E-02    0.10       0.0  T
   2   -100.2127663  0.636688E-02  0.199E-01    0.06       1.0  T
   3   -100.2191275 -0.636114E-02  0.158E-02    0.10       1.0  T
   4   -100.2191342 -0.669850E-05  0.150E-02    0.10       1.0  T
   5   -100.2191535 -0.193171E-04  0.125E-03    0.10      10.0  T
   6   -100.2191535  0.340284E-07  0.966E-04    0.10      12.9  T
   7   -100.2191536 -0.140784E-06  0.133E-04    0.10      94.1  T
     SCC iter.                  ...        0 min,  0.122 sec
     gradient                   ...        0 min,  0.011 sec
 * total energy  :   -98.6029880 Eh     change       -0.1745219E-04 Eh
   gradient norm :     0.0007384 Eh/α   predicted    -0.6583288E-05 ( -62.28%)
   displ. norm   :     0.0771238 α      lambda       -0.9001370E-05
   maximum displ.:     0.0643966 α      in ANC's #1, #4, #3, ...

........................................................................
.............................. CYCLE   32 ..............................
........................................................................

 iter      E             dE          RMSdq      gap      omega  full diag
   1   -100.2192132 -0.100219E+03  0.129E-02    0.10       0.0  T
   2   -100.2170607  0.215256E-02  0.116E-01    0.07       1.0  T
   3   -100.2192059 -0.214523E-02  0.117E-02    0.10       1.1  T
   4   -100.2192118 -0.586291E-05  0.105E-02    0.10       1.2  T
   5   -100.2192212 -0.942177E-05  0.121E-03    0.10      10.3  T
   6   -100.2192213 -0.938423E-07  0.779E-04    0.10      16.0  T
   7   -100.2192214 -0.934240E-07  0.125E-04    0.10     100.0  T
     SCC iter.                  ...        0 min,  0.140 sec
     gradient                   ...        0 min,  0.012 sec
 * total energy  :   -98.6030004 Eh     change       -0.1238951E-04 Eh
   gradient norm :     0.0004074 Eh/α   predicted    -0.4539311E-05 ( -63.36%)
   displ. norm   :     0.0562772 α      lambda       -0.7100798E-05
   maximum displ.:     0.0501675 α      in ANC's #1, #4, #6, ...

........................................................................
.............................. CYCLE   33 ..............................
........................................................................

 iter      E             dE          RMSdq      gap      omega  full diag
   1   -100.2192367 -0.100219E+03  0.919E-03    0.10       0.0  T
   2   -100.2187303  0.506312E-03  0.565E-02    0.08       1.0  T
   3   -100.2192266 -0.496288E-03  0.994E-03    0.10       1.3  T
   4   -100.2192336 -0.700662E-05  0.731E-03    0.10       1.7  T
   5   -100.2192387 -0.507048E-05  0.980E-04    0.10      12.8  T
   6   -100.2192388 -0.102053E-06  0.472E-04    0.10      26.5  T
   7   -100.2192388 -0.312420E-07  0.142E-04    0.10      87.9  T
     SCC iter.                  ...        0 min,  0.128 sec
     gradient                   ...        0 min,  0.010 sec
 * total energy  :   -98.6030103 Eh     change       -0.9930885E-05 Eh
   gradient norm :     0.0004125 Eh/α   predicted    -0.3556486E-05 ( -64.19%)
   displ. norm   :     0.0492550 α      lambda       -0.6603620E-05
   maximum displ.:     0.0437812 α      in ANC's #1, #9, #7, ...

........................................................................
.............................. CYCLE   34 ..............................
........................................................................

 iter      E             dE          RMSdq      gap      omega  full diag
   1   -100.2192856 -0.100219E+03  0.796E-03    0.10       0.0  T
   2   -100.2191674  0.118157E-03  0.276E-02    0.09       1.0  T
   3   -100.2192621 -0.947371E-04  0.129E-02    0.10       1.0  T
   4   -100.2192852 -0.230161E-04  0.241E-03    0.10       5.2  T
   5   -100.2192861 -0.929929E-06  0.557E-04    0.10      22.4  T
   6   -100.2192861 -0.267437E-08  0.436E-04    0.10      28.7  T
     SCC iter.                  ...        0 min,  0.150 sec
     gradient                   ...        0 min,  0.011 sec
 * total energy  :   -98.6030196 Eh     change       -0.9307736E-05 Eh
   gradient norm :     0.0005037 Eh/α   predicted    -0.3306562E-05 ( -64.48%)
   displ. norm   :     0.0554091 α      lambda       -0.7273365E-05
   maximum displ.:     0.0456259 α      in ANC's #1, #3, #9, ...

........................................................................
.............................. CYCLE   35 ..............................
........................................................................

 iter      E             dE          RMSdq      gap      omega  full diag
   1   -100.2193030 -0.100219E+03  0.899E-03    0.10       0.0  T
   2   -100.2192335  0.695582E-04  0.217E-02    0.09       1.0  T
   3   -100.2192392 -0.573591E-05  0.206E-02    0.10       1.0  T
   4   -100.2192961 -0.569439E-04  0.865E-03    0.10       1.4  T
   5   -100.2193033 -0.720042E-05  0.846E-04    0.10      14.8  T
   6   -100.2193034 -0.735645E-07  0.533E-04    0.10      23.5  T
   7   -100.2193035 -0.390629E-07  0.177E-04    0.10      70.6  T
     SCC iter.                  ...        0 min,  0.111 sec
     gradient                   ...        0 min,  0.012 sec
 * total energy  :   -98.6030299 Eh     change       -0.1031647E-04 Eh
   gradient norm :     0.0005279 Eh/α   predicted    -0.3642812E-05 ( -64.69%)
   displ. norm   :     0.0680909 α      lambda       -0.8398772E-05
   maximum displ.:     0.0524278 α      in ANC's #1, #3, #4, ...

........................................................................
.............................. CYCLE   36 ..............................
........................................................................

 iter      E             dE          RMSdq      gap      omega  full diag
   1   -100.2193031 -0.100219E+03  0.109E-02    0.10       0.0  T
   2   -100.2192033  0.998006E-04  0.258E-02    0.10       1.0  T
   3   -100.2192038 -0.452584E-06  0.257E-02    0.09       1.0  T
   4   -100.2192998 -0.960699E-04  0.643E-03    0.10       1.9  T
   5   -100.2193037 -0.382981E-05  0.947E-04    0.10      13.2  T
   6   -100.2193036  0.230089E-07  0.819E-04    0.10      15.3  T
   7   -100.2193037 -0.921032E-07  0.276E-04    0.10      45.3  T
     SCC iter.                  ...        0 min,  0.186 sec
     gradient                   ...        0 min,  0.011 sec
 * total energy  :   -98.6030418 Eh     change       -0.1184064E-04 Eh
   gradient norm :     0.0004520 Eh/α   predicted    -0.4208837E-05 ( -64.45%)
   displ. norm   :     0.0804962 α      lambda       -0.9186362E-05
   maximum displ.:     0.0598269 α      in ANC's #1, #3, #4, ...

........................................................................
.............................. CYCLE   37 ..............................
........................................................................

 iter      E             dE          RMSdq      gap      omega  full diag
   1   -100.2193540 -0.100219E+03  0.124E-02    0.10       0.0  T
   2   -100.2193489  0.514644E-05  0.929E-03    0.10       1.3  T
   3   -100.2180868  0.126211E-02  0.890E-02    0.08       1.0  T
   4   -100.2193467 -0.125992E-02  0.868E-03    0.10       1.4  T
   5   -100.2193540 -0.732532E-05  0.138E-03    0.10       9.1  T
   6   -100.2193541 -0.126750E-06  0.757E-04    0.10      16.5  T
   7   -100.2193542 -0.728531E-07  0.313E-04    0.10      39.9  T
     SCC iter.                  ...        0 min,  0.222 sec
     gradient                   ...        0 min,  0.010 sec
 * total energy  :   -98.6030547 Eh     change       -0.1288734E-04 Eh
   gradient norm :     0.0003585 Eh/α   predicted    -0.4606828E-05 ( -64.25%)
   displ. norm   :     0.0856396 α      lambda       -0.9098568E-05
   maximum displ.:     0.0633691 α      in ANC's #1, #3, #4, ...

........................................................................
.............................. CYCLE   38 ..............................
........................................................................

 iter      E             dE          RMSdq      gap      omega  full diag
   1   -100.2193702 -0.100219E+03  0.129E-02    0.10       0.0  T
   2   -100.2193621  0.804333E-05  0.106E-02    0.09       1.2  T
   3   -100.2186097  0.752420E-03  0.691E-02    0.11       1.0  T
   4   -100.2193580 -0.748256E-03  0.101E-02    0.10       1.2  T
   5   -100.2193702 -0.122274E-04  0.147E-03    0.10       8.5  T
   6   -100.2193703 -0.683862E-07  0.998E-04    0.10      12.5  T
   7   -100.2193704 -0.144944E-06  0.260E-04    0.10      48.2  T
     SCC iter.                  ...        0 min,  0.157 sec
     gradient                   ...        0 min,  0.010 sec
 * total energy  :   -98.6030674 Eh     change       -0.1273872E-04 Eh
   gradient norm :     0.0002904 Eh/α   predicted    -0.4565878E-05 ( -64.16%)
   displ. norm   :     0.0819442 α      lambda       -0.8238412E-05
   maximum displ.:     0.0614453 α      in ANC's #1, #4, #3, ...

........................................................................
.............................. CYCLE   39 ..............................
........................................................................

 iter      E             dE          RMSdq      gap      omega  full diag
   1   -100.2194396 -0.100219E+03  0.121E-02    0.10       0.0  T
   2   -100.2194280  0.116360E-04  0.113E-02    0.09       1.1  T
   3   -100.2188335  0.594489E-03  0.618E-02    0.11       1.0  T
   4   -100.2194344 -0.600914E-03  0.675E-03    0.10       1.9  T
   5   -100.2194396 -0.519519E-05  0.159E-03    0.10       7.8  T
   6   -100.2194397 -0.112377E-06  0.900E-04    0.10      13.9  T
   7   -100.2194398 -0.114650E-06  0.266E-04    0.10      47.0  T
     SCC iter.                  ...        0 min,  0.242 sec
     gradient                   ...        0 min,  0.016 sec
 * total energy  :   -98.6030790 Eh     change       -0.1157839E-04 Eh
   gradient norm :     0.0002782 Eh/α   predicted    -0.4131975E-05 ( -64.31%)
   displ. norm   :     0.0729101 α      lambda       -0.7185163E-05
   maximum displ.:     0.0562887 α      in ANC's #1, #4, #3, ...

........................................................................
.............................. CYCLE   40 ..............................
........................................................................

 iter      E             dE          RMSdq      gap      omega  full diag
   1   -100.2194719 -0.100219E+03  0.108E-02    0.10       0.0  T
   2   -100.2193665  0.105330E-03  0.266E-02    0.09       1.0  T
   3   -100.2193860 -0.195013E-04  0.239E-02    0.10       1.0  T
   4   -100.2194699 -0.838634E-04  0.477E-03    0.10       2.6  T
   5   -100.2194723 -0.237002E-05  0.144E-03    0.10       8.7  T
   6   -100.2194724 -0.111855E-06  0.725E-04    0.10      17.2  T
   7   -100.2194724 -0.714511E-07  0.253E-04    0.10      49.5  T
     SCC iter.                  ...        0 min,  0.161 sec
     gradient                   ...        0 min,  0.010 sec
 * total energy  :   -98.6030892 Eh     change       -0.1020588E-04 Eh
   gradient norm :     0.0002735 Eh/α   predicted    -0.3602377E-05 ( -64.70%)
   displ. norm   :     0.0636992 α      lambda       -0.6379146E-05
   maximum displ.:     0.0508491 α      in ANC's #1, #4, #3, ...

........................................................................
.............................. CYCLE   41 ..............................
........................................................................

 iter      E             dE          RMSdq      gap      omega  full diag
   1   -100.2195117 -0.100220E+03  0.983E-03    0.10       0.0  T
   2   -100.2192997  0.212021E-03  0.369E-02    0.09       1.0  T
   3   -100.2194786 -0.178915E-03  0.155E-02    0.10       1.0  T
   4   -100.2195104 -0.317671E-04  0.463E-03    0.10       2.7  T
   5   -100.2195126 -0.220588E-05  0.123E-03    0.10      10.2  T
   6   -100.2195127 -0.980013E-07  0.596E-04    0.10      21.0  T
   7   -100.2195127 -0.508504E-07  0.176E-04    0.10      71.2  T
     SCC iter.                  ...        0 min,  0.133 sec
     gradient                   ...        0 min,  0.012 sec
 * total energy  :   -98.6030983 Eh     change       -0.9149152E-05 Eh
   gradient norm :     0.0002640 Eh/α   predicted    -0.3198058E-05 ( -65.05%)
   displ. norm   :     0.0582526 α      lambda       -0.5996648E-05
   maximum displ.:     0.0479228 α      in ANC's #1, #4, #6, ...

........................................................................
.............................. CYCLE   42 ..............................
........................................................................

 iter      E             dE          RMSdq      gap      omega  full diag
   1   -100.2195366 -0.100220E+03  0.923E-03    0.10       0.0  T
   2   -100.2193809  0.155743E-03  0.317E-02    0.09       1.0  T
   3   -100.2195001 -0.119217E-03  0.161E-02    0.10       1.0  T
   4   -100.2195353 -0.351898E-04  0.462E-03    0.10       2.7  T
   5   -100.2195373 -0.202396E-05  0.904E-04    0.10      13.8  T
   6   -100.2195373 -0.246032E-07  0.558E-04    0.10      22.4  T
   7   -100.2195374 -0.461541E-07  0.137E-04    0.10      91.4  T
     SCC iter.                  ...        0 min,  0.145 sec
     gradient                   ...        0 min,  0.010 sec
 * total energy  :   -98.6031070 Eh     change       -0.8700246E-05 Eh
   gradient norm :     0.0002521 Eh/α   predicted    -0.3006871E-05 ( -65.44%)
   displ. norm   :     0.0557012 α      lambda       -0.5930292E-05
   maximum displ.:     0.0466023 α      in ANC's #1, #4, #6, ...
 * RMSD in coord.:     0.2009885 α      energy gain  -0.5742065E-03 Eh

generating ANC from model Hessian ...
Using Lindh-Hessian (1995)
 Shifting diagonal of input Hessian by    9.8827356956612926E-003
 Lowest  eigenvalues of input Hessian
    0.000000    0.000000    0.000000    0.000000    0.000000    0.000000
    0.010000    0.010038    0.010478    0.010549    0.011211    0.011775
    0.012138    0.012762    0.012869    0.013626    0.014105    0.015471
 Highest eigenvalues
    2.024764    2.074475    2.104975    2.122290    2.176778    2.289640


........................................................................
.............................. CYCLE   43 ..............................
........................................................................

 iter      E             dE          RMSdq      gap      omega  full diag
   1   -100.2195385 -0.100220E+03  0.935E-03    0.10       0.0  T
   2   -100.2193202  0.218330E-03  0.373E-02    0.09       1.0  T
   3   -100.2195092 -0.189046E-03  0.147E-02    0.10       1.0  T
   4   -100.2195373 -0.281082E-04  0.481E-03    0.10       2.6  T
   5   -100.2195395 -0.213675E-05  0.791E-04    0.10      15.8  T
   6   -100.2195395 -0.145698E-08  0.579E-04    0.10      21.6  T
   7   -100.2195395 -0.521003E-07  0.969E-05    0.10     129.0  T
     SCC iter.                  ...        0 min,  0.154 sec
     gradient                   ...        0 min,  0.010 sec
 * total energy  :   -98.6031156 Eh     change       -0.8545760E-05 Eh
   gradient norm :     0.0002343 Eh/α   predicted     0.0000000E+00 (-100.00%)
   displ. norm   :     0.0270743 α      lambda       -0.8312350E-07
   maximum displ.:     0.0258189 α      in ANC's #1, #3, #5, ...

........................................................................
.............................. CYCLE   44 ..............................
........................................................................

 iter      E             dE          RMSdq      gap      omega  full diag
   1   -100.2195433 -0.100220E+03  0.411E-03    0.10       0.0  T
   2   -100.2194953  0.479747E-04  0.175E-02    0.09       1.0  T
   3   -100.2195391 -0.438207E-04  0.567E-03    0.10       2.2  T
   4   -100.2195432 -0.410232E-05  0.159E-03    0.10       7.9  T
   5   -100.2195435 -0.263462E-06  0.416E-04    0.10      30.1  T
   6   -100.2195435 -0.172671E-07  0.903E-05    0.10     138.4  T
     SCC iter.                  ...        0 min,  0.096 sec
     gradient                   ...        0 min,  0.020 sec
 * total energy  :   -98.6031206 Eh     change       -0.5012545E-05 Eh
   gradient norm :     0.0001936 Eh/α   predicted    -0.1697338E-05 ( -66.14%)
   displ. norm   :     0.0363076 α      lambda       -0.4384489E-05
   maximum displ.:     0.0318188 α      in ANC's #1, #3, #5, ...

........................................................................
.............................. CYCLE   45 ..............................
........................................................................

 iter      E             dE          RMSdq      gap      omega  full diag
   1   -100.2195204 -0.100220E+03  0.580E-03    0.10       0.0  T
   2   -100.2194649  0.555070E-04  0.189E-02    0.09       1.0  T
   3   -100.2195052 -0.403224E-04  0.103E-02    0.10       1.2  T
   4   -100.2195204 -0.152493E-04  0.150E-03    0.10       8.3  T
   5   -100.2195206 -0.162781E-06  0.599E-04    0.10      20.9  T
   6   -100.2195206 -0.334916E-07  0.224E-04    0.10      55.9  T
     SCC iter.                  ...        0 min,  0.126 sec
     gradient                   ...        0 min,  0.010 sec
 * total energy  :   -98.6031270 Eh     change       -0.6406266E-05 Eh
   gradient norm :     0.0001902 Eh/α   predicted    -0.2205063E-05 ( -65.58%)
   displ. norm   :     0.0496517 α      lambda       -0.5619185E-05
   maximum displ.:     0.0415805 α      in ANC's #1, #3, #5, ...

........................................................................
.............................. CYCLE   46 ..............................
........................................................................

 iter      E             dE          RMSdq      gap      omega  full diag
   1   -100.2194848 -0.100219E+03  0.807E-03    0.10       0.0  T
   2   -100.2193286  0.156226E-03  0.316E-02    0.09       1.0  T
   3   -100.2194665 -0.137977E-03  0.118E-02    0.10       1.1  T
   4   -100.2194853 -0.187830E-04  0.126E-03    0.10       9.9  T
   5   -100.2194854 -0.108766E-06  0.688E-04    0.10      18.2  T
   6   -100.2194855 -0.735812E-07  0.173E-04    0.10      72.3  T
     SCC iter.                  ...        0 min,  0.175 sec
     gradient                   ...        0 min,  0.011 sec
 * total energy  :   -98.6031351 Eh     change       -0.8080192E-05 Eh
   gradient norm :     0.0001967 Eh/α   predicted    -0.2812818E-05 ( -65.19%)
   displ. norm   :     0.0604831 α      lambda       -0.6293079E-05
   maximum displ.:     0.0498519 α      in ANC's #1, #3, #5, ...

........................................................................
.............................. CYCLE   47 ..............................
........................................................................

 iter      E             dE          RMSdq      gap      omega  full diag
   1   -100.2194673 -0.100219E+03  0.951E-03    0.10       0.0  T
   2   -100.2194135  0.538361E-04  0.193E-02    0.10       1.0  T
   3   -100.2193713  0.422438E-04  0.250E-02    0.09       1.0  T
   4   -100.2194659 -0.946076E-04  0.388E-03    0.10       3.2  T
   5   -100.2194672 -0.137336E-05  0.163E-03    0.10       7.7  T
   6   -100.2194676 -0.359186E-06  0.553E-04    0.10      22.6  T
   7   -100.2194676 -0.452864E-07  0.135E-04    0.10      92.4  T
     SCC iter.                  ...        0 min,  0.127 sec
     gradient                   ...        0 min,  0.010 sec
 * total energy  :   -98.6031440 Eh     change       -0.8955794E-05 Eh
   gradient norm :     0.0001893 Eh/α   predicted    -0.3152020E-05 ( -64.80%)
   displ. norm   :     0.0626909 α      lambda       -0.5994839E-05
   maximum displ.:     0.0519913 α      in ANC's #1, #3, #5, ...

........................................................................
.............................. CYCLE   48 ..............................
........................................................................

 iter      E             dE          RMSdq      gap      omega  full diag
   1   -100.2194417 -0.100219E+03  0.978E-03    0.10       0.0  T
   2   -100.2194311  0.106241E-04  0.100E-02    0.10       1.2  T
   3   -100.2189553  0.475837E-03  0.552E-02    0.09       1.0  T
   4   -100.2194400 -0.484773E-03  0.354E-03    0.10       3.5  T
   5   -100.2194414 -0.139449E-05  0.157E-03    0.10       7.9  T
   6   -100.2194418 -0.336646E-06  0.488E-04    0.10      25.6  T
   7   -100.2194418 -0.354411E-07  0.100E-04    0.10     124.7  T
     SCC iter.                  ...        0 min,  0.127 sec
     gradient                   ...        0 min,  0.010 sec
 * total energy  :   -98.6031526 Eh     change       -0.8527883E-05 Eh
   gradient norm :     0.0001793 Eh/α   predicted    -0.3002973E-05 ( -64.79%)
   displ. norm   :     0.0558870 α      lambda       -0.5022816E-05
   maximum displ.:     0.0474223 α      in ANC's #1, #3, #5, ...

........................................................................
.............................. CYCLE   49 ..............................
........................................................................

 iter      E             dE          RMSdq      gap      omega  full diag
   1   -100.2194514 -0.100219E+03  0.868E-03    0.10       0.0  T
   2   -100.2194441  0.731838E-05  0.850E-03    0.10       1.5  T
   3   -100.2191378  0.306323E-03  0.445E-02    0.11       1.0  T
   4   -100.2194510 -0.313252E-03  0.212E-03    0.10       5.9  T
   5   -100.2194513 -0.325152E-06  0.925E-04    0.10      13.5  T
   6   -100.2194515 -0.105738E-06  0.294E-04    0.10      42.6  T
     SCC iter.                  ...        0 min,  0.107 sec
     gradient                   ...        0 min,  0.010 sec
 * total energy  :   -98.6031598 Eh     change       -0.7206522E-05 Eh
   gradient norm :     0.0001824 Eh/α   predicted    -0.2517268E-05 ( -65.07%)
   displ. norm   :     0.0449412 α      lambda       -0.3976560E-05
   maximum displ.:     0.0394305 α      in ANC's #1, #3, #5, ...

........................................................................
.............................. CYCLE   50 ..............................
........................................................................

 iter      E             dE          RMSdq      gap      omega  full diag
   1   -100.2194677 -0.100219E+03  0.707E-03    0.10       0.0  T
   2   -100.2194044  0.633567E-04  0.204E-02    0.09       1.0  T
   3   -100.2194443 -0.399323E-04  0.127E-02    0.10       1.0  T
   4   -100.2194662 -0.218622E-04  0.434E-03    0.10       2.9  T
   5   -100.2194680 -0.186906E-05  0.331E-04    0.10      37.7  T
   6   -100.2194680  0.339637E-08  0.288E-04    0.10      43.3  T
   7   -100.2194680 -0.128851E-07  0.732E-05    0.10     170.7  T
     SCC iter.                  ...        0 min,  0.155 sec
     gradient                   ...        0 min,  0.011 sec
 * total energy  :   -98.6031656 Eh     change       -0.5791476E-05 Eh
   gradient norm :     0.0001867 Eh/α   predicted    -0.1990417E-05 ( -65.63%)
   displ. norm   :     0.0355658 α      lambda       -0.3247305E-05
   maximum displ.:     0.0324569 α      in ANC's #1, #3, #5, ...

........................................................................
.............................. CYCLE   51 ..............................
........................................................................

 iter      E             dE          RMSdq      gap      omega  full diag
   1   -100.2194716 -0.100219E+03  0.589E-03    0.10       0.0  T
   2   -100.2193364  0.135253E-03  0.293E-02    0.10       1.0  T
   3   -100.2194673 -0.130904E-03  0.643E-03    0.10       1.9  T
   4   -100.2194721 -0.481576E-05  0.154E-03    0.10       8.1  T
   5   -100.2194723 -0.219622E-06  0.587E-04    0.10      21.3  T
   6   -100.2194724 -0.475072E-07  0.729E-05    0.10     171.6  T
     SCC iter.                  ...        0 min,  0.091 sec
     gradient                   ...        0 min,  0.010 sec
 * total energy  :   -98.6031703 Eh     change       -0.4769351E-05 Eh
   gradient norm :     0.0001691 Eh/α   predicted    -0.1624896E-05 ( -65.93%)
   displ. norm   :     0.0295577 α      lambda       -0.2847128E-05
   maximum displ.:     0.0278858 α      in ANC's #1, #3, #2, ...

   *** GEOMETRY OPTIMIZATION CONVERGED AFTER 51 ITERATIONS ***

------------------------------------------------------------------------
 total energy gain   :        -0.0445844 Eh      -27.9772 kcal/mol
 total RMSD          :         0.9839665 a0        0.5207 Å
 total power (kW/mol):        -2.2952237 (step)  -10.6052 (real)
------------------------------------------------------------------------

 ANCopt (total)                0 d,  0 h,  0 min, 11.038 sec
 optimizer setup                ...        0 min,  0.000 sec (  0.001%)
 model hessian                  ...        0 min,  0.067 sec (  0.605%)
 ANC generation                 ...        0 min,  0.028 sec (  0.252%)
 coordinate transformation      ...        0 min,  0.001 sec (  0.009%)
 single point calculation       ...        0 min, 10.926 sec ( 98.987%)
 optimization log               ...        0 min,  0.007 sec (  0.061%)
 hessian update                 ...        0 min,  0.003 sec (  0.026%)
[...]
 iterations                     ...        0 min,  0.060 sec ( 78.127%)
 molecular gradient             ...        0 min,  0.012 sec ( 15.082%)
 printout                       ...        0 min,  0.001 sec (  1.906%)

         :::::::::::::::::::::::::::::::::::::::::::::::::::::
         ::                     SUMMARY                     ::
         :::::::::::::::::::::::::::::::::::::::::::::::::::::
         :: total energy             -98.603170341164 Eh    ::
         :: gradient norm              0.000172685853 Eh/a0 ::
         :: HOMO-LUMO gap              0.096581100449 eV    ::
         ::.................................................::
         :: SCC energy              -100.219472353713 Eh    ::
         :: -> isotropic ES            0.169815486327 Eh    ::
         :: -> anisotropic ES          0.016281723120 Eh    ::
         :: -> anisotropic XC          0.037827672430 Eh    ::
         :: -> dispersion             -0.091720129661 Eh    ::
         :: repulsion energy           1.614788132250 Eh    ::
         :: add. restraining           0.000000000000 Eh    ::
         :: total charge              -1.000000001097 e     ::
         :::::::::::::::::::::::::::::::::::::::::::::::::::::

           -------------------------------------------------
          |                Property Printout                |
           -------------------------------------------------

    * Orbital Energies and Occupations

         #    Occupation            Energy/Eh            Energy/eV
      -------------------------------------------------------------
         1        2.0000           -0.5665140             -15.4156
       ...           ...                  ...                  ...
        79        2.0000           -0.3178741              -8.6498
        80        2.0000           -0.3102338              -8.4419
        81        2.0000           -0.3060768              -8.3288
        82        2.0000           -0.3049707              -8.2987
        83        2.0000           -0.2977705              -8.1027
        84        2.0000           -0.2858139              -7.7774
        85        2.0000           -0.2809921              -7.6462
        86        2.0000           -0.2686560              -7.3105
        87        2.0000           -0.2628485              -7.1525
        88        2.0000           -0.2394959              -6.5170
        89        2.0000           -0.2366992              -6.4409
        90        2.0000           -0.2303900              -6.2692
        91        1.7320           -0.1733471              -4.7170 (HOMO)
        92        0.2672           -0.1697978              -4.6204 (LUMO)
        93        0.0008           -0.1641493              -4.4667
        94                         -0.1433163              -3.8998
        95                         -0.1380531              -3.7566
        96                         -0.1108110              -3.0153
        97                         -0.1034096              -2.8139
        98                         -0.0839556              -2.2845
        99                         -0.0769093              -2.0928
       100                         -0.0592063              -1.6111
       101                         -0.0404348              -1.1003
       102                         -0.0141909              -0.3862
       ...                                ...                  ...
       175                          0.8271556              22.5080
      -------------------------------------------------------------
                  HL-Gap            0.0035493 Eh            0.0966 eV
             Fermi-level           -0.1715741 Eh           -4.6688 eV

     #   Z          covCN         q      C6AA      α(0)
     1   6 C        2.979     0.001    28.003     8.680
     2   6 C        2.978    -0.005    28.133     8.700
     3   6 C        2.979    -0.005    28.143     8.702
     4   6 C        2.989     0.001    28.003     8.681
     5   6 C        2.987    -0.001    28.035     8.685
     6   6 C        2.987    -0.002    28.079     8.692
     7   6 C        2.979     0.002    27.971     8.675
     8   6 C        2.981     0.011    27.757     8.642
     9   6 C        2.987     0.004    27.924     8.668
    10   6 C        2.988     0.009    27.810     8.651
    11   6 C        2.918    -0.051    29.277     8.873
    12   6 C        2.918    -0.048    29.191     8.860
    13   6 C        2.918    -0.048    29.180     8.858
    14   6 C        2.917    -0.044    29.094     8.845
    15   6 C        2.916    -0.047    29.155     8.854
    16   6 C        2.917    -0.043    29.073     8.842
    17   6 C        2.916    -0.039    28.971     8.826
    18   6 C        2.915    -0.047    29.170     8.857
    19   6 C        2.917    -0.040    28.984     8.828
    20   6 C        2.920    -0.036    28.884     8.813
    21   6 C        2.928    -0.051    29.267     8.872
    22   6 C        2.923    -0.041    29.019     8.834
    23   6 C        2.920    -0.041    29.014     8.833
    24   6 C        2.918    -0.034    28.848     8.808
    25   6 C        2.967     0.017    27.625     8.621
    26   6 C        2.916    -0.033    28.832     8.805
    27   1 H        0.925     0.005     2.969     2.695
    28   1 H        0.925     0.008     2.928     2.676
    29   1 H        0.925     0.007     2.943     2.683
    30   1 H        0.925     0.008     2.923     2.673
    31   1 H        0.925     0.008     2.927     2.676
    32   1 H        0.925     0.009     2.908     2.667
    33   1 H        0.926     0.023     2.688     2.564
    34   1 H        0.925     0.011     2.872     2.650
    35   1 H        0.926     0.021     2.711     2.575
    36   1 H        0.926     0.028     2.609     2.526
    37   1 H        0.926     0.077     2.005     2.214
    38   1 H        0.925     0.015     2.807     2.620
    39   1 H        0.926     0.075     2.030     2.228
    40   1 H        0.926     0.017     2.781     2.608
    41   6 C        2.901     0.048    26.919     8.507
    42   1 H        0.926     0.014     2.820     2.626
    43   6 C        3.891     0.054    19.625     6.298
    44   6 C        3.891     0.054    19.613     6.296
    45   6 C        3.758    -0.102    22.508     6.764
    46   6 C        3.759    -0.102    22.503     6.763
    47   6 C        3.758    -0.103    22.513     6.765
    48   6 C        3.759    -0.103    22.508     6.764
    49   7 N        2.800     0.104    19.458     6.551
    50   8 O        0.922    -0.572    25.397     6.758
    51   7 N        2.800     0.099    19.541     6.565
    52   8 O        0.922    -0.577    25.510     6.773
    53   1 H        0.925     0.034     2.524     2.484
    54   1 H        0.925     0.025     2.656     2.548
    55   1 H        0.925     0.058     2.226     2.333
    56   1 H        0.925     0.040     2.454     2.450
    57   1 H        0.925     0.064     2.156     2.296
    58   1 H        0.925     0.021     2.714     2.576
    59   1 H        0.925     0.033     2.538     2.491
    60   1 H        0.925     0.025     2.660     2.551
    61   1 H        0.925     0.057     2.235     2.338
    62   1 H        0.925     0.040     2.452     2.449
    63   1 H        0.925     0.064     2.153     2.295
    64   1 H        0.925     0.021     2.715     2.577

 Mol. C6AA /au·bohr⁶  :      54833.132926
 Mol. C8AA /au·bohr⁸  :    1349884.610775
 Mol. α(0) /au        :        370.878362


Wiberg/Mayer (AO) data.
largest (>0.10) Wiberg bond orders for each atom

 ---------------------------------------------------------------------------
     #   Z sym  total        # sym  WBO       # sym  WBO       # sym  WBO
 ---------------------------------------------------------------------------
     1   6 C    3.979 --     4 C    1.287     3 C    1.235     2 C    1.204
     2   6 C    3.943 --     5 C    1.299     1 C    1.204     7 C    1.198
     3   6 C    3.925 --     6 C    1.284     1 C    1.235     8 C    1.175
     4   6 C    3.973 --     1 C    1.287    11 C    1.267    12 C    1.236
     5   6 C    3.970 --     2 C    1.299    13 C    1.271    15 C    1.217
     6   6 C    3.954 --     3 C    1.284    14 C    1.252    16 C    1.242
     7   6 C    3.985 --    19 C    1.299     9 C    1.258     2 C    1.198
     8   6 C    3.987 --    20 C    1.325    10 C    1.274     3 C    1.175
     9   6 C    3.979 --    21 C    1.335     7 C    1.258    17 C    1.211
    10   6 C    3.987 --    22 C    1.313     8 C    1.274    18 C    1.218
    11   6 C    3.937 --    13 C    1.545     4 C    1.267    27 H    0.968
    12   6 C    3.949 --    14 C    1.587     4 C    1.236    28 H    0.968
    13   6 C    3.941 --    11 C    1.545     5 C    1.271    29 H    0.968
    14   6 C    3.975 --    12 C    1.587     6 C    1.252    30 H    0.968
    15   6 C    3.985 --    17 C    1.631     5 C    1.217    31 H    0.967
    16   6 C    3.973 --    18 C    1.597     6 C    1.242    32 H    0.968
    17   6 C    3.975 --    15 C    1.631     9 C    1.211    33 H    0.968
    18   6 C    3.933 --    16 C    1.597    10 C    1.218    34 H    0.969
    19   6 C    3.980 --    23 C    1.543     7 C    1.299    35 H    0.962
    20   6 C    3.961 --    24 C    1.496     8 C    1.325    36 H    0.963
                            22 C    0.103
    21   6 C    3.970 --    25 C    1.421     9 C    1.335    37 H    0.949
    22   6 C    3.955 --    26 C    1.502    10 C    1.313    38 H    0.969
                            20 C    0.103
    23   6 C    3.979 --    19 C    1.543    25 C    1.282    39 H    0.953
    24   6 C    3.974 --    20 C    1.496    26 C    1.366    40 H    0.972
    25   6 C    3.969 --    21 C    1.421    23 C    1.282    41 C    1.103
    26   6 C    3.972 --    22 C    1.502    24 C    1.366    42 H    0.972
    27   1 H    0.999 --    11 C    0.968
    28   1 H    0.999 --    12 C    0.968
    29   1 H    0.999 --    13 C    0.968
    30   1 H    0.999 --    14 C    0.968
    31   1 H    0.999 --    15 C    0.967
    32   1 H    0.999 --    16 C    0.968
    33   1 H    0.998 --    17 C    0.968
    34   1 H    0.998 --    18 C    0.969
    35   1 H    0.999 --    19 C    0.962
    36   1 H    0.999 --    20 C    0.963
    37   1 H    0.993 --    21 C    0.949
    38   1 H    0.999 --    22 C    0.969
    39   1 H    0.994 --    23 C    0.953
    40   1 H    0.999 --    24 C    0.972
    41   6 C    3.947 --    49 N    1.255    51 N    1.249    25 C    1.103
                            50 O    0.133    52 O    0.129
    42   1 H    0.999 --    26 C    0.972
    43   6 C    3.978 --    45 C    0.998    48 C    0.986    44 C    0.962
                            49 N    0.932
    44   6 C    3.978 --    47 C    0.999    46 C    0.985    43 C    0.962
                            51 N    0.933
    45   6 C    3.993 --    43 C    0.998    58 H    0.986    56 H    0.983
                            57 H    0.979
    46   6 C    3.990 --    44 C    0.985    60 H    0.985    59 H    0.985
                            61 H    0.981
    47   6 C    3.992 --    44 C    0.999    64 H    0.986    62 H    0.983
                            63 H    0.979
    48   6 C    3.989 --    43 C    0.986    54 H    0.985    53 H    0.985
                            55 H    0.981
    49   7 N    3.557 --    41 C    1.255    50 O    1.124    43 C    0.932
                            51 N    0.113
    50   8 O    1.451 --    49 N    1.124    41 C    0.133
    51   7 N    3.548 --    41 C    1.249    52 O    1.119    44 C    0.933
                            49 N    0.113
    52   8 O    1.445 --    51 N    1.119    41 C    0.129
    53   1 H    0.999 --    48 C    0.985
    54   1 H    0.999 --    48 C    0.985
    55   1 H    0.996 --    48 C    0.981
    56   1 H    0.998 --    45 C    0.983
    57   1 H    0.995 --    45 C    0.979
    58   1 H    0.999 --    45 C    0.986
    59   1 H    0.999 --    46 C    0.985
    60   1 H    0.999 --    46 C    0.985
    61   1 H    0.996 --    46 C    0.981
    62   1 H    0.998 --    47 C    0.983
    63   1 H    0.995 --    47 C    0.979
    64   1 H    0.999 --    47 C    0.986
 ---------------------------------------------------------------------------

Topologies differ in bond orders
Writing corrected topology to xtbtopo.mol

molecular dipole:
                 x           y           z       tot (Debye)
 q only:       -0.191       1.624      -1.067
   full:       -0.254       1.602      -1.010       4.857
molecular quadrupole (traceless):
                xx          xy          yy          xz          yz          zz
 q only:      -21.883      -1.675      -2.079     -11.827       8.992      23.962
  q+dip:      -20.767       1.597       2.928      -3.545       9.839      17.840
   full:      -20.792       1.171      -1.323      -9.524      10.988      22.115

           -------------------------------------------------
          |                Geometry Summary                 |
           -------------------------------------------------

      molecular mass/u    :      483.5809012
   center of mass at/Å    :        0.9203189      -0.8080508       0.4768152
  moments of inertia/u·Å² :        0.2542131E+04   0.7393189E+04   0.8766538E+04
rotational constants/cm⁻¹ :        0.6631298E-02   0.2280157E-02   0.1922952E-02

 * 64 selected distances

     #   Z          #   Z                                           value/Å
     1   6 C        3   6 C                                       1.4294591
     1   6 C        4   6 C                                       1.4169487
     2   6 C        5   6 C                                       1.4134702
     3   6 C        6   6 C                                       1.4162737
     7   6 C        9   6 C                                       1.4188277
     8   6 C       10   6 C                                       1.4169477
     4   6 C       11   6 C                                       1.4103521
     4   6 C       12   6 C                                       1.4173711
     5   6 C       13   6 C                                       1.4095964
    11   6 C       13   6 C                                       1.3644766
     6   6 C       14   6 C                                       1.4133229
    12   6 C       14   6 C                                       1.3584608
     5   6 C       15   6 C                                       1.4218826
     6   6 C       16   6 C                                       1.4155264
     9   6 C       17   6 C                                       1.4226894
    15   6 C       17   6 C                                       1.3532181
    10   6 C       18   6 C                                       1.4207925
    16   6 C       18   6 C                                       1.3577940
     7   6 C       19   6 C                                       1.4082649
     8   6 C       20   6 C                                       1.4039647
     9   6 C       21   6 C                                       1.3981096
    10   6 C       22   6 C                                       1.4037917
    19   6 C       23   6 C                                       1.3676404
    20   6 C       24   6 C                                       1.3742681
    21   6 C       25   6 C                                       1.3855717
    23   6 C       25   6 C                                       1.4107944
    22   6 C       26   6 C                                       1.3725880
    24   6 C       26   6 C                                       1.3932955
    11   6 C       27   1 H                                       1.0820916
    12   6 C       28   1 H                                       1.0822206
    13   6 C       29   1 H                                       1.0821176
    14   6 C       30   1 H                                       1.0823875
Note: The following floating-point exceptions are signalling: IEEE_UNDERFLOW_FLAG
normal termination of xtb
    15   6 C       31   1 H                                       1.0827664
    16   6 C       32   1 H                                       1.0826488
    17   6 C       33   1 H                                       1.0811225
    18   6 C       34   1 H                                       1.0815479
    19   6 C       35   1 H                                       1.0797130
    20   6 C       36   1 H                                       1.0786636 (min)
    21   6 C       37   1 H                                       1.0798958
    22   6 C       38   1 H                                       1.0819163
    23   6 C       39   1 H                                       1.0792545
    24   6 C       40   1 H                                       1.0807619
    26   6 C       42   1 H                                       1.0810520
    43   6 C       44   6 C                                       1.5395722 (max)
    43   6 C       45   6 C                                       1.5254301
    44   6 C       46   6 C                                       1.5362495
    44   6 C       47   6 C                                       1.5252127
    43   6 C       48   6 C                                       1.5355313
    41   6 C       49   7 N                                       1.3445720
    43   6 C       49   7 N                                       1.4767589
    41   6 C       51   7 N                                       1.3466773
    44   6 C       51   7 N                                       1.4760773
    48   6 C       53   1 H                                       1.0877820
    48   6 C       54   1 H                                       1.0876632
    48   6 C       55   1 H                                       1.0885134
    45   6 C       56   1 H                                       1.0854028
    45   6 C       57   1 H                                       1.0879439
    45   6 C       58   1 H                                       1.0879130
    46   6 C       59   1 H                                       1.0878945
    46   6 C       60   1 H                                       1.0875518
    46   6 C       61   1 H                                       1.0885575
    47   6 C       62   1 H                                       1.0852505
    47   6 C       63   1 H                                       1.0880755
    47   6 C       64   1 H                                       1.0878979

 * 3 distinct bonds (by element types)

   Z      Z             #   av. dist./Å        max./Å        min./Å
   1 H    6 C          27     1.0840224     1.0885575     1.0786636
   6 C    6 C          33     1.4199301     1.5395722     1.3532181
   6 C    7 N           4     1.4110214     1.4767589     1.3445720


optimized geometry written to: xtbopt.mol


           -------------------------------------------------
          | TOTAL ENERGY              -98.603170341164 Eh   |
          | GRADIENT NORM               0.000172685853 Eh/α |
          | HOMO-LUMO GAP               0.096581100449 eV   |
           -------------------------------------------------
########################################################################
[WARNING] Runtime exception occurred
-2- restart_readRestart: Multiplicity missmatch in restart file.
-1- restart_readRestart: Number of electron missmatch in restart file.
########################################################################

------------------------------------------------------------------------
 * finished run on 2024/11/14 at 10:37:51.366     
------------------------------------------------------------------------
 total:
 * wall-time:     0 d,  0 h,  0 min, 11.941 sec
 *  cpu-time:     0 d,  0 h,  0 min, 36.934 sec
 * ratio c/w:     3.093 speedup
 SCF:
 * wall-time:     0 d,  0 h,  0 min,  0.816 sec
 *  cpu-time:     0 d,  0 h,  0 min,  3.201 sec
 * ratio c/w:     3.924 speedup
 ANC optimizer:
 * wall-time:     0 d,  0 h,  0 min, 11.116 sec
 *  cpu-time:     0 d,  0 h,  0 min, 33.719 sec
 * ratio c/w:     3.033 speedup

