      -----------------------------------------------------------      
     |                   =====================                   |     
     |                           x T B                           |     
     |                   =====================                   |     
     |                         S. Grimme                         |     
     |          Mulliken Center for Theoretical Chemistry        |     
     |                    University of Bonn                     |     
      -----------------------------------------------------------      

   * xtb version 6.6.1 (8d0f1dd) compiled by 'runner@Mac-1690902418499.local' on 2023-08-01

   xtb is free software: you can redistribute it and/or modify it under
   the terms of the GNU Lesser General Public License as published by
   the Free Software Foundation, either version 3 of the License, or
   (at your option) any later version.
   
   xtb is distributed in the hope that it will be useful,
   but WITHOUT ANY WARRANTY; without even the implied warranty of
   MERCHANTABILITY or FITNESS FOR A PARTICULAR PURPOSE.  See the
   GNU Lesser General Public License for more details.
   
   Cite this work as:
   * C. Bannwarth, E. Caldeweyher, S. Ehlert, A. Hansen, P. Pracht,
     J. Seibert, S. Spicher, S. Grimme, WIREs Comput. Mol. Sci., 2020, 11,
     e01493. DOI: 10.1002/wcms.1493
   
   for GFN2-xTB:
   * C. Bannwarth, S. Ehlert and S. Grimme., J. Chem. Theory Comput., 2019,
     15, 1652-1671. DOI: 10.1021/acs.jctc.8b01176
   for GFN1-xTB:
   * S. Grimme, C. Bannwarth, P. Shushkov, J. Chem. Theory Comput., 2017,
     13, 1989-2009. DOI: 10.1021/acs.jctc.7b00118
   for GFN0-xTB:
   * P. Pracht, E. Caldeweyher, S. Ehlert, S. Grimme, ChemRxiv, 2019, preprint.
     DOI: 10.26434/chemrxiv.8326202.v1
   for GFN-FF:
   * S. Spicher and S. Grimme, Angew. Chem. Int. Ed., 2020, 59, 15665-15673.
     DOI: 10.1002/anie.202004239
   
   for ALPB and GBSA implicit solvation:
   * S. Ehlert, M. Stahn, S. Spicher, S. Grimme, J. Chem. Theory Comput.,
     2021, 17, 4250-4261. DOI: 10.1021/acs.jctc.1c00471
   
   for DFT-D4:
   * E. Caldeweyher, C. Bannwarth and S. Grimme, J. Chem. Phys., 2017,
     147, 034112. DOI: 10.1063/1.4993215
   * E. Caldeweyher, S. Ehlert, A. Hansen, H. Neugebauer, S. Spicher,
     C. Bannwarth and S. Grimme, J. Chem. Phys., 2019, 150, 154122.
     DOI: 10.1063/1.5090222
   * E. Caldeweyher, J.-M. Mewes, S. Ehlert and S. Grimme, Phys. Chem. Chem. Phys.
     2020, 22, 8499-8512. DOI: 10.1039/D0CP00502A
   
   for sTDA-xTB:
   * S. Grimme and C. Bannwarth, J. Chem. Phys., 2016, 145, 054103.
     DOI: 10.1063/1.4959605
   
   in the mass-spec context:
   * V. Asgeirsson, C. Bauer and S. Grimme, Chem. Sci., 2017, 8, 4879.
     DOI: 10.1039/c7sc00601b
   * J. Koopman and S. Grimme, ACS Omega 2019, 4, 12, 15120-15133.
     DOI: 10.1021/acsomega.9b02011
   
   for metadynamics refer to:
   * S. Grimme, J. Chem. Theory Comput., 2019, 155, 2847-2862
     DOI: 10.1021/acs.jctc.9b00143
   
   for SPH calculations refer to:
   * S. Spicher and S. Grimme, J. Chem. Theory Comput., 2021, 17, 1701-1714
     DOI: 10.1021/acs.jctc.0c01306
   
   with help from (in alphabetical order)
   P. Atkinson, C. Bannwarth, F. Bohle, G. Brandenburg, E. Caldeweyher
   M. Checinski, S. Dohm, S. Ehlert, S. Ehrlich, I. Gerasimov, C. Hölzer
   A. Katbashev, J. Koopman, C. Lavigne, S. Lehtola, F. März, M. Müller,
   F. Musil, H. Neugebauer, J. Pisarek, C. Plett, P. Pracht, F. Pultar,
   J. Seibert, P. Shushkov, S. Spicher, M. Stahn, M. Steiner, T. Strunk,
   J. Stückrath, T. Rose, and J. Unsleber
   
 * started run on 2024/11/14 at 10:51:52.296     

           -------------------------------------------------
          |                Calculation Setup                |
           -------------------------------------------------

          program call               : xtb opt_radical_Nitro2.mol --gfn2 --sp --chrg -1 --uhf 0
          coordinate file            : opt_radical_Nitro2.mol
          omp threads                :                     8

   ID    Z sym.   atoms
    1    6 C      1-26, 41, 43-48
    2    1 H      27-40, 42, 53-64
    3    7 N      49, 51
    4    8 O      50, 52

           -------------------------------------------------
          |                 G F N 2 - x T B                 |
           -------------------------------------------------

        Reference                      10.1021/acs.jctc.8b01176
      * Hamiltonian:
        H0-scaling (s, p, d)           1.850000    2.230000    2.230000
        zeta-weighting                 0.500000
      * Dispersion:
        s8                             2.700000
        a1                             0.520000
        a2                             5.000000
        s9                             5.000000
      * Repulsion:
        kExp                           1.500000    1.000000
        rExp                           1.000000
      * Coulomb:
        alpha                          2.000000
        third order                    shell-resolved
        anisotropic                    true
        a3                             3.000000
        a5                             4.000000
        cn-shift                       1.200000
        cn-exp                         4.000000
        max-rad                        5.000000

q/qsh data taken from xtbrestart
CAMM data taken from xtbrestart

          ...................................................
          :                      SETUP                      :
          :.................................................:
          :  # basis functions                 175          :
          :  # atomic orbitals                 175          :
          :  # shells                          101          :
          :  # electrons                       182          :
          :  max. iterations                   250          :
          :  Hamiltonian                  GFN2-xTB          :
          :  restarted?                       true          :
          :  GBSA solvation                  false          :
          :  PC potential                    false          :
          :  electronic temp.          300.0000000     K    :
          :  accuracy                    1.0000000          :
          :  -> integral cutoff          0.2500000E+02      :
          :  -> integral neglect         0.1000000E-07      :
          :  -> SCF convergence          0.1000000E-05 Eh   :
          :  -> wf. convergence          0.1000000E-03 e    :
          :  Broyden damping             0.4000000          :
          ...................................................

 iter      E             dE          RMSdq      gap      omega  full diag
   1   -100.1862376 -0.100186E+03  0.960E-01    1.39       0.0  T
   2    -99.7417905  0.444447E+00  0.171E+00    0.11       1.0  T
   3   -100.1828266 -0.441036E+00  0.778E-01    1.32       1.0  T
   4   -100.1998097 -0.169831E-01  0.579E-01    0.96       1.0  T
   5   -100.2041783 -0.436865E-02  0.462E-01    0.61       1.0  T
   6   -100.2226577 -0.184794E-01  0.241E-01    0.15       1.0  T
   7   -100.0050075  0.217650E+00  0.119E+00    0.06       1.0  T
   8   -100.2200773 -0.215070E+00  0.274E-01    0.17       1.0  T
   9   -100.2176740  0.240327E-02  0.292E-01    0.19       1.0  T
  10   -100.2179150 -0.241066E-03  0.288E-01    0.19       1.0  T
  11   -100.2231239 -0.520883E-02  0.218E-01    0.14       1.0  T
  12   -100.2280417 -0.491784E-02  0.125E-01    0.11       1.0  T
  13   -100.2292424 -0.120070E-02  0.890E-02    0.10       1.0  T
  14   -100.2303657 -0.112332E-02  0.279E-02    0.09       1.0  T
  15   -100.2304774 -0.111662E-03  0.868E-03    0.08       1.4  T
  16   -100.2304666  0.108343E-04  0.120E-02    0.08       1.0  T
  17   -100.2304864 -0.198301E-04  0.411E-03    0.08       3.0  T
  18   -100.2304891 -0.268980E-05  0.272E-04    0.08      46.0  T
  19   -100.2304891 -0.826921E-08  0.112E-04    0.08     111.9  T
  20   -100.2304891  0.415211E-08  0.191E-04    0.08      65.5  T

   *** convergence criteria satisfied after 20 iterations ***

         #    Occupation            Energy/Eh            Energy/eV
      -------------------------------------------------------------
         1        2.0000           -0.5696358             -15.5006
       ...           ...                  ...                  ...
        85        2.0000           -0.2767318              -7.5303
        86        2.0000           -0.2652952              -7.2190
        87        2.0000           -0.2595087              -7.0616
        88        2.0000           -0.2448861              -6.6637
        89        2.0000           -0.2374704              -6.4619
        90        2.0000           -0.2344192              -6.3789
        91        1.6691           -0.1665667              -4.5325 (HOMO)
        92        0.3208           -0.1634566              -4.4479 (LUMO)
        93        0.0101           -0.1600080              -4.3540
        94                         -0.1383770              -3.7654
        95                         -0.1346760              -3.6647
        96                         -0.1054801              -2.8703
       ...                                ...                  ...
       175                          0.8309936              22.6125
      -------------------------------------------------------------
                  HL-Gap            0.0031101 Eh            0.0846 eV
             Fermi-level           -0.1650292 Eh           -4.4907 eV

 SCC (total)                   0 d,  0 h,  0 min,  0.729 sec
 SCC setup                      ...        0 min,  0.000 sec (  0.020%)
 Dispersion                     ...        0 min,  0.000 sec (  0.062%)
 classical contributions        ...        0 min,  0.000 sec (  0.016%)
 integral evaluation            ...        0 min,  0.002 sec (  0.310%)
 iterations                     ...        0 min,  0.710 sec ( 97.374%)
 molecular gradient             ...        0 min,  0.016 sec (  2.163%)
 printout                       ...        0 min,  0.000 sec (  0.052%)

         :::::::::::::::::::::::::::::::::::::::::::::::::::::
         ::                     SUMMARY                     ::
         :::::::::::::::::::::::::::::::::::::::::::::::::::::
         :: total energy             -98.598903660005 Eh    ::
         :: gradient norm              0.076654824009 Eh/a0 ::
         :: HOMO-LUMO gap              0.084629080602 eV    ::
         ::.................................................::
         :: SCC energy              -100.230489087855 Eh    ::
         :: -> isotropic ES            0.162163087076 Eh    ::
         :: -> anisotropic ES          0.018157063777 Eh    ::
         :: -> anisotropic XC          0.035944088078 Eh    ::
         :: -> dispersion             -0.092659884959 Eh    ::
         :: repulsion energy           1.629977734780 Eh    ::
         :: add. restraining           0.000000000000 Eh    ::
         :: total charge              -1.000000086724 e     ::
         :::::::::::::::::::::::::::::::::::::::::::::::::::::

           -------------------------------------------------
          |                Property Printout                |
           -------------------------------------------------

    * Orbital Energies and Occupations

         #    Occupation            Energy/Eh            Energy/eV
      -------------------------------------------------------------
         1        2.0000           -0.5696358             -15.5006
       ...           ...                  ...                  ...
        79        2.0000           -0.3147910              -8.5659
        80        2.0000           -0.3068753              -8.3505
        81        2.0000           -0.3023229              -8.2266
        82        2.0000           -0.3010105              -8.1909
        83        2.0000           -0.2961103              -8.0576
        84        2.0000           -0.2822558              -7.6806
        85        2.0000           -0.2767318              -7.5303
        86        2.0000           -0.2652952              -7.2190
        87        2.0000           -0.2595087              -7.0616
        88        2.0000           -0.2448861              -6.6637
        89        2.0000           -0.2374704              -6.4619
        90        2.0000           -0.2344192              -6.3789
        91        1.6691           -0.1665667              -4.5325 (HOMO)
        92        0.3208           -0.1634566              -4.4479 (LUMO)
        93        0.0101           -0.1600080              -4.3540
        94                         -0.1383770              -3.7654
        95                         -0.1346760              -3.6647
        96                         -0.1054801              -2.8703
        97                         -0.0989157              -2.6916
        98                         -0.0783937              -2.1332
        99                         -0.0728494              -1.9823
       100                         -0.0556357              -1.5139
       101                         -0.0362505              -0.9864
       102                         -0.0103961              -0.2829
       ...                                ...                  ...
       175                          0.8309936              22.6125
      -------------------------------------------------------------
                  HL-Gap            0.0031101 Eh            0.0846 eV
             Fermi-level           -0.1650292 Eh           -4.4907 eV

     #   Z          covCN         q      C6AA      α(0)
     1   6 C        2.981     0.000    28.017     8.683
     2   6 C        2.980    -0.006    28.176     8.707
     3   6 C        2.980    -0.007    28.197     8.710
     4   6 C        2.990    -0.000    28.024     8.684
     5   6 C        2.988    -0.002    28.076     8.692
     6   6 C        2.988    -0.004    28.114     8.698
     7   6 C        2.982     0.002    27.966     8.675
     8   6 C        2.983     0.011    27.771     8.644
     9   6 C        2.988     0.003    27.950     8.672
    10   6 C        2.989     0.008    27.830     8.654
    11   6 C        2.918    -0.053    29.307     8.878
    12   6 C        2.918    -0.050    29.238     8.867
    13   6 C        2.917    -0.049    29.207     8.862
    14   6 C        2.917    -0.045    29.129     8.850
    15   6 C        2.917    -0.047    29.158     8.855
    16   6 C        2.917    -0.045    29.109     8.847
    17   6 C        2.916    -0.041    29.016     8.833
    18   6 C        2.915    -0.048    29.182     8.858
    19   6 C        2.918    -0.040    28.984     8.828
    20   6 C        2.920    -0.036    28.892     8.814
    21   6 C        2.927    -0.051    29.264     8.872
    22   6 C        2.922    -0.041    29.011     8.833
    23   6 C        2.920    -0.040    28.982     8.828
    24   6 C        2.918    -0.034    28.855     8.809
    25   6 C        2.967     0.018    27.603     8.618
    26   6 C        2.916    -0.033    28.827     8.804
    27   1 H        0.926     0.003     2.999     2.708
    28   1 H        0.926     0.005     2.964     2.692
    29   1 H        0.926     0.005     2.973     2.696
    30   1 H        0.926     0.006     2.953     2.687
    31   1 H        0.926     0.007     2.945     2.684
    32   1 H        0.926     0.007     2.937     2.680
    33   1 H        0.926     0.020     2.729     2.583
    34   1 H        0.926     0.010     2.896     2.661
    35   1 H        0.926     0.021     2.712     2.575
    36   1 H        0.926     0.026     2.644     2.543
    37   1 H        0.926     0.070     2.083     2.257
    38   1 H        0.926     0.015     2.814     2.623
    39   1 H        0.926     0.068     2.107     2.270
    40   1 H        0.926     0.015     2.812     2.622
    41   6 C        2.889     0.031    27.308     8.568
    42   1 H        0.926     0.014     2.827     2.629
    43   6 C        3.885     0.049    19.709     6.312
    44   6 C        3.884     0.049    19.703     6.311
    45   6 C        3.758    -0.100    22.467     6.758
    46   6 C        3.760    -0.103    22.510     6.764
    47   6 C        3.758    -0.100    22.466     6.758
    48   6 C        3.760    -0.103    22.509     6.763
    49   7 N        2.807     0.124    19.125     6.495
    50   8 O        0.925    -0.553    24.949     6.699
    51   7 N        2.807     0.121    19.176     6.504
    52   8 O        0.925    -0.558    25.071     6.715
    53   1 H        0.925     0.036     2.506     2.476
    54   1 H        0.925     0.026     2.638     2.540
    55   1 H        0.925     0.055     2.260     2.351
    56   1 H        0.925     0.041     2.435     2.440
    57   1 H        0.925     0.061     2.188     2.313
    58   1 H        0.925     0.021     2.711     2.575
    59   1 H        0.925     0.035     2.519     2.482
    60   1 H        0.925     0.026     2.637     2.539
    61   1 H        0.925     0.053     2.278     2.360
    62   1 H        0.925     0.042     2.426     2.436
    63   1 H        0.925     0.061     2.192     2.315
    64   1 H        0.925     0.021     2.713     2.576

 Mol. C6AA /au·bohr⁶  :      54871.590080
 Mol. C8AA /au·bohr⁸  :    1350514.616086
 Mol. α(0) /au        :        371.035151


Wiberg/Mayer (AO) data.
largest (>0.10) Wiberg bond orders for each atom

 ---------------------------------------------------------------------------
     #   Z sym  total        # sym  WBO       # sym  WBO       # sym  WBO
 ---------------------------------------------------------------------------
     1   6 C    3.979 --     4 C    1.294     3 C    1.226     2 C    1.207
     2   6 C    3.933 --     5 C    1.301     1 C    1.207     7 C    1.191
     3   6 C    3.912 --     6 C    1.289     1 C    1.226     8 C    1.174
     4   6 C    3.973 --     1 C    1.294    11 C    1.257    12 C    1.239
     5   6 C    3.966 --     2 C    1.301    13 C    1.263    15 C    1.219
     6   6 C    3.951 --     3 C    1.289    14 C    1.253    16 C    1.234
     7   6 C    3.985 --    19 C    1.300     9 C    1.264     2 C    1.191
     8   6 C    3.987 --    20 C    1.319    10 C    1.279     3 C    1.174
     9   6 C    3.978 --    21 C    1.330     7 C    1.264    17 C    1.211
    10   6 C    3.985 --    22 C    1.310     8 C    1.279    18 C    1.215
    11   6 C    3.930 --    13 C    1.553     4 C    1.257    27 H    0.968
    12   6 C    3.939 --    14 C    1.580     4 C    1.239    28 H    0.968
    13   6 C    3.941 --    11 C    1.553     5 C    1.263    29 H    0.968
    14   6 C    3.970 --    12 C    1.580     6 C    1.253    30 H    0.968
    15   6 C    3.985 --    17 C    1.629     5 C    1.219    31 H    0.968
    16   6 C    3.972 --    18 C    1.603     6 C    1.234    32 H    0.968
    17   6 C    3.970 --    15 C    1.629     9 C    1.211    33 H    0.968
    18   6 C    3.931 --    16 C    1.603    10 C    1.215    34 H    0.969
    19   6 C    3.977 --    23 C    1.541     7 C    1.300    35 H    0.963
    20   6 C    3.957 --    24 C    1.502     8 C    1.319    36 H    0.964
    21   6 C    3.969 --    25 C    1.427     9 C    1.330    37 H    0.954
    22   6 C    3.952 --    26 C    1.506    10 C    1.310    38 H    0.969
    23   6 C    3.980 --    19 C    1.541    25 C    1.284    39 H    0.957
    24   6 C    3.974 --    20 C    1.502    26 C    1.360    40 H    0.972
    25   6 C    3.967 --    21 C    1.427    23 C    1.284    41 C    1.095
    26   6 C    3.969 --    22 C    1.506    24 C    1.360    42 H    0.972
    27   1 H    0.999 --    11 C    0.968
    28   1 H    0.999 --    12 C    0.968
    29   1 H    0.999 --    13 C    0.968
    30   1 H    0.999 --    14 C    0.968
    31   1 H    0.999 --    15 C    0.968
    32   1 H    0.999 --    16 C    0.968
    33   1 H    0.998 --    17 C    0.968
    34   1 H    0.998 --    18 C    0.969
    35   1 H    0.999 --    19 C    0.963
    36   1 H    0.999 --    20 C    0.964
    37   1 H    0.994 --    21 C    0.954
    38   1 H    0.999 --    22 C    0.969
    39   1 H    0.995 --    23 C    0.957
    40   1 H    0.999 --    24 C    0.972
    41   6 C    3.942 --    49 N    1.244    51 N    1.243    25 C    1.095
                            50 O    0.142    52 O    0.140
    42   1 H    0.999 --    26 C    0.972
    43   6 C    3.980 --    45 C    0.999    48 C    0.987    44 C    0.964
                            49 N    0.923
    44   6 C    3.980 --    47 C    0.999    46 C    0.987    43 C    0.964
Note: The following floating-point exceptions are signalling: IEEE_UNDERFLOW_FLAG
normal termination of xtb
                            51 N    0.923
    45   6 C    3.993 --    43 C    0.999    58 H    0.985    56 H    0.983
                            57 H    0.980
    46   6 C    3.989 --    44 C    0.987    59 H    0.985    60 H    0.985
                            61 H    0.982
    47   6 C    3.993 --    44 C    0.999    64 H    0.985    62 H    0.983
                            63 H    0.980
    48   6 C    3.989 --    43 C    0.987    54 H    0.985    53 H    0.985
                            55 H    0.982
    49   7 N    3.553 --    41 C    1.244    50 O    1.155    43 C    0.923
                            51 N    0.104
    50   8 O    1.483 --    49 N    1.155    41 C    0.142
    51   7 N    3.548 --    41 C    1.243    52 O    1.150    44 C    0.923
                            49 N    0.104
    52   8 O    1.477 --    51 N    1.150    41 C    0.140
    53   1 H    0.999 --    48 C    0.985
    54   1 H    0.998 --    48 C    0.985
    55   1 H    0.997 --    48 C    0.982
    56   1 H    0.998 --    45 C    0.983
    57   1 H    0.996 --    45 C    0.980
    58   1 H    0.999 --    45 C    0.985
    59   1 H    0.999 --    46 C    0.985
    60   1 H    0.998 --    46 C    0.985
    61   1 H    0.997 --    46 C    0.982
    62   1 H    0.998 --    47 C    0.983
    63   1 H    0.996 --    47 C    0.980
    64   1 H    0.999 --    47 C    0.985
 ---------------------------------------------------------------------------

Topologies differ in bond orders
Writing corrected topology to xtbtopo.mol

molecular dipole:
                 x           y           z       tot (Debye)
 q only:       -0.769       1.334      -1.142
   full:       -0.857       1.286      -1.106       4.831
molecular quadrupole (traceless):
                xx          xy          yy          xz          yz          zz
 q only:      -23.865      -0.417      -1.470     -12.310       7.745      25.335
  q+dip:      -22.148       4.168       3.391      -4.128       7.497      18.757
   full:      -22.566       3.199      -0.790      -9.993       9.129      23.357


           -------------------------------------------------
          | TOTAL ENERGY              -98.598903660005 Eh   |
          | GRADIENT NORM               0.076654824009 Eh/α |
          | HOMO-LUMO GAP               0.084629080602 eV   |
           -------------------------------------------------
########################################################################
[WARNING] Runtime exception occurred
-2- restart_readRestart: Multiplicity missmatch in restart file.
-1- restart_readRestart: Number of electron missmatch in restart file.
########################################################################

------------------------------------------------------------------------
 * finished run on 2024/11/14 at 10:51:53.034     
------------------------------------------------------------------------
 total:
 * wall-time:     0 d,  0 h,  0 min,  0.737 sec
 *  cpu-time:     0 d,  0 h,  0 min,  2.824 sec
 * ratio c/w:     3.834 speedup
 SCF:
 * wall-time:     0 d,  0 h,  0 min,  0.729 sec
 *  cpu-time:     0 d,  0 h,  0 min,  2.811 sec
 * ratio c/w:     3.855 speedup

