      -----------------------------------------------------------      
     |                   =====================                   |     
     |                           x T B                           |     
     |                   =====================                   |     
     |                         S. Grimme                         |     
     |          Mulliken Center for Theoretical Chemistry        |     
     |                    University of Bonn                     |     
      -----------------------------------------------------------      

   * xtb version 6.6.1 (8d0f1dd) compiled by 'runner@Mac-1690902418499.local' on 2023-08-01

   xtb is free software: you can redistribute it and/or modify it under
   the terms of the GNU Lesser General Public License as published by
   the Free Software Foundation, either version 3 of the License, or
   (at your option) any later version.
   
   xtb is distributed in the hope that it will be useful,
   but WITHOUT ANY WARRANTY; without even the implied warranty of
   MERCHANTABILITY or FITNESS FOR A PARTICULAR PURPOSE.  See the
   GNU Lesser General Public License for more details.
   
   Cite this work as:
   * C. Bannwarth, E. Caldeweyher, S. Ehlert, A. Hansen, P. Pracht,
     J. Seibert, S. Spicher, S. Grimme, WIREs Comput. Mol. Sci., 2020, 11,
     e01493. DOI: 10.1002/wcms.1493
   
   for GFN2-xTB:
   * C. Bannwarth, S. Ehlert and S. Grimme., J. Chem. Theory Comput., 2019,
     15, 1652-1671. DOI: 10.1021/acs.jctc.8b01176
   for GFN1-xTB:
   * S. Grimme, C. Bannwarth, P. Shushkov, J. Chem. Theory Comput., 2017,
     13, 1989-2009. DOI: 10.1021/acs.jctc.7b00118
   for GFN0-xTB:
   * P. Pracht, E. Caldeweyher, S. Ehlert, S. Grimme, ChemRxiv, 2019, preprint.
     DOI: 10.26434/chemrxiv.8326202.v1
   for GFN-FF:
   * S. Spicher and S. Grimme, Angew. Chem. Int. Ed., 2020, 59, 15665-15673.
     DOI: 10.1002/anie.202004239
   
   for ALPB and GBSA implicit solvation:
   * S. Ehlert, M. Stahn, S. Spicher, S. Grimme, J. Chem. Theory Comput.,
     2021, 17, 4250-4261. DOI: 10.1021/acs.jctc.1c00471
   
   for DFT-D4:
   * E. Caldeweyher, C. Bannwarth and S. Grimme, J. Chem. Phys., 2017,
     147, 034112. DOI: 10.1063/1.4993215
   * E. Caldeweyher, S. Ehlert, A. Hansen, H. Neugebauer, S. Spicher,
     C. Bannwarth and S. Grimme, J. Chem. Phys., 2019, 150, 154122.
     DOI: 10.1063/1.5090222
   * E. Caldeweyher, J.-M. Mewes, S. Ehlert and S. Grimme, Phys. Chem. Chem. Phys.
     2020, 22, 8499-8512. DOI: 10.1039/D0CP00502A
   
   for sTDA-xTB:
   * S. Grimme and C. Bannwarth, J. Chem. Phys., 2016, 145, 054103.
     DOI: 10.1063/1.4959605
   
   in the mass-spec context:
   * V. Asgeirsson, C. Bauer and S. Grimme, Chem. Sci., 2017, 8, 4879.
     DOI: 10.1039/c7sc00601b
   * J. Koopman and S. Grimme, ACS Omega 2019, 4, 12, 15120-15133.
     DOI: 10.1021/acsomega.9b02011
   
   for metadynamics refer to:
   * S. Grimme, J. Chem. Theory Comput., 2019, 155, 2847-2862
     DOI: 10.1021/acs.jctc.9b00143
   
   for SPH calculations refer to:
   * S. Spicher and S. Grimme, J. Chem. Theory Comput., 2021, 17, 1701-1714
     DOI: 10.1021/acs.jctc.0c01306
   
   with help from (in alphabetical order)
   P. Atkinson, C. Bannwarth, F. Bohle, G. Brandenburg, E. Caldeweyher
   M. Checinski, S. Dohm, S. Ehlert, S. Ehrlich, I. Gerasimov, C. Hölzer
   A. Katbashev, J. Koopman, C. Lavigne, S. Lehtola, F. März, M. Müller,
   F. Musil, H. Neugebauer, J. Pisarek, C. Plett, P. Pracht, F. Pultar,
   J. Seibert, P. Shushkov, S. Spicher, M. Stahn, M. Steiner, T. Strunk,
   J. Stückrath, T. Rose, and J. Unsleber
   
 * started run on 2024/11/14 at 10:42:00.278     

           -------------------------------------------------
          |                Calculation Setup                |
           -------------------------------------------------

          program call               : xtb stacked_dimer_Nitro2.mol --opt --gfn2 --chrg -1 --uhf 0 --tight
          coordinate file            : stacked_dimer_Nitro2.mol
          omp threads                :                     8

   ID    Z sym.   atoms
    1    6 C      1-26, 41, 43-48, 65-90, 105, 107-112
    2    1 H      27-40, 42, 53-64, 91-104, 106, 117-128
    3    7 N      49, 51, 113, 115
    4    8 O      50, 52, 114, 116
########################################################################
[WARNING] Please study the warnings concerning your input carefully
-1- prog_main_parseArguments: Unknown option '--tight' provided
########################################################################

           -------------------------------------------------
          |                 G F N 2 - x T B                 |
           -------------------------------------------------

        Reference                      10.1021/acs.jctc.8b01176
      * Hamiltonian:
        H0-scaling (s, p, d)           1.850000    2.230000    2.230000
        zeta-weighting                 0.500000
      * Dispersion:
        s8                             2.700000
        a1                             0.520000
        a2                             5.000000
        s9                             5.000000
      * Repulsion:
        kExp                           1.500000    1.000000
        rExp                           1.000000
      * Coulomb:
        alpha                          2.000000
        third order                    shell-resolved
        anisotropic                    true
        a3                             3.000000
        a5                             4.000000
        cn-shift                       1.200000
        cn-exp                         4.000000
        max-rad                        5.000000

q/qsh data taken from xtbrestart
CAMM data taken from xtbrestart

          ...................................................
          :                      SETUP                      :
          :.................................................:
          :  # basis functions                 350          :
          :  # atomic orbitals                 350          :
          :  # shells                          202          :
          :  # electrons                       363          :
          :  max. iterations                   250          :
          :  Hamiltonian                  GFN2-xTB          :
          :  restarted?                       true          :
          :  GBSA solvation                  false          :
          :  PC potential                    false          :
          :  electronic temp.          300.0000000     K    :
          :  accuracy                    1.0000000          :
          :  -> integral cutoff          0.2500000E+02      :
          :  -> integral neglect         0.1000000E-07      :
          :  -> SCF convergence          0.1000000E-05 Eh   :
          :  -> wf. convergence          0.1000000E-03 e    :
          :  Broyden damping             0.4000000          :
          ...................................................

 iter      E             dE          RMSdq      gap      omega  full diag
   1   -199.7483455 -0.199748E+03  0.169E+00    1.11       0.0  T
   2   -198.6987416  0.104960E+01  0.208E+00    0.03       1.0  T
   3   -199.9044210 -0.120568E+01  0.935E-01    1.35       1.0  T
   4   -199.8636674  0.407536E-01  0.883E-01    0.08       1.0  T
   5   -199.7191825  0.144485E+00  0.926E-01    0.67       1.0  T
   6   -199.9329154 -0.213733E+00  0.525E-01    0.71       1.0  T
   7   -199.9427125 -0.979706E-02  0.491E-01    0.47       1.0  T
   8   -199.9742481 -0.315356E-01  0.320E-01    0.49       1.0  T
   9   -199.9924683 -0.182202E-01  0.154E-01    0.37       1.0  T
  10   -199.9736410  0.188273E-01  0.302E-01    0.14       1.0  T
  11   -199.9808474 -0.720641E-02  0.212E-01    0.06       1.0  T
  12   -199.9953186 -0.144711E-01  0.556E-02    0.15       1.0  T
  13   -199.9885286  0.678991E-02  0.160E-01    0.10       1.0  T
  14   -199.9946397 -0.611107E-02  0.708E-02    0.15       1.0  T
  15   -199.9933861  0.125361E-02  0.964E-02    0.14       1.0  T
  16   -199.9954240 -0.203788E-02  0.391E-02    0.15       1.0  T
  17   -199.9949563  0.467733E-03  0.573E-02    0.15       1.0  T
  18   -199.9957344 -0.778118E-03  0.173E-02    0.16       1.0  T
  19   -199.9958048 -0.704328E-04  0.583E-03    0.17       1.5  T
  20   -199.9958131 -0.830538E-05  0.196E-03    0.17       4.5  T
  21   -199.9958142 -0.105367E-05  0.702E-04    0.17      12.6  T
  22   -199.9958142 -0.162053E-07  0.671E-04    0.17      13.2  T
  23   -199.9958143 -0.112905E-06  0.125E-04    0.17      70.9  T

   *** convergence criteria satisfied after 23 iterations ***

         #    Occupation            Energy/Eh            Energy/eV
      -------------------------------------------------------------
         1        2.0000           -0.5948403             -16.1864
       ...           ...                  ...                  ...
       176        2.0000           -0.2662569              -7.2452
       177        2.0000           -0.2651601              -7.2154
       178        2.0000           -0.2650072              -7.2112
       179        2.0000           -0.2640525              -7.1852
       180        2.0000           -0.2263056              -6.1581
       181        1.5117           -0.1973193              -5.3693
       182        1.4382           -0.1970640              -5.3624 (HOMO)
       183        0.0499           -0.1908547              -5.1934 (LUMO)
       184        0.0002           -0.1855557              -5.0492
       185        0.0001           -0.1846763              -5.0253
       186        0.0000           -0.1804527              -4.9104
       187                         -0.1650717              -4.4918
       ...                                ...                  ...
       350                          1.2988057              35.3423
      -------------------------------------------------------------
                  HL-Gap            0.0062093 Eh            0.1690 eV
             Fermi-level           -0.1954374 Eh           -5.3181 eV

 SCC (total)                   0 d,  0 h,  0 min,  2.550 sec
 SCC setup                      ...        0 min,  0.000 sec (  0.014%)
 Dispersion                     ...        0 min,  0.001 sec (  0.059%)
 classical contributions        ...        0 min,  0.000 sec (  0.012%)
 integral evaluation            ...        0 min,  0.007 sec (  0.278%)
 iterations                     ...        0 min,  2.481 sec ( 97.310%)
 molecular gradient             ...        0 min,  0.054 sec (  2.108%)
 printout                       ...        0 min,  0.006 sec (  0.219%)

         :::::::::::::::::::::::::::::::::::::::::::::::::::::
         ::                     SUMMARY                     ::
         :::::::::::::::::::::::::::::::::::::::::::::::::::::
         :: total energy            -196.644646471510 Eh    ::
         :: gradient norm              0.456741585222 Eh/a0 ::
         :: HOMO-LUMO gap              0.168964268742 eV    ::
         ::.................................................::
         :: SCC energy              -199.995814290860 Eh    ::
         :: -> isotropic ES            0.248839049443 Eh    ::
         :: -> anisotropic ES          0.021751459424 Eh    ::
         :: -> anisotropic XC          0.079293512810 Eh    ::
         :: -> dispersion             -0.214432846456 Eh    ::
         :: repulsion energy           3.334952324633 Eh    ::
         :: add. restraining           0.000000000000 Eh    ::
         :: total charge              -0.999999080171 e     ::
         :::::::::::::::::::::::::::::::::::::::::::::::::::::

      ----------------------------------------------------------- 
     |                   =====================                   |
     |                        A N C O P T                        |
     |                   =====================                   |
     |               Approximate Normal Coordinate               |
     |                Rational Function Optimizer                |
      ----------------------------------------------------------- 

          ...................................................
          :                      SETUP                      :
          :.................................................:
          :   optimization level            normal          :
          :   max. optcycles                   384          :
          :   ANC micro-cycles                  20          :
          :   degrees of freedom               378          :
          :.................................................:
          :   RF solver                   davidson          :
          :   write xtbopt.log                true          :
          :   linear?                        false          :
          :   energy convergence         0.5000000E-05 Eh   :
          :   grad. convergence          0.1000000E-02 Eh/α :
          :   maxmium RF displ.          1.0000000          :
          :   Hlow (freq-cutoff)         0.1000000E-01      :
          :   Hmax (freq-cutoff)         5.0000000          :
          :   S6 in model hess.         20.0000000          :
          ...................................................

generating ANC from model Hessian ...
Using Lindh-Hessian (1995)
 Shifting diagonal of input Hessian by    9.9597534021600830E-003
 Lowest  eigenvalues of input Hessian
    0.000000    0.000000    0.000000    0.000000    0.000000    0.000000
    0.010000    0.010125    0.010220    0.010277    0.010429    0.010531
    0.010631    0.010775    0.010845    0.011129    0.011327    0.011478
 Highest eigenvalues
    2.141565    2.148006    2.198386    2.215827    2.381661    2.382028


........................................................................
.............................. CYCLE    1 ..............................
........................................................................

 iter      E             dE          RMSdq      gap      omega  full diag
   1   -199.9958143 -0.199996E+03  0.308E-05    0.17       0.0  T
   2   -199.9958143  0.134737E-07  0.231E-04    0.17      38.3  T
   3   -199.9958143 -0.774051E-08  0.149E-04    0.17      59.2  T
     SCC iter.                  ...        0 min,  0.205 sec
     gradient                   ...        0 min,  0.059 sec
 * total energy  :  -196.6446465 Eh     change        0.2195918E-08 Eh
   gradient norm :     0.4567425 Eh/α   predicted     0.0000000E+00 (-100.00%)
   displ. norm   :     0.5437665 α      lambda       -0.1927057E+00
   maximum displ.:     0.1586208 α      in ANC's #320, #189, #318, ...

........................................................................
.............................. CYCLE    2 ..............................
........................................................................

 iter      E             dE          RMSdq      gap      omega  full diag
   1   -200.1123684 -0.200112E+03  0.275E-01    0.29       0.0  T
   2   -200.0088826  0.103486E+00  0.664E-01    0.03       1.0  T
   3   -200.0680620 -0.591794E-01  0.458E-01    0.17       1.0  T
   4   -200.0943860 -0.263240E-01  0.302E-01    0.50       1.0  T
   5   -200.1011877 -0.680166E-02  0.246E-01    0.27       1.0  T
   6   -200.1148046 -0.136169E-01  0.557E-02    0.32       1.0  T
   7   -200.1153731 -0.568551E-03  0.315E-02    0.23       1.0  T
   8   -200.1154571 -0.839511E-04  0.245E-02    0.19       1.0  T
   9   -200.1155795 -0.122413E-03  0.750E-03    0.20       1.2  T
  10   -200.1155704  0.909569E-05  0.879E-03    0.19       1.0  T
  11   -200.1155892 -0.187967E-04  0.168E-03    0.19       5.3  T
  12   -200.1155897 -0.506210E-06  0.686E-04    0.19      12.9  T
  13   -200.1155897 -0.463342E-07  0.305E-04    0.19      29.0  T
     SCC iter.                  ...        0 min,  0.904 sec
     gradient                   ...        0 min,  0.051 sec
 * total energy  :  -196.7867758 Eh     change       -0.1421294E+00 Eh
   gradient norm :     0.2348083 Eh/α   predicted    -0.1248615E+00 ( -12.15%)
   displ. norm   :     0.5120701 α      lambda       -0.9310889E-01
   maximum displ.:     0.1303659 α      in ANC's #320, #318, #77, ...

........................................................................
.............................. CYCLE    3 ..............................
........................................................................

 iter      E             dE          RMSdq      gap      omega  full diag
   1   -200.1799945 -0.200180E+03  0.191E-01    0.29       0.0  T
   2   -200.1175072  0.624873E-01  0.519E-01    0.10       1.0  T
   3   -200.1449453 -0.274381E-01  0.393E-01    0.17       1.0  T
   4   -200.1731909 -0.282456E-01  0.194E-01    0.36       1.0  T
   5   -200.1806026 -0.741172E-02  0.783E-02    0.25       1.0  T
   6   -200.1818437 -0.124109E-02  0.227E-02    0.24       1.0  T
   7   -200.1817658  0.778105E-04  0.257E-02    0.22       1.0  T
   8   -200.1818518 -0.859786E-04  0.170E-02    0.21       1.0  T
   9   -200.1819079 -0.560682E-04  0.814E-03    0.23       1.1  T
  10   -200.1819229 -0.150375E-04  0.250E-03    0.23       3.5  T
  11   -200.1819244 -0.147281E-05  0.723E-04    0.23      12.2  T
  12   -200.1819245 -0.535014E-07  0.435E-04    0.22      20.3  T
  13   -200.1819245  0.207078E-08  0.382E-04    0.22      23.2  T
     SCC iter.                  ...        0 min,  0.757 sec
     gradient                   ...        0 min,  0.050 sec
 * total energy  :  -196.8574632 Eh     change       -0.7068733E-01 Eh
   gradient norm :     0.1210827 Eh/α   predicted    -0.5876182E-01 ( -16.87%)
   displ. norm   :     0.6077957 α      lambda       -0.5397654E-01
   maximum displ.:     0.1375727 α      in ANC's #77, #64, #51, ...

........................................................................
.............................. CYCLE    4 ..............................
........................................................................

 iter      E             dE          RMSdq      gap      omega  full diag
   1   -200.2173311 -0.200217E+03  0.139E-01    0.27       0.0  T
   2   -200.1722630  0.450681E-01  0.434E-01    0.17       1.0  T
   3   -200.1974115 -0.251484E-01  0.293E-01    0.20       1.0  T
   4   -200.2150838 -0.176723E-01  0.116E-01    0.29       1.0  T
   5   -200.2180016 -0.291780E-02  0.241E-02    0.26       1.0  T
   6   -200.2179961  0.547724E-05  0.198E-02    0.25       1.0  T
   7   -200.2180642 -0.681366E-04  0.694E-03    0.25       1.3  T
   8   -200.2180663 -0.202751E-05  0.542E-03    0.25       1.6  T
   9   -200.2180729 -0.660932E-05  0.155E-03    0.25       5.7  T
  10   -200.2180732 -0.365457E-06  0.766E-04    0.25      11.5  T
  11   -200.2180734 -0.116338E-06  0.251E-04    0.25      35.2  T
     SCC iter.                  ...        0 min,  0.591 sec
     gradient                   ...        0 min,  0.055 sec
 * total energy  :  -196.8996514 Eh     change       -0.4218825E-01 Eh
   gradient norm :     0.0622766 Eh/α   predicted    -0.3695818E-01 ( -12.40%)
   displ. norm   :     0.7058849 α      lambda       -0.3335273E-01
   maximum displ.:     0.1823229 α      in ANC's #64, #51, #77, ...

........................................................................
.............................. CYCLE    5 ..............................
........................................................................

 iter      E             dE          RMSdq      gap      omega  full diag
   1   -200.2336521 -0.200234E+03  0.110E-01    0.26       0.0  T
   2   -200.2119878  0.216643E-01  0.299E-01    0.22       1.0  T
   3   -200.2159773 -0.398944E-02  0.271E-01    0.22       1.0  T
   4   -200.2337127 -0.177355E-01  0.369E-02    0.28       1.0  T
   5   -200.2338067 -0.939671E-04  0.201E-02    0.26       1.0  T
   6   -200.2338771 -0.704125E-04  0.737E-03    0.26       1.2  T
   7   -200.2338773 -0.236619E-06  0.528E-03    0.26       1.7  T
   8   -200.2338833 -0.594859E-05  0.148E-03    0.26       6.0  T
   9   -200.2338836 -0.334809E-06  0.670E-04    0.26      13.2  T
  10   -200.2338837 -0.794691E-07  0.237E-04    0.26      37.3  T
     SCC iter.                  ...        0 min,  0.563 sec
     gradient                   ...        0 min,  0.050 sec
 * total energy  :  -196.9270763 Eh     change       -0.2742490E-01 Eh
   gradient norm :     0.0381381 Eh/α   predicted    -0.2498596E-01 (  -8.89%)
   displ. norm   :     0.7671598 α      lambda       -0.2343692E-01
   maximum displ.:     0.2021798 α      in ANC's #64, #51, #16, ...

........................................................................
.............................. CYCLE    6 ..............................
........................................................................

 iter      E             dE          RMSdq      gap      omega  full diag
   1   -200.2397837 -0.200240E+03  0.105E-01    0.25       0.0  T
   2   -200.2246441  0.151396E-01  0.251E-01    0.24       1.0  T
   3   -200.2199910  0.465308E-02  0.284E-01    0.22       1.0  T
   4   -200.2396736 -0.196826E-01  0.409E-02    0.27       1.0  T
   5   -200.2397918 -0.118192E-03  0.239E-02    0.26       1.0  T
   6   -200.2399218 -0.130097E-03  0.456E-03    0.26       1.9  T
   7   -200.2399225 -0.682640E-06  0.276E-03    0.26       3.2  T
   8   -200.2399234 -0.890822E-06  0.156E-03    0.26       5.7  T
   9   -200.2399238 -0.419122E-06  0.556E-04    0.26      15.9  T
  10   -200.2399239 -0.393169E-07  0.202E-04    0.26      43.7  T
     SCC iter.                  ...        0 min,  0.722 sec
     gradient                   ...        0 min,  0.054 sec
 * total energy  :  -196.9469606 Eh     change       -0.1988431E-01 Eh
   gradient norm :     0.0264293 Eh/α   predicted    -0.1861517E-01 (  -6.38%)
   displ. norm   :     0.7980653 α      lambda       -0.1735681E-01
   maximum displ.:     0.1986336 α      in ANC's #51, #64, #16, ...

........................................................................
.............................. CYCLE    7 ..............................
........................................................................

 iter      E             dE          RMSdq      gap      omega  full diag
   1   -200.2422619 -0.200242E+03  0.107E-01    0.26       0.0  T
   2   -200.2312667  0.109952E-01  0.216E-01    0.24       1.0  T
   3   -200.2167322  0.145346E-01  0.319E-01    0.21       1.0  T
   4   -200.2417394 -0.250073E-01  0.584E-02    0.28       1.0  T
   5   -200.2421083 -0.368858E-03  0.323E-02    0.27       1.0  T
   6   -200.2423667 -0.258419E-03  0.426E-03    0.26       2.1  T
   7   -200.2423681 -0.137402E-05  0.247E-03    0.26       3.6  T
   8   -200.2423691 -0.977261E-06  0.986E-04    0.26       9.0  T
   9   -200.2423691 -0.655771E-07  0.617E-04    0.26      14.3  T
     SCC iter.                  ...        0 min,  0.601 sec
     gradient                   ...        0 min,  0.051 sec
 * total energy  :  -196.9618530 Eh     change       -0.1489238E-01 Eh
   gradient norm :     0.0198332 Eh/α   predicted    -0.1420575E-01 (  -4.61%)
   displ. norm   :     0.8071748 α      lambda       -0.1290445E-01
   maximum displ.:     0.2046321 α      in ANC's #16, #25, #18, ...

........................................................................
.............................. CYCLE    8 ..............................
........................................................................

 iter      E             dE          RMSdq      gap      omega  full diag
   1   -200.2437256 -0.200244E+03  0.108E-01    0.27       0.0  T
   2   -200.2404862  0.323936E-02  0.129E-01    0.26       1.0  T
   3   -200.2022332  0.382530E-01  0.404E-01    0.18       1.0  T
   4   -200.2420081 -0.397749E-01  0.878E-02    0.28       1.0  T
   5   -200.2433049 -0.129680E-02  0.435E-02    0.27       1.0  T
   6   -200.2437873 -0.482403E-03  0.515E-03    0.27       1.7  T
   7   -200.2437926 -0.526603E-05  0.206E-03    0.27       4.3  T
   8   -200.2437927 -0.174704E-06  0.148E-03    0.27       6.0  T
   9   -200.2437931 -0.339864E-06  0.761E-04    0.27      11.6  T
  10   -200.2437932 -0.122992E-06  0.236E-04    0.27      37.5  T
     SCC iter.                  ...        0 min,  0.681 sec
     gradient                   ...        0 min,  0.050 sec
 * total energy  :  -196.9729107 Eh     change       -0.1105773E-01 Eh
   gradient norm :     0.0149211 Eh/α   predicted    -0.1065605E-01 (  -3.63%)
   displ. norm   :     0.8007472 α      lambda       -0.9397542E-02
   maximum displ.:     0.2170280 α      in ANC's #16, #25, #18, ...

........................................................................
.............................. CYCLE    9 ..............................
........................................................................

 iter      E             dE          RMSdq      gap      omega  full diag
   1   -200.2450488 -0.200245E+03  0.106E-01    0.27       0.0  T
   2   -200.2402795  0.476925E-02  0.148E-01    0.26       1.0  T
   3   -200.2083314  0.319482E-01  0.378E-01    0.19       1.0  T
   4   -200.2433973 -0.350659E-01  0.843E-02    0.29       1.0  T
   5   -200.2447142 -0.131696E-02  0.390E-02    0.27       1.0  T
   6   -200.2450978 -0.383591E-03  0.609E-03    0.27       1.5  T
   7   -200.2451039 -0.607182E-05  0.328E-03    0.27       2.7  T
   8   -200.2451063 -0.241449E-05  0.975E-04    0.27       9.1  T
   9   -200.2451064 -0.973735E-07  0.492E-04    0.27      18.0  T
  10   -200.2451064 -0.536033E-09  0.383E-04    0.27      23.1  T
     SCC iter.                  ...        0 min,  0.693 sec
     gradient                   ...        0 min,  0.054 sec
 * total energy  :  -196.9808863 Eh     change       -0.7975542E-02 Eh
   gradient norm :     0.0111635 Eh/α   predicted    -0.7711606E-02 (  -3.31%)
   displ. norm   :     0.7833934 α      lambda       -0.6639249E-02
   maximum displ.:     0.2281431 α      in ANC's #16, #25, #18, ...

........................................................................
.............................. CYCLE   10 ..............................
........................................................................

 iter      E             dE          RMSdq      gap      omega  full diag
   1   -200.2467741 -0.200247E+03  0.992E-02    0.28       0.0  T
   2   -200.2452965  0.147767E-02  0.951E-02    0.26       1.0  T
   3   -200.2021210  0.431754E-01  0.413E-01    0.17       1.0  T
   4   -200.2452567 -0.431356E-01  0.786E-02    0.29       1.0  T
   5   -200.2466100 -0.135333E-02  0.278E-02    0.27       1.0  T
   6   -200.2468076 -0.197594E-03  0.296E-03    0.27       3.0  T
   7   -200.2468086 -0.101203E-05  0.187E-03    0.27       4.7  T
   8   -200.2468091 -0.471082E-06  0.974E-04    0.27       9.1  T
   9   -200.2468091 -0.238004E-07  0.790E-04    0.27      11.2  T
     SCC iter.                  ...        0 min,  0.623 sec
     gradient                   ...        0 min,  0.053 sec
 * total energy  :  -196.9864597 Eh     change       -0.5573405E-02 Eh
   gradient norm :     0.0091400 Eh/α   predicted    -0.5356903E-02 (  -3.88%)
   displ. norm   :     0.7622214 α      lambda       -0.4623198E-02
   maximum displ.:     0.2362284 α      in ANC's #16, #18, #25, ...

........................................................................
.............................. CYCLE   11 ..............................
........................................................................

 iter      E             dE          RMSdq      gap      omega  full diag
   1   -200.2491643 -0.200249E+03  0.906E-02    0.28       0.0  T
   2   -200.2348268  0.143374E-01  0.236E-01    0.23       1.0  T
   3   -200.2339553  0.871590E-03  0.242E-01    0.25       1.0  T
   4   -200.2489559 -0.150007E-01  0.378E-02    0.29       1.0  T
   5   -200.2492234 -0.267514E-03  0.696E-03    0.28       1.3  T
   6   -200.2492317 -0.826668E-05  0.342E-03    0.27       2.6  T
   7   -200.2492339 -0.217378E-05  0.157E-03    0.27       5.6  T
   8   -200.2492342 -0.276164E-06  0.844E-04    0.27      10.5  T
   9   -200.2492342 -0.886531E-07  0.429E-04    0.27      20.6  T
     SCC iter.                  ...        0 min,  0.591 sec
     gradient                   ...        0 min,  0.052 sec
 * total energy  :  -196.9903219 Eh     change       -0.3862201E-02 Eh
   gradient norm :     0.0084445 Eh/α   predicted    -0.3654608E-02 (  -5.37%)
   displ. norm   :     0.7464911 α      lambda       -0.3292958E-02
   maximum displ.:     0.2396414 α      in ANC's #16, #11, #18, ...

........................................................................
.............................. CYCLE   12 ..............................
........................................................................

 iter      E             dE          RMSdq      gap      omega  full diag
   1   -200.2521621 -0.200252E+03  0.839E-02    0.28       0.0  T
   2   -200.2294062  0.227558E-01  0.292E-01    0.22       1.0  T
   3   -200.2448884 -0.154822E-01  0.170E-01    0.26       1.0  T
   4   -200.2515276 -0.663925E-02  0.540E-02    0.28       1.0  T
   5   -200.2522157 -0.688045E-03  0.143E-02    0.28       1.0  T
   6   -200.2522575 -0.418325E-04  0.627E-03    0.27       1.4  T
   7   -200.2522678 -0.103090E-04  0.103E-03    0.27       8.6  T
   8   -200.2522679 -0.404088E-07  0.666E-04    0.27      13.3  T
   9   -200.2522679 -0.430630E-07  0.350E-04    0.27      25.3  T
     SCC iter.                  ...        0 min,  0.633 sec
     gradient                   ...        0 min,  0.051 sec
 * total energy  :  -196.9930860 Eh     change       -0.2764104E-02 Eh
   gradient norm :     0.0079135 Eh/α   predicted    -0.2563984E-02 (  -7.24%)
   displ. norm   :     0.7429833 α      lambda       -0.2487637E-02
   maximum displ.:     0.2578482 α      in ANC's #11, #16, #18, ...

........................................................................
.............................. CYCLE   13 ..............................
........................................................................

 iter      E             dE          RMSdq      gap      omega  full diag
   1   -200.2552628 -0.200255E+03  0.835E-02    0.27       0.0  T
   2   -200.2191064  0.361564E-01  0.366E-01    0.19       1.0  T
   3   -200.2521370 -0.330306E-01  0.118E-01    0.26       1.0  T
   4   -200.2536153 -0.147829E-02  0.822E-02    0.28       1.0  T
   5   -200.2553098 -0.169452E-02  0.253E-02    0.27       1.0  T
   6   -200.2554831 -0.173211E-03  0.191E-03    0.27       4.6  T
   7   -200.2554824  0.618232E-06  0.217E-03    0.27       4.1  T
   8   -200.2554834 -0.945144E-06  0.107E-03    0.27       8.2  T
   9   -200.2554835 -0.163948E-06  0.649E-04    0.27      13.6  T
  10   -200.2554836 -0.938265E-07  0.120E-04    0.27      73.5  T
     SCC iter.                  ...        0 min,  0.508 sec
     gradient                   ...        0 min,  0.052 sec
 * total energy  :  -196.9952001 Eh     change       -0.2114169E-02 Eh
   gradient norm :     0.0068569 Eh/α   predicted    -0.1930444E-02 (  -8.69%)
   displ. norm   :     0.7498463 α      lambda       -0.2010711E-02
   maximum displ.:     0.2749330 α      in ANC's #11, #18, #4, ...

........................................................................
.............................. CYCLE   14 ..............................
........................................................................

 iter      E             dE          RMSdq      gap      omega  full diag
   1   -200.2581004 -0.200258E+03  0.858E-02    0.26       0.0  T
   2   -200.2182634  0.398370E-01  0.382E-01    0.18       1.0  T
   3   -200.2553848 -0.371214E-01  0.112E-01    0.26       1.0  T
   4   -200.2559459 -0.561104E-03  0.926E-02    0.27       1.0  T
   5   -200.2581626 -0.221666E-02  0.273E-02    0.27       1.0  T
   6   -200.2583628 -0.200231E-03  0.473E-03    0.27       1.9  T
   7   -200.2583683 -0.552213E-05  0.138E-03    0.27       6.4  T
   8   -200.2583678  0.505152E-06  0.187E-03    0.27       4.7  T
   9   -200.2583687 -0.857415E-06  0.537E-04    0.27      16.5  T
  10   -200.2583687 -0.590601E-07  0.135E-04    0.27      65.6  T
     SCC iter.                  ...        0 min,  0.526 sec
     gradient                   ...        0 min,  0.051 sec
 * total energy  :  -196.9969357 Eh     change       -0.1735540E-02 Eh
   gradient norm :     0.0057419 Eh/α   predicted    -0.1570648E-02 (  -9.50%)
   displ. norm   :     0.7633555 α      lambda       -0.1727252E-02
   maximum displ.:     0.2851719 α      in ANC's #4, #11, #18, ...

........................................................................
.............................. CYCLE   15 ..............................
........................................................................

 iter      E             dE          RMSdq      gap      omega  full diag
   1   -200.2604566 -0.200260E+03  0.871E-02    0.26       0.0  T
   2   -200.2289074  0.315491E-01  0.339E-01    0.20       1.0  T
   3   -200.2549150 -0.260076E-01  0.149E-01    0.25       1.0  T
   4   -200.2589349 -0.401981E-02  0.773E-02    0.27       1.0  T
   5   -200.2603741 -0.143928E-02  0.293E-02    0.27       1.0  T
   6   -200.2606135 -0.239359E-03  0.344E-03    0.26       2.6  T
   7   -200.2606161 -0.257759E-05  0.126E-03    0.26       7.0  T
   8   -200.2606160  0.990634E-07  0.130E-03    0.26       6.8  T
   9   -200.2606163 -0.323261E-06  0.657E-04    0.26      13.5  T
  10   -200.2606164 -0.885342E-07  0.166E-04    0.26      53.4  T
     SCC iter.                  ...        0 min,  0.659 sec
     gradient                   ...        0 min,  0.054 sec
 * total energy  :  -196.9984526 Eh     change       -0.1516942E-02 Eh
   gradient norm :     0.0055166 Eh/α   predicted    -0.1366904E-02 (  -9.89%)
   displ. norm   :     0.7781909 α      lambda       -0.1564608E-02
   maximum displ.:     0.3303342 α      in ANC's #4, #11, #18, ...

........................................................................
.............................. CYCLE   16 ..............................
........................................................................

 iter      E             dE          RMSdq      gap      omega  full diag
   1   -200.2621673 -0.200262E+03  0.882E-02    0.26       0.0  T
   2   -200.2584381  0.372926E-02  0.125E-01    0.25       1.0  T
   3   -200.2263623  0.320758E-01  0.357E-01    0.21       1.0  T
   4   -200.2612985 -0.349362E-01  0.578E-02    0.28       1.0  T
   5   -200.2619541 -0.655608E-03  0.284E-02    0.27       1.0  T
   6   -200.2621805 -0.226386E-03  0.448E-03    0.26       2.0  T
   7   -200.2621852 -0.469346E-05  0.176E-03    0.26       5.0  T
   8   -200.2621859 -0.693741E-06  0.611E-04    0.26      14.5  T
   9   -200.2621858  0.847502E-07  0.744E-04    0.26      11.9  T
     SCC iter.                  ...        0 min,  0.717 sec
     gradient                   ...        0 min,  0.054 sec
 * total energy  :  -196.9998530 Eh     change       -0.1400380E-02 Eh
   gradient norm :     0.0059446 Eh/α   predicted    -0.1256054E-02 ( -10.31%)
   displ. norm   :     0.7908267 α      lambda       -0.1487436E-02
   maximum displ.:     0.3750694 α      in ANC's #4, #18, #7, ...

........................................................................
.............................. CYCLE   17 ..............................
........................................................................

 iter      E             dE          RMSdq      gap      omega  full diag
   1   -200.2633946 -0.200263E+03  0.907E-02    0.27       0.0  T
   2   -200.2630247  0.369927E-03  0.647E-02    0.26       1.0  T
   3   -200.2093328  0.536919E-01  0.439E-01    0.18       1.0  T
   4   -200.2628677 -0.535349E-01  0.462E-02    0.28       1.0  T
   5   -200.2632995 -0.431804E-03  0.194E-02    0.27       1.0  T
   6   -200.2633962 -0.967011E-04  0.608E-03    0.26       1.5  T
   7   -200.2634065 -0.103288E-04  0.715E-04    0.26      12.4  T
   8   -200.2634064  0.111742E-06  0.843E-04    0.26      10.5  T
   9   -200.2634065 -0.100898E-06  0.528E-04    0.26      16.7  T
     SCC iter.                  ...        0 min,  0.463 sec
     gradient                   ...        0 min,  0.053 sec
 * total energy  :  -197.0012082 Eh     change       -0.1355213E-02 Eh
   gradient norm :     0.0063405 Eh/α   predicted    -0.1208852E-02 ( -10.80%)
   displ. norm   :     0.8050241 α      lambda       -0.1472599E-02
   maximum displ.:     0.4172479 α      in ANC's #4, #18, #7, ...

........................................................................
.............................. CYCLE   18 ..............................
........................................................................

 iter      E             dE          RMSdq      gap      omega  full diag
   1   -200.2640572 -0.200264E+03  0.959E-02    0.27       0.0  T
   2   -200.2229712  0.410861E-01  0.384E-01    0.21       1.0  T
   3   -200.2584341 -0.354629E-01  0.151E-01    0.25       1.0  T
   4   -200.2621919 -0.375783E-02  0.866E-02    0.28       1.0  T
   5   -200.2640613 -0.186945E-02  0.280E-02    0.27       1.0  T
   6   -200.2642825 -0.221120E-03  0.391E-03    0.27       2.3  T
   7   -200.2642859 -0.344663E-05  0.160E-03    0.27       5.5  T
   8   -200.2642865 -0.559028E-06  0.660E-04    0.27      13.4  T
   9   -200.2642864  0.645280E-07  0.712E-04    0.27      12.4  T
     SCC iter.                  ...        0 min,  0.482 sec
     gradient                   ...        0 min,  0.054 sec
 * total energy  :  -197.0025669 Eh     change       -0.1358638E-02 Eh
   gradient norm :     0.0064272 Eh/α   predicted    -0.1213469E-02 ( -10.68%)
   displ. norm   :     0.8152074 α      lambda       -0.1483581E-02
   maximum displ.:     0.4534814 α      in ANC's #4, #7, #18, ...

........................................................................
.............................. CYCLE   19 ..............................
........................................................................

 iter      E             dE          RMSdq      gap      omega  full diag
   1   -200.2652655 -0.200265E+03  0.918E-02    0.28       0.0  T
   2   -200.2587884  0.647708E-02  0.159E-01    0.25       1.0  T
   3   -200.2367585  0.220299E-01  0.318E-01    0.21       1.0  T
   4   -200.2641027 -0.273442E-01  0.678E-02    0.28       1.0  T
   5   -200.2648366 -0.733898E-03  0.395E-02    0.27       1.0  T
   6   -200.2652722 -0.435607E-03  0.919E-03    0.27       1.0  T
   7   -200.2652939 -0.217216E-04  0.287E-03    0.27       3.1  T
   8   -200.2652962 -0.225632E-05  0.522E-04    0.27      16.9  T
   9   -200.2652962 -0.214896E-07  0.311E-04    0.27      28.5  T
  10   -200.2652962  0.285911E-08  0.261E-04    0.27      33.9  T
     SCC iter.                  ...        0 min,  0.697 sec
     gradient                   ...        0 min,  0.052 sec
 * total energy  :  -197.0039420 Eh     change       -0.1375115E-02 Eh
   gradient norm :     0.0069975 Eh/α   predicted    -0.1234759E-02 ( -10.21%)
   displ. norm   :     0.8176373 α      lambda       -0.1482126E-02
   maximum displ.:     0.4770509 α      in ANC's #4, #7, #18, ...

........................................................................
.............................. CYCLE   20 ..............................
........................................................................

 iter      E             dE          RMSdq      gap      omega  full diag
   1   -200.2658167 -0.200266E+03  0.921E-02    0.28       0.0  T
   2   -200.2276908  0.381259E-01  0.369E-01    0.22       1.0  T
   3   -200.2606144 -0.329236E-01  0.145E-01    0.26       1.0  T
   4   -200.2652749 -0.466056E-02  0.537E-02    0.29       1.0  T
   5   -200.2658736 -0.598697E-03  0.220E-02    0.28       1.0  T
   6   -200.2659989 -0.125272E-03  0.625E-03    0.28       1.4  T
   7   -200.2660097 -0.107995E-04  0.106E-03    0.28       8.4  T
   8   -200.2660097 -0.313480E-07  0.837E-04    0.28      10.6  T
   9   -200.2660097  0.368016E-08  0.786E-04    0.28      11.2  T
     SCC iter.                  ...        0 min,  0.550 sec
     gradient                   ...        0 min,  0.051 sec
 * total energy  :  -197.0053061 Eh     change       -0.1364152E-02 Eh
   gradient norm :     0.0075881 Eh/α   predicted    -0.1236496E-02 (  -9.36%)
   displ. norm   :     0.8092131 α      lambda       -0.1428311E-02
   maximum displ.:     0.4884488 α      in ANC's #4, #9, #7, ...
 * RMSD in coord.:     1.0725745 α      energy gain  -0.3606596E+00 Eh

generating ANC from model Hessian ...
Using Lindh-Hessian (1995)
 Shifting diagonal of input Hessian by    1.0014860719752265E-002
 Lowest  eigenvalues of input Hessian
    0.010000    0.000000    0.000000    0.000000    0.000000    0.000000
    0.000000    0.010032    0.010127    0.010181    0.010189    0.010239
    0.010265    0.010424    0.010441    0.010612    0.010619    0.010724
 Highest eigenvalues
    2.124954    2.125570    2.183174    2.185560    2.324906    2.326393


........................................................................
.............................. CYCLE   21 ..............................
........................................................................

 iter      E             dE          RMSdq      gap      omega  full diag
   1   -200.2672781 -0.200267E+03  0.857E-02    0.29       0.0  T
   2   -200.2547112  0.125668E-01  0.214E-01    0.26       1.0  T
   3   -200.2527844  0.192680E-02  0.230E-01    0.25       1.0  T
   4   -200.2665855 -0.138011E-01  0.518E-02    0.29       1.0  T
   5   -200.2672686 -0.683060E-03  0.142E-02    0.29       1.0  T
   6   -200.2673241 -0.555503E-04  0.272E-03    0.29       3.2  T
   7   -200.2673259 -0.179875E-05  0.745E-04    0.28      11.9  T
   8   -200.2673260 -0.110392E-07  0.507E-04    0.28      17.4  T
   9   -200.2673259  0.700940E-07  0.610E-04    0.28      14.5  T
     SCC iter.                  ...        0 min,  0.617 sec
     gradient                   ...        0 min,  0.062 sec
 * total energy  :  -197.0065886 Eh     change       -0.1282528E-02 Eh
   gradient norm :     0.0080425 Eh/α   predicted     0.0000000E+00 (-100.00%)
   displ. norm   :     0.1712254 α      lambda       -0.5286736E-03
   maximum displ.:     0.0835625 α      in ANC's #10, #3, #16, ...

........................................................................
.............................. CYCLE   22 ..............................
........................................................................

 iter      E             dE          RMSdq      gap      omega  full diag
   1   -200.2695588 -0.200270E+03  0.362E-02    0.28       0.0  T
   2   -200.2305397  0.390191E-01  0.371E-01    0.23       1.0  T
   3   -200.2697471 -0.392074E-01  0.153E-02    0.29       1.0  T
   4   -200.2697314  0.157006E-04  0.104E-02    0.29       1.0  T
   5   -200.2697434 -0.120339E-04  0.480E-03    0.29       1.8  T
   6   -200.2697492 -0.578716E-05  0.730E-04    0.29      12.1  T
   7   -200.2697492  0.630105E-07  0.777E-04    0.29      11.4  T
   8   -200.2697493 -0.109034E-06  0.403E-04    0.29      21.9  T
     SCC iter.                  ...        0 min,  0.529 sec
     gradient                   ...        0 min,  0.052 sec
 * total energy  :  -197.0070306 Eh     change       -0.4419094E-03 Eh
   gradient norm :     0.0041533 Eh/α   predicted    -0.2722005E-03 ( -38.40%)
   displ. norm   :     0.4639971 α      lambda       -0.9627263E-03
   maximum displ.:     0.2227103 α      in ANC's #10, #3, #16, ...

........................................................................
.............................. CYCLE   23 ..............................
........................................................................

 iter      E             dE          RMSdq      gap      omega  full diag
   1   -200.2712590 -0.200271E+03  0.768E-02    0.29       0.0  T
   2   -200.2114287  0.598303E-01  0.470E-01    0.17       1.0  T
   3   -200.2718647 -0.604360E-01  0.434E-02    0.30       1.0  T
   4   -200.2678430  0.402175E-02  0.123E-01    0.26       1.0  T
   5   -200.2721060 -0.426298E-02  0.812E-03    0.29       1.1  T
   6   -200.2720853  0.206148E-04  0.114E-02    0.30       1.0  T
   7   -200.2721213 -0.359113E-04  0.248E-03    0.29       3.6  T
   8   -200.2721216 -0.313376E-06  0.229E-03    0.29       3.9  T
   9   -200.2721227 -0.111463E-05  0.112E-03    0.29       7.9  T
  10   -200.2721230 -0.335124E-06  0.206E-04    0.29      42.8  T
  11   -200.2721230  0.404185E-08  0.235E-04    0.29      37.6  T
     SCC iter.                  ...        0 min,  1.126 sec
     gradient                   ...        0 min,  0.049 sec
 * total energy  :  -197.0077586 Eh     change       -0.7280871E-03 Eh
   gradient norm :     0.0055026 Eh/α   predicted    -0.5850623E-03 ( -19.64%)
   displ. norm   :     0.5115617 α      lambda       -0.7028362E-03
   maximum displ.:     0.2468461 α      in ANC's #10, #3, #16, ...

........................................................................
.............................. CYCLE   24 ..............................
........................................................................

 iter      E             dE          RMSdq      gap      omega  full diag
   1   -200.2719876 -0.200272E+03  0.640E-02    0.30       0.0  T
   2   -200.2224034  0.495842E-01  0.422E-01    0.22       1.0  T
   3   -200.2721417 -0.497383E-01  0.402E-02    0.30       1.0  T
   4   -200.2722181 -0.764397E-04  0.235E-02    0.30       1.0  T
   5   -200.2723426 -0.124491E-03  0.390E-03    0.30       2.3  T
   6   -200.2723409  0.172394E-05  0.419E-03    0.30       2.1  T
   7   -200.2723455 -0.464737E-05  0.138E-03    0.30       6.4  T
   8   -200.2723460 -0.480126E-06  0.328E-04    0.30      26.9  T
   9   -200.2723460  0.416405E-07  0.464E-04    0.30      19.1  T
     SCC iter.                  ...        0 min,  0.500 sec
     gradient                   ...        0 min,  0.057 sec
 * total energy  :  -197.0083410 Eh     change       -0.5823463E-03 Eh
   gradient norm :     0.0076407 Eh/α   predicted    -0.4434107E-03 ( -23.86%)
   displ. norm   :     0.5693503 α      lambda       -0.7258508E-03
   maximum displ.:     0.2760429 α      in ANC's #10, #3, #13, ...

........................................................................
.............................. CYCLE   25 ..............................
........................................................................

 iter      E             dE          RMSdq      gap      omega  full diag
   1   -200.2720826 -0.200272E+03  0.625E-02    0.31       0.0  T
   2   -200.2537233  0.183593E-01  0.256E-01    0.28       1.0  T
   3   -200.2687002 -0.149769E-01  0.115E-01    0.29       1.0  T
   4   -200.2721069 -0.340673E-02  0.137E-02    0.31       1.0  T
   5   -200.2721241 -0.172078E-04  0.811E-03    0.31       1.1  T
   6   -200.2721427 -0.186016E-04  0.122E-03    0.30       7.2  T
   7   -200.2721430 -0.249587E-06  0.443E-04    0.30      19.9  T
   8   -200.2721430  0.389781E-08  0.330E-04    0.30      26.8  T
     SCC iter.                  ...        0 min,  0.475 sec
     gradient                   ...        0 min,  0.061 sec
 * total energy  :  -197.0089609 Eh     change       -0.6198780E-03 Eh
   gradient norm :     0.0072840 Eh/α   predicted    -0.4805717E-03 ( -22.47%)
   displ. norm   :     0.6008587 α      lambda       -0.7505390E-03
   maximum displ.:     0.2930555 α      in ANC's #10, #3, #13, ...

........................................................................
.............................. CYCLE   26 ..............................
........................................................................

 iter      E             dE          RMSdq      gap      omega  full diag
   1   -200.2723764 -0.200272E+03  0.694E-02    0.31       0.0  T
   2   -200.2613878  0.109886E-01  0.201E-01    0.28       1.0  T
   3   -200.2642167 -0.282887E-02  0.173E-01    0.29       1.0  T
   4   -200.2720290 -0.781232E-02  0.375E-02    0.31       1.0  T
   5   -200.2723887 -0.359727E-03  0.966E-03    0.31       1.0  T
   6   -200.2724134 -0.246564E-04  0.226E-03    0.31       3.9  T
   7   -200.2724146 -0.123915E-05  0.596E-04    0.31      14.8  T
   8   -200.2724146 -0.192088E-07  0.429E-04    0.31      20.6  T
   9   -200.2724147 -0.320636E-07  0.180E-04    0.31      49.1  T
     SCC iter.                  ...        0 min,  0.654 sec
     gradient                   ...        0 min,  0.066 sec
 * total energy  :  -197.0095697 Eh     change       -0.6088491E-03 Eh
   gradient norm :     0.0053315 Eh/α   predicted    -0.5107537E-03 ( -16.11%)
   displ. norm   :     0.5531314 α      lambda       -0.5694198E-03
   maximum displ.:     0.2772130 α      in ANC's #3, #10, #13, ...

........................................................................
.............................. CYCLE   27 ..............................
........................................................................

 iter      E             dE          RMSdq      gap      omega  full diag
   1   -200.2730219 -0.200273E+03  0.687E-02    0.31       0.0  T
   2   -200.2493271  0.236948E-01  0.292E-01    0.26       1.0  T
   3   -200.2698886 -0.205615E-01  0.112E-01    0.30       1.0  T
   4   -200.2721721 -0.228354E-02  0.586E-02    0.30       1.0  T
   5   -200.2729779 -0.805797E-03  0.224E-02    0.30       1.0  T
   6   -200.2731216 -0.143672E-03  0.113E-03    0.30       7.8  T
   7   -200.2731211  0.544863E-06  0.162E-03    0.30       5.5  T
   8   -200.2731216 -0.543773E-06  0.863E-04    0.30      10.2  T
   9   -200.2731218 -0.151298E-06  0.453E-04    0.30      19.5  T
     SCC iter.                  ...        0 min,  0.905 sec
     gradient                   ...        0 min,  0.068 sec
 * total energy  :  -197.0100061 Eh     change       -0.4363685E-03 Eh
   gradient norm :     0.0041681 Eh/α   predicted    -0.3718231E-03 ( -14.79%)
   displ. norm   :     0.4548952 α      lambda       -0.3703635E-03
   maximum displ.:     0.2462806 α      in ANC's #3, #10, #13, ...

........................................................................
.............................. CYCLE   28 ..............................
........................................................................

 iter      E             dE          RMSdq      gap      omega  full diag
   1   -200.2740577 -0.200274E+03  0.560E-02    0.30       0.0  T
   2   -200.2735916  0.466013E-03  0.523E-02    0.30       1.0  T
   3   -200.2389848  0.346068E-01  0.352E-01    0.25       1.0  T
   4   -200.2739673 -0.349825E-01  0.213E-02    0.31       1.0  T
   5   -200.2740371 -0.698385E-04  0.950E-03    0.30       1.0  T
   6   -200.2740618 -0.246760E-04  0.131E-03    0.30       6.7  T
   7   -200.2740620 -0.170082E-06  0.991E-04    0.30       8.9  T
   8   -200.2740622 -0.185669E-06  0.481E-04    0.30      18.4  T
     SCC iter.                  ...        0 min,  0.521 sec
     gradient                   ...        0 min,  0.055 sec
 * total energy  :  -197.0103019 Eh     change       -0.2958092E-03 Eh
   gradient norm :     0.0041865 Eh/α   predicted    -0.2235014E-03 ( -24.44%)
   displ. norm   :     0.4300502 α      lambda       -0.3515716E-03
   maximum displ.:     0.2414045 α      in ANC's #3, #10, #5, ...

........................................................................
.............................. CYCLE   29 ..............................
........................................................................

 iter      E             dE          RMSdq      gap      omega  full diag
   1   -200.2752770 -0.200275E+03  0.558E-02    0.30       0.0  T
   2   -200.2683072  0.696978E-02  0.160E-01    0.28       1.0  T
   3   -200.2694257 -0.111848E-02  0.146E-01    0.28       1.0  T
   4   -200.2752482 -0.582247E-02  0.164E-02    0.30       1.0  T
   5   -200.2752942 -0.459847E-04  0.381E-03    0.30       2.3  T
   6   -200.2752981 -0.392689E-05  0.589E-04    0.30      15.0  T
   7   -200.2752981  0.322476E-08  0.461E-04    0.30      19.2  T
   8   -200.2752981 -0.344698E-07  0.210E-04    0.30      42.0  T
     SCC iter.                  ...        0 min,  0.662 sec
     gradient                   ...        0 min,  0.052 sec
 * total energy  :  -197.0105977 Eh     change       -0.2958346E-03 Eh
   gradient norm :     0.0044835 Eh/α   predicted    -0.2082983E-03 ( -29.59%)
   displ. norm   :     0.4865318 α      lambda       -0.4014575E-03
   maximum displ.:     0.2751143 α      in ANC's #3, #5, #10, ...

........................................................................
.............................. CYCLE   30 ..............................
........................................................................

 iter      E             dE          RMSdq      gap      omega  full diag
   1   -200.2754027 -0.200275E+03  0.663E-02    0.29       0.0  T
   2   -200.2472844  0.281183E-01  0.317E-01    0.25       1.0  T
   3   -200.2729310 -0.256466E-01  0.101E-01    0.28       1.0  T
   4   -200.2750345 -0.210345E-02  0.408E-02    0.30       1.0  T
   5   -200.2754742 -0.439751E-03  0.110E-02    0.30       1.0  T
   6   -200.2755077 -0.334745E-04  0.822E-04    0.29      10.7  T
   7   -200.2755077 -0.876793E-08  0.590E-04    0.29      15.0  T
   8   -200.2755077 -0.746991E-08  0.505E-04    0.29      17.5  T
     SCC iter.                  ...        0 min,  0.396 sec
     gradient                   ...        0 min,  0.054 sec
 * total energy  :  -197.0109350 Eh     change       -0.3373003E-03 Eh
   gradient norm :     0.0044811 Eh/α   predicted    -0.2482480E-03 ( -26.40%)
   displ. norm   :     0.5030173 α      lambda       -0.3858176E-03
   maximum displ.:     0.2876005 α      in ANC's #3, #5, #10, ...

........................................................................
.............................. CYCLE   31 ..............................
........................................................................

 iter      E             dE          RMSdq      gap      omega  full diag
   1   -200.2750115 -0.200275E+03  0.674E-02    0.29       0.0  T
   2   -200.2430000  0.320115E-01  0.338E-01    0.25       1.0  T
   3   -200.2727523 -0.297523E-01  0.980E-02    0.28       1.0  T
   4   -200.2744779 -0.172563E-02  0.478E-02    0.29       1.0  T
   5   -200.2751040 -0.626116E-03  0.115E-02    0.29       1.0  T
   6   -200.2751399 -0.359393E-04  0.100E-03    0.29       8.8  T
   7   -200.2751399  0.147961E-07  0.803E-04    0.29      11.0  T
   8   -200.2751400 -0.800981E-07  0.548E-04    0.29      16.1  T
     SCC iter.                  ...        0 min,  0.497 sec
     gradient                   ...        0 min,  0.062 sec
 * total energy  :  -197.0112525 Eh     change       -0.3174688E-03 Eh
   gradient norm :     0.0039581 Eh/α   predicted    -0.2417205E-03 ( -23.86%)
   displ. norm   :     0.4742419 α      lambda       -0.3183835E-03
   maximum displ.:     0.2743839 α      in ANC's #3, #5, #16, ...

........................................................................
.............................. CYCLE   32 ..............................
........................................................................

 iter      E             dE          RMSdq      gap      omega  full diag
   1   -200.2750688 -0.200275E+03  0.605E-02    0.29       0.0  T
   2   -200.2458330  0.292358E-01  0.322E-01    0.25       1.0  T
   3   -200.2733811 -0.275481E-01  0.855E-02    0.28       1.0  T
   4   -200.2748158 -0.143471E-02  0.356E-02    0.29       1.0  T
   5   -200.2751620 -0.346200E-03  0.809E-03    0.29       1.1  T
   6   -200.2751793 -0.172061E-04  0.116E-03    0.29       7.6  T
   7   -200.2751794 -0.164637E-06  0.638E-04    0.29      13.8  T
   8   -200.2751795 -0.560468E-07  0.393E-04    0.29      22.5  T
     SCC iter.                  ...        0 min,  0.604 sec
     gradient                   ...        0 min,  0.056 sec
 * total energy  :  -197.0115151 Eh     change       -0.2626283E-03 Eh
   gradient norm :     0.0033077 Eh/α   predicted    -0.1949962E-03 ( -25.75%)
   displ. norm   :     0.4518104 α      lambda       -0.2791531E-03
   maximum displ.:     0.2611109 α      in ANC's #3, #5, #16, ...

........................................................................
.............................. CYCLE   33 ..............................
........................................................................

 iter      E             dE          RMSdq      gap      omega  full diag
   1   -200.2758043 -0.200276E+03  0.536E-02    0.28       0.0  T
   2   -200.2536667  0.221376E-01  0.280E-01    0.26       1.0  T
   3   -200.2742518 -0.205851E-01  0.808E-02    0.28       1.0  T
   4   -200.2757529 -0.150106E-02  0.216E-02    0.29       1.0  T
   5   -200.2758710 -0.118138E-03  0.548E-03    0.29       1.6  T
   6   -200.2758785 -0.747290E-05  0.126E-03    0.29       7.0  T
   7   -200.2758788 -0.339050E-06  0.341E-04    0.29      25.9  T
   8   -200.2758788 -0.383636E-08  0.219E-04    0.29      40.4  T
     SCC iter.                  ...        0 min,  1.015 sec
     gradient                   ...        0 min,  0.060 sec
 * total energy  :  -197.0117517 Eh     change       -0.2365430E-03 Eh
   gradient norm :     0.0032982 Eh/α   predicted    -0.1680718E-03 ( -28.95%)
   displ. norm   :     0.4852783 α      lambda       -0.2938645E-03
   maximum displ.:     0.2763954 α      in ANC's #3, #5, #16, ...

........................................................................
.............................. CYCLE   34 ..............................
........................................................................

 iter      E             dE          RMSdq      gap      omega  full diag
   1   -200.2766028 -0.200277E+03  0.557E-02    0.28       0.0  T
   2   -200.2534401  0.231627E-01  0.287E-01    0.25       1.0  T
   3   -200.2749226 -0.214825E-01  0.841E-02    0.27       1.0  T
   4   -200.2765779 -0.165534E-02  0.203E-02    0.29       1.0  T
   5   -200.2766734 -0.955073E-04  0.588E-03    0.29       1.5  T
   6   -200.2766820 -0.861771E-05  0.147E-03    0.28       6.0  T
   7   -200.2766825 -0.481283E-06  0.380E-04    0.28      23.3  T
   8   -200.2766825  0.167073E-07  0.367E-04    0.28      24.1  T
     SCC iter.                  ...        0 min,  0.754 sec
     gradient                   ...        0 min,  0.064 sec
 * total energy  :  -197.0120037 Eh     change       -0.2519829E-03 Eh
   gradient norm :     0.0038478 Eh/α   predicted    -0.1815399E-03 ( -27.96%)
   displ. norm   :     0.5361840 α      lambda       -0.3154326E-03
   maximum displ.:     0.3030755 α      in ANC's #3, #5, #16, ...

........................................................................
.............................. CYCLE   35 ..............................
........................................................................

 iter      E             dE          RMSdq      gap      omega  full diag
   1   -200.2769200 -0.200277E+03  0.609E-02    0.27       0.0  T
   2   -200.2521439  0.247761E-01  0.297E-01    0.25       1.0  T
   3   -200.2747683 -0.226243E-01  0.945E-02    0.27       1.0  T
   4   -200.2768880 -0.211976E-02  0.218E-02    0.28       1.0  T
   5   -200.2769984 -0.110400E-03  0.617E-03    0.28       1.4  T
   6   -200.2770074 -0.897562E-05  0.192E-03    0.28       4.6  T
   7   -200.2770083 -0.902677E-06  0.464E-04    0.28      19.1  T
   8   -200.2770083  0.202986E-07  0.442E-04    0.28      20.0  T
     SCC iter.                  ...        0 min,  0.660 sec
     gradient                   ...        0 min,  0.087 sec
 * total energy  :  -197.0122718 Eh     change       -0.2681341E-03 Eh
   gradient norm :     0.0041601 Eh/α   predicted    -0.2030589E-03 ( -24.27%)
   displ. norm   :     0.5639312 α      lambda       -0.3032669E-03
   maximum displ.:     0.3200271 α      in ANC's #3, #5, #6, ...

........................................................................
.............................. CYCLE   36 ..............................
........................................................................

 iter      E             dE          RMSdq      gap      omega  full diag
   1   -200.2766587 -0.200277E+03  0.651E-02    0.27       0.0  T
   2   -200.2450408  0.316179E-01  0.336E-01    0.24       1.0  T
   3   -200.2748234 -0.297826E-01  0.899E-02    0.27       1.0  T
   4   -200.2765117 -0.168835E-02  0.316E-02    0.28       1.0  T
   5   -200.2767721 -0.260393E-03  0.739E-03    0.28       1.2  T
   6   -200.2767848 -0.126558E-04  0.232E-03    0.28       3.8  T
   7   -200.2767860 -0.126253E-05  0.905E-04    0.27       9.8  T
   8   -200.2767862 -0.194659E-06  0.247E-04    0.27      35.8  T
   9   -200.2767862  0.357155E-07  0.391E-04    0.27      22.6  T
     SCC iter.                  ...        0 min,  0.740 sec
     gradient                   ...        0 min,  0.076 sec
 * total energy  :  -197.0125236 Eh     change       -0.2517943E-03 Eh
   gradient norm :     0.0038724 Eh/α   predicted    -0.1998599E-03 ( -20.63%)
   displ. norm   :     0.5436444 α      lambda       -0.2508933E-03
   maximum displ.:     0.3130689 α      in ANC's #3, #5, #6, ...

........................................................................
.............................. CYCLE   37 ..............................
........................................................................

 iter      E             dE          RMSdq      gap      omega  full diag
   1   -200.2764277 -0.200276E+03  0.621E-02    0.26       0.0  T
   2   -200.2473062  0.291215E-01  0.323E-01    0.23       1.0  T
   3   -200.2747525 -0.274463E-01  0.858E-02    0.26       1.0  T
   4   -200.2762583 -0.150582E-02  0.322E-02    0.27       1.0  T
   5   -200.2765345 -0.276186E-03  0.514E-03    0.27       1.7  T
   6   -200.2765384 -0.393783E-05  0.280E-03    0.27       3.2  T
   7   -200.2765405 -0.208704E-05  0.783E-04    0.27      11.3  T
   8   -200.2765406 -0.106438E-06  0.392E-04    0.27      22.5  T
   9   -200.2765406 -0.469055E-08  0.310E-04    0.27      28.5  T
     SCC iter.                  ...        0 min,  0.831 sec
     gradient                   ...        0 min,  0.051 sec
 * total energy  :  -197.0127268 Eh     change       -0.2032101E-03 Eh
   gradient norm :     0.0030324 Eh/α   predicted    -0.1625229E-03 ( -20.02%)
   displ. norm   :     0.4898498 α      lambda       -0.1898301E-03
   maximum displ.:     0.2877090 α      in ANC's #3, #5, #6, ...

........................................................................
.............................. CYCLE   38 ..............................
........................................................................

 iter      E             dE          RMSdq      gap      omega  full diag
   1   -200.2762157 -0.200276E+03  0.586E-02    0.26       0.0  T
   2   -200.2341626  0.420531E-01  0.388E-01    0.21       1.0  T
   3   -200.2759411 -0.417785E-01  0.506E-02    0.26       1.0  T
   4   -200.2760747 -0.133643E-03  0.361E-02    0.26       1.0  T
   5   -200.2764311 -0.356354E-03  0.266E-03    0.26       3.3  T
   6   -200.2764315 -0.406398E-06  0.181E-03    0.27       4.9  T
   7   -200.2764323 -0.780366E-06  0.640E-04    0.27      13.8  T
   8   -200.2764324 -0.731417E-07  0.273E-04    0.27      32.4  T
     SCC iter.                  ...        0 min,  0.640 sec
     gradient                   ...        0 min,  0.057 sec
 * total energy  :  -197.0128796 Eh     change       -0.1527691E-03 Eh
   gradient norm :     0.0023790 Eh/α   predicted    -0.1176909E-03 ( -22.96%)
   displ. norm   :     0.4354166 α      lambda       -0.1499080E-03
   maximum displ.:     0.2584076 α      in ANC's #3, #5, #6, ...

........................................................................
.............................. CYCLE   39 ..............................
........................................................................

 iter      E             dE          RMSdq      gap      omega  full diag
   1   -200.2765984 -0.200277E+03  0.551E-02    0.25       0.0  T
   2   -200.2280039  0.485944E-01  0.419E-01    0.20       1.0  T
   3   -200.2768209 -0.488170E-01  0.303E-02    0.26       1.0  T
   4   -200.2767596  0.613223E-04  0.245E-02    0.26       1.0  T
   5   -200.2768780 -0.118415E-03  0.994E-03    0.26       1.0  T
   6   -200.2769026 -0.246143E-04  0.384E-03    0.26       2.3  T
   7   -200.2769067 -0.408036E-05  0.816E-04    0.26      10.8  T
   8   -200.2769068 -0.141755E-06  0.261E-04    0.26      33.8  T
   9   -200.2769068 -0.447557E-09  0.190E-04    0.26      46.6  T
     SCC iter.                  ...        0 min,  0.759 sec
     gradient                   ...        0 min,  0.062 sec
 * total energy  :  -197.0130009 Eh     change       -0.1213116E-03 Eh
   gradient norm :     0.0024990 Eh/α   predicted    -0.8916590E-04 ( -26.50%)
   displ. norm   :     0.4253420 α      lambda       -0.1352772E-03
   maximum displ.:     0.2511850 α      in ANC's #3, #5, #6, ...

........................................................................
.............................. CYCLE   40 ..............................
........................................................................

 iter      E             dE          RMSdq      gap      omega  full diag
   1   -200.2767347 -0.200277E+03  0.545E-02    0.25       0.0  T
   2   -200.2265403  0.501944E-01  0.426E-01    0.19       1.0  T
   3   -200.2770252 -0.504849E-01  0.271E-02    0.26       1.0  T
   4   -200.2769706  0.545821E-04  0.216E-02    0.25       1.0  T
   5   -200.2770284 -0.577655E-04  0.122E-02    0.25       1.0  T
   6   -200.2770640 -0.356213E-04  0.518E-03    0.26       1.7  T
   7   -200.2770716 -0.757356E-05  0.834E-04    0.26      10.6  T
   8   -200.2770717 -0.148066E-06  0.295E-04    0.26      30.0  T
   9   -200.2770717  0.143959E-08  0.247E-04    0.26      35.7  T
     SCC iter.                  ...        0 min,  0.536 sec
     gradient                   ...        0 min,  0.052 sec
 * total energy  :  -197.0131108 Eh     change       -0.1099127E-03 Eh
   gradient norm :     0.0029516 Eh/α   predicted    -0.7988076E-04 ( -27.32%)
   displ. norm   :     0.4367361 α      lambda       -0.1343571E-03
   maximum displ.:     0.2495348 α      in ANC's #3, #5, #1, ...

........................................................................
.............................. CYCLE   41 ..............................
........................................................................

 iter      E             dE          RMSdq      gap      omega  full diag
   1   -200.2771858 -0.200277E+03  0.556E-02    0.24       0.0  T
   2   -200.2263318  0.508539E-01  0.429E-01    0.19       1.0  T
   3   -200.2774828 -0.511510E-01  0.279E-02    0.26       1.0  T
   4   -200.2774462  0.365659E-04  0.208E-02    0.25       1.0  T
   5   -200.2774970 -0.507701E-04  0.113E-02    0.25       1.0  T
   6   -200.2775270 -0.300005E-04  0.486E-03    0.26       1.8  T
   7   -200.2775335 -0.645412E-05  0.963E-04    0.25       9.2  T
   8   -200.2775336 -0.155954E-06  0.550E-04    0.25      16.1  T
   9   -200.2775337 -0.716371E-07  0.172E-04    0.25      51.4  T
     SCC iter.                  ...        0 min,  0.711 sec
     gradient                   ...        0 min,  0.053 sec
 * total energy  :  -197.0132182 Eh     change       -0.1074601E-03 Eh
   gradient norm :     0.0034406 Eh/α   predicted    -0.7999671E-04 ( -25.56%)
   displ. norm   :     0.4362548 α      lambda       -0.1296925E-03
   maximum displ.:     0.2355311 α      in ANC's #3, #1, #5, ...

........................................................................
.............................. CYCLE   42 ..............................
........................................................................

 iter      E             dE          RMSdq      gap      omega  full diag
   1   -200.2771818 -0.200277E+03  0.528E-02    0.24       0.0  T
   2   -200.2332316  0.439503E-01  0.397E-01    0.20       1.0  T
   3   -200.2772084 -0.439768E-01  0.371E-02    0.25       1.0  T
   4   -200.2773059 -0.974897E-04  0.230E-02    0.24       1.0  T
   5   -200.2774163 -0.110482E-03  0.289E-03    0.25       3.1  T
   6   -200.2774173 -0.101407E-05  0.174E-03    0.25       5.1  T
   7   -200.2774179 -0.518300E-06  0.745E-04    0.25      11.9  T
   8   -200.2774179 -0.424823E-07  0.580E-04    0.25      15.2  T
     SCC iter.                  ...        0 min,  0.570 sec
     gradient                   ...        0 min,  0.051 sec
 * total energy  :  -197.0133188 Eh     change       -0.1005209E-03 Eh
   gradient norm :     0.0030430 Eh/α   predicted    -0.7719079E-04 ( -23.21%)
   displ. norm   :     0.3810223 α      lambda       -0.1138059E-03
   maximum displ.:     0.1752273 α      in ANC's #3, #1, #6, ...
 * RMSD in coord.:     0.7354845 α      energy gain  -0.8012646E-02 Eh

generating ANC from model Hessian ...
Using Lindh-Hessian (1995)
 Shifting diagonal of input Hessian by    1.0033779480220696E-002
 Lowest  eigenvalues of input Hessian
    0.010000    0.000000    0.000000    0.000000    0.000000    0.000000
    0.000000    0.010042    0.010167    0.010230    0.010239    0.010258
    0.010374    0.010438    0.010459    0.010704    0.010727    0.010842
 Highest eigenvalues
    2.125608    2.127765    2.183303    2.191812    2.319490    2.337655


........................................................................
.............................. CYCLE   43 ..............................
........................................................................

 iter      E             dE          RMSdq      gap      omega  full diag
   1   -200.2782676 -0.200278E+03  0.475E-02    0.24       0.0  T
   2   -200.2382525  0.400152E-01  0.378E-01    0.20       1.0  T
   3   -200.2783070 -0.400545E-01  0.328E-02    0.25       1.0  T
   4   -200.2783763 -0.693067E-04  0.205E-02    0.24       1.0  T
   5   -200.2784586 -0.823095E-04  0.268E-03    0.24       3.3  T
   6   -200.2784595 -0.895192E-06  0.144E-03    0.25       6.1  T
   7   -200.2784598 -0.310731E-06  0.639E-04    0.25      13.8  T
   8   -200.2784599 -0.135208E-07  0.544E-04    0.25      16.2  T
     SCC iter.                  ...        0 min,  0.580 sec
     gradient                   ...        0 min,  0.057 sec
 * total energy  :  -197.0134048 Eh     change       -0.8607433E-04 Eh
   gradient norm :     0.0024194 Eh/α   predicted     0.0000000E+00 (-100.00%)
   displ. norm   :     0.0444819 α      lambda       -0.3599793E-04
   maximum displ.:     0.0154171 α      in ANC's #4, #9, #7, ...

........................................................................
.............................. CYCLE   44 ..............................
........................................................................

 iter      E             dE          RMSdq      gap      omega  full diag
   1   -200.2780359 -0.200278E+03  0.726E-03    0.25       0.0  T
   2   -200.2776240  0.411928E-03  0.385E-02    0.24       1.0  T
   3   -200.2780155 -0.391484E-03  0.947E-03    0.25       1.0  T
   4   -200.2780296 -0.141684E-04  0.534E-03    0.25       1.7  T
   5   -200.2780371 -0.747264E-05  0.379E-04    0.25      23.3  T
   6   -200.2780371 -0.225103E-07  0.153E-04    0.25      57.8  T
   7   -200.2780371 -0.404410E-08  0.577E-05    0.25     153.3  T
     SCC iter.                  ...        0 min,  0.459 sec
     gradient                   ...        0 min,  0.057 sec
 * total energy  :  -197.0134359 Eh     change       -0.3110213E-04 Eh
   gradient norm :     0.0012560 Eh/α   predicted    -0.1819564E-04 ( -41.50%)
   displ. norm   :     0.2499657 α      lambda       -0.9214188E-04
   maximum displ.:     0.0913172 α      in ANC's #4, #9, #7, ...

........................................................................
.............................. CYCLE   45 ..............................
........................................................................

 iter      E             dE          RMSdq      gap      omega  full diag
   1   -200.2772495 -0.200277E+03  0.323E-02    0.25       0.0  T
   2   -200.2755202  0.172926E-02  0.811E-02    0.23       1.0  T
   3   -200.2744951  0.102505E-02  0.995E-02    0.24       1.0  T
   4   -200.2770104 -0.251523E-02  0.306E-02    0.25       1.0  T
   5   -200.2772506 -0.240255E-03  0.499E-03    0.25       1.8  T
   6   -200.2772577 -0.705369E-05  0.858E-04    0.25      10.3  T
   7   -200.2772578 -0.157031E-06  0.357E-04    0.25      24.7  T
   8   -200.2772578 -0.962754E-08  0.211E-04    0.25      41.9  T
     SCC iter.                  ...        0 min,  0.813 sec
     gradient                   ...        0 min,  0.054 sec
 * total energy  :  -197.0135031 Eh     change       -0.6714469E-04 Eh
   gradient norm :     0.0033818 Eh/α   predicted    -0.4735064E-04 ( -29.48%)
   displ. norm   :     0.0593845 α      lambda       -0.2809475E-04
   maximum displ.:     0.0254188 α      in ANC's #4, #9, #7, ...

........................................................................
.............................. CYCLE   46 ..............................
........................................................................

 iter      E             dE          RMSdq      gap      omega  full diag
   1   -200.2778740 -0.200278E+03  0.172E-02    0.25       0.0  T
   2   -200.2548684  0.230056E-01  0.286E-01    0.22       1.0  T
   3   -200.2779458 -0.230774E-01  0.546E-03    0.25       1.6  T
   4   -200.2779480 -0.222181E-05  0.381E-03    0.25       2.3  T
   5   -200.2779505 -0.244241E-05  0.133E-03    0.25       6.6  T
   6   -200.2779506 -0.982659E-07  0.803E-04    0.25      11.0  T
   7   -200.2779507 -0.169400E-06  0.215E-04    0.25      41.1  T
     SCC iter.                  ...        0 min,  0.798 sec
     gradient                   ...        0 min,  0.051 sec
 * total energy  :  -197.0135290 Eh     change       -0.2589468E-04 Eh
   gradient norm :     0.0025716 Eh/α   predicted    -0.1409728E-04 ( -45.56%)
   displ. norm   :     0.2572211 α      lambda       -0.1085003E-03
   maximum displ.:     0.1106474 α      in ANC's #4, #9, #2, ...

........................................................................
.............................. CYCLE   47 ..............................
........................................................................

 iter      E             dE          RMSdq      gap      omega  full diag
   1   -200.2787745 -0.200279E+03  0.632E-02    0.24       0.0  T
   2   -200.2107463  0.680281E-01  0.503E-01    0.13       1.0  T
   3   -200.2782252 -0.674788E-01  0.756E-02    0.27       1.0  T
   4   -200.2788057 -0.580507E-03  0.592E-02    0.22       1.0  T
   5   -200.2792307 -0.425003E-03  0.436E-02    0.24       1.0  T
   6   -200.2797702 -0.539518E-03  0.200E-03    0.25       4.4  T
   7   -200.2797685  0.166487E-05  0.300E-03    0.25       2.9  T
   8   -200.2797683  0.228414E-06  0.300E-03    0.25       2.9  T
   9   -200.2797708 -0.252620E-05  0.253E-04    0.25      35.0  T
  10   -200.2797708  0.208570E-07  0.352E-04    0.25      25.1  T
  11   -200.2797708  0.364828E-07  0.499E-04    0.25      17.7  T
     SCC iter.                  ...        0 min,  0.558 sec
     gradient                   ...        0 min,  0.052 sec
 * total energy  :  -197.0136087 Eh     change       -0.7975040E-04 Eh
   gradient norm :     0.0015949 Eh/α   predicted    -0.5783953E-04 ( -27.47%)
   displ. norm   :     0.4355363 α      lambda       -0.7178201E-04
   maximum displ.:     0.1899932 α      in ANC's #4, #9, #2, ...

........................................................................
.............................. CYCLE   48 ..............................
........................................................................

 iter      E             dE          RMSdq      gap      omega  full diag
   1   -200.2780548 -0.200278E+03  0.965E-02    0.24       0.0  T
   2   -200.1753078  0.102747E+00  0.617E-01    0.06       1.0  T
   3   -200.2712249 -0.959171E-01  0.182E-01    0.31       1.0  T
   4   -200.2803168 -0.909194E-02  0.212E-02    0.25       1.0  T
   5   -200.2800591  0.257751E-03  0.332E-02    0.24       1.0  T
   6   -200.2802528 -0.193684E-03  0.184E-02    0.24       1.0  T
   7   -200.2803476 -0.948655E-04  0.253E-03    0.25       3.5  T
   8   -200.2803474  0.234583E-06  0.238E-03    0.25       3.7  T
   9   -200.2803489 -0.153570E-05  0.551E-04    0.25      16.0  T
  10   -200.2803489 -0.123190E-07  0.492E-04    0.25      18.0  T
  11   -200.2803490 -0.685944E-08  0.428E-04    0.25      20.6  T
     SCC iter.                  ...        0 min,  0.708 sec
     gradient                   ...        0 min,  0.053 sec
 * total energy  :  -197.0136821 Eh     change       -0.7333735E-04 Eh
   gradient norm :     0.0044814 Eh/α   predicted    -0.3892199E-04 ( -46.93%)
   displ. norm   :     0.2279307 α      lambda       -0.6256336E-04
   maximum displ.:     0.1009440 α      in ANC's #4, #2, #9, ...

........................................................................
.............................. CYCLE   49 ..............................
........................................................................

 iter      E             dE          RMSdq      gap      omega  full diag
   1   -200.2800733 -0.200280E+03  0.347E-02    0.25       0.0  T
   2   -200.2338801  0.461932E-01  0.407E-01    0.19       1.0  T
   3   -200.2803155 -0.464354E-01  0.114E-02    0.25       1.0  T
   4   -200.2802969  0.185860E-04  0.112E-02    0.25       1.0  T
   5   -200.2802919  0.506464E-05  0.101E-02    0.25       1.0  T
   6   -200.2803121 -0.202329E-04  0.567E-03    0.25       1.6  T
   7   -200.2803209 -0.874850E-05  0.130E-03    0.25       6.8  T
   8   -200.2803213 -0.465222E-06  0.153E-04    0.25      57.8  T
   9   -200.2803213  0.128753E-07  0.237E-04    0.25      37.4  T
     SCC iter.                  ...        0 min,  0.642 sec
     gradient                   ...        0 min,  0.054 sec
 * total energy  :  -197.0137407 Eh     change       -0.5862032E-04 Eh
   gradient norm :     0.0041335 Eh/α   predicted    -0.3290752E-04 ( -43.86%)
   displ. norm   :     0.4846976 α      lambda       -0.1670354E-03
   maximum displ.:     0.2152688 α      in ANC's #4, #2, #1, ...

........................................................................
.............................. CYCLE   50 ..............................
........................................................................

 iter      E             dE          RMSdq      gap      omega  full diag
   1   -200.2781718 -0.200278E+03  0.765E-02    0.24       0.0  T
   2   -200.2039852  0.741866E-01  0.526E-01    0.11       1.0  T
   3   -200.2780130 -0.740278E-01  0.740E-02    0.28       1.0  T
   4   -200.2764561  0.155691E-02  0.104E-01    0.20       1.0  T
   5   -200.2787665 -0.231032E-02  0.478E-02    0.24       1.0  T
   6   -200.2793763 -0.609871E-03  0.121E-02    0.26       1.0  T
   7   -200.2793984 -0.220877E-04  0.824E-03    0.25       1.1  T
   8   -200.2794096 -0.112233E-04  0.513E-03    0.25       1.7  T
   9   -200.2794139 -0.430505E-05  0.330E-03    0.25       2.7  T
  10   -200.2794167 -0.272093E-05  0.119E-03    0.25       7.4  T
  11   -200.2794170 -0.378770E-06  0.251E-04    0.25      35.2  T
  12   -200.2794171 -0.161426E-07  0.615E-05    0.25     143.6  T
     SCC iter.                  ...        0 min,  2.976 sec
     gradient                   ...        0 min,  0.086 sec
 * total energy  :  -197.0138839 Eh     change       -0.1432275E-03 Eh
   gradient norm :     0.0025470 Eh/α   predicted    -0.1031390E-03 ( -27.99%)
   displ. norm   :     0.5990329 α      lambda       -0.1745056E-03
   maximum displ.:     0.2761789 α      in ANC's #2, #4, #1, ...

........................................................................
.............................. CYCLE   51 ..............................
[...]
    20   6 C    3.990 --    24 C    1.520     8 C    1.316    36 H    0.963
                            22 C    0.112
    21   6 C    3.975 --    25 C    1.433     9 C    1.326    37 H    0.951
    22   6 C    3.984 --    26 C    1.525    10 C    1.307    38 H    0.968
                            20 C    0.112
    23   6 C    3.979 --    19 C    1.544    25 C    1.280    39 H    0.954
    24   6 C    3.987 --    20 C    1.520    26 C    1.350    40 H    0.971
    25   6 C    3.977 --    21 C    1.433    23 C    1.280    41 C    1.096
    26   6 C    3.983 --    22 C    1.525    24 C    1.350    42 H    0.971
    27   1 H    0.998 --    11 C    0.967
    28   1 H    0.998 --    12 C    0.967
    29   1 H    0.999 --    13 C    0.968
    30   1 H    0.999 --    14 C    0.968
    31   1 H    0.999 --    15 C    0.968
    32   1 H    0.998 --    16 C    0.967
    33   1 H    0.998 --    17 C    0.967
    34   1 H    0.998 --    18 C    0.968
    35   1 H    0.998 --    19 C    0.955
    36   1 H    0.998 --    20 C    0.963
    37   1 H    0.993 --    21 C    0.951
    38   1 H    0.999 --    22 C    0.968
    39   1 H    0.994 --    23 C    0.954
    40   1 H    0.999 --    24 C    0.971
    41   6 C    3.949 --    51 N    1.259    49 N    1.252    25 C    1.096
                            52 O    0.137    50 O    0.128
    42   1 H    0.999 --    26 C    0.971
    43   6 C    3.976 --    45 C    1.001    48 C    0.984    44 C    0.961
                            49 N    0.928
    44   6 C    3.975 --    47 C    1.000    46 C    0.985    43 C    0.961
                            51 N    0.927
    45   6 C    3.991 --    43 C    1.001    58 H    0.985    56 H    0.980
                            57 H    0.979
    46   6 C    3.987 --    44 C    0.985    59 H    0.984    60 H    0.984
                            61 H    0.982
    47   6 C    3.992 --    44 C    1.000    64 H    0.985    62 H    0.982
                            63 H    0.979
    48   6 C    3.988 --    53 H    0.985    54 H    0.984    43 C    0.984
                            55 H    0.982
    49   7 N    3.558 --    41 C    1.252    50 O    1.146    43 C    0.928
    50   8 O    1.481 --    49 N    1.146    41 C    0.128
    51   7 N    3.578 --    41 C    1.259    52 O    1.162    44 C    0.927
    52   8 O    1.499 --    51 N    1.162    41 C    0.137
    53   1 H    0.999 --    48 C    0.985
    54   1 H    0.998 --    48 C    0.984
    55   1 H    0.996 --    48 C    0.982
    56   1 H    0.997 --    45 C    0.980
    57   1 H    0.995 --    45 C    0.979
    58   1 H    0.999 --    45 C    0.985
    59   1 H    0.998 --    46 C    0.984
    60   1 H    0.998 --    46 C    0.984
    61   1 H    0.996 --    46 C    0.982
    62   1 H    0.998 --    47 C    0.982
    63   1 H    0.995 --    47 C    0.979
    64   1 H    0.999 --    47 C    0.985
    65   6 C    3.983 --    68 C    1.295    67 C    1.217    66 C    1.216
    66   6 C    3.984 --    69 C    1.319    65 C    1.216    71 C    1.185
    67   6 C    3.985 --    70 C    1.325    65 C    1.217    72 C    1.179
    68   6 C    3.982 --    65 C    1.295    76 C    1.249    75 C    1.247
    69   6 C    3.980 --    66 C    1.319    77 C    1.251    79 C    1.221
    70   6 C    3.985 --    67 C    1.325    78 C    1.248    80 C    1.222
    71   6 C    3.987 --    83 C    1.303    73 C    1.265    66 C    1.185
    72   6 C    3.988 --    84 C    1.314    74 C    1.276    67 C    1.179
    73   6 C    3.986 --    85 C    1.325    71 C    1.265    81 C    1.216
    74   6 C    3.987 --    86 C    1.305    72 C    1.276    82 C    1.222
    75   6 C    3.975 --    77 C    1.587    68 C    1.247    91 H    0.968
    76   6 C    3.979 --    78 C    1.591    68 C    1.249    92 H    0.967
    77   6 C    3.975 --    75 C    1.587    69 C    1.251    93 H    0.967
    78   6 C    3.975 --    76 C    1.591    70 C    1.248    94 H    0.968
    79   6 C    3.986 --    81 C    1.626    69 C    1.221    95 H    0.967
    80   6 C    3.987 --    82 C    1.625    70 C    1.222    96 H    0.967
    81   6 C    3.978 --    79 C    1.626    73 C    1.216    97 H    0.967
    82   6 C    3.981 --    80 C    1.625    74 C    1.222    98 H    0.968
    83   6 C    3.991 --    87 C    1.538    71 C    1.303    99 H    0.964
                            85 C    0.101
    84   6 C    3.991 --    88 C    1.517    72 C    1.314   100 H    0.956
                            86 C    0.112
    85   6 C    3.977 --    89 C    1.438    73 C    1.325   101 H    0.956
                            83 C    0.101
    86   6 C    3.984 --    90 C    1.525    74 C    1.305   102 H    0.968
                            84 C    0.112
    87   6 C    3.982 --    83 C    1.538    89 C    1.289   103 H    0.962
    88   6 C    3.986 --    84 C    1.517    90 C    1.350   104 H    0.966
    89   6 C    3.978 --    85 C    1.438    87 C    1.289   105 C    1.081
    90   6 C    3.982 --    86 C    1.525    88 C    1.350   106 H    0.970
    91   1 H    0.999 --    75 C    0.968
    92   1 H    0.998 --    76 C    0.967
    93   1 H    0.998 --    77 C    0.967
    94   1 H    0.998 --    78 C    0.968
    95   1 H    0.998 --    79 C    0.967
    96   1 H    0.999 --    80 C    0.967
    97   1 H    0.997 --    81 C    0.967
    98   1 H    0.998 --    82 C    0.968
    99   1 H    0.998 --    83 C    0.964
   100   1 H    0.998 --    84 C    0.956
   101   1 H    0.994 --    85 C    0.956
   102   1 H    0.999 --    86 C    0.968
   103   1 H    0.995 --    87 C    0.962
   104   1 H    0.998 --    88 C    0.966
   105   6 C    3.950 --   115 N    1.265   113 N    1.255    89 C    1.081
                           116 O    0.137   114 O    0.134
   106   1 H    0.998 --    90 C    0.970
   107   6 C    3.971 --   109 C    0.997   112 C    0.985   108 C    0.960
                           113 N    0.924
   108   6 C    3.971 --   111 C    0.994   110 C    0.987   107 C    0.960
                           115 N    0.925
   109   6 C    3.991 --   107 C    0.997   122 H    0.985   120 H    0.983
                           121 H    0.979
   110   6 C    3.989 --   108 C    0.987   124 H    0.985   123 H    0.984
                           125 H    0.980
   111   6 C    3.981 --   108 C    0.994   128 H    0.985   127 H    0.981
                           126 H    0.963
   112   6 C    3.982 --   107 C    0.985   118 H    0.983   119 H    0.981
                           117 H    0.975
   113   7 N    3.584 --   105 C    1.255   114 O    1.190   107 C    0.924
   114   8 O    1.515 --   113 N    1.190   105 C    0.134
   115   7 N    3.599 --   105 C    1.265   116 O    1.196   108 C    0.925
   116   8 O    1.525 --   115 N    1.196   105 C    0.137
   117   1 H    0.994 --   112 C    0.975
   118   1 H    0.998 --   112 C    0.983
   119   1 H    0.997 --   112 C    0.981
   120   1 H    0.998 --   109 C    0.983
   121   1 H    0.995 --   109 C    0.979
   122   1 H    0.998 --   109 C    0.985
   123   1 H    0.999 --   110 C    0.984
   124   1 H    0.998 --   110 C    0.985
   125   1 H    0.996 --   110 C    0.980
   126   1 H    0.992 --   111 C    0.963
   127   1 H    0.997 --   111 C    0.981
   128   1 H    0.999 --   111 C    0.985
 ---------------------------------------------------------------------------

Topologies differ in bond orders
Writing corrected topology to xtbtopo.mol

molecular dipole:
                 x           y           z       tot (Debye)
 q only:        0.914       0.919      -6.071
   full:        0.878       0.866      -6.016      15.608
molecular quadrupole (traceless):
                xx          xy          yy          xz          yz          zz
 q only:       19.735       7.658      37.340     -10.804      30.649     -57.075
  q+dip:       24.617      17.633      45.012       4.650      24.387     -69.629
   full:       22.523      13.181      38.219      -7.374      31.279     -60.741

           -------------------------------------------------
          |                Geometry Summary                 |
           -------------------------------------------------

      molecular mass/u    :      967.1618024
   center of mass at/Å    :        0.8900222      -0.7761564       3.0328677
  moments of inertia/u·Å² :        0.1082621E+05   0.1706281E+05   0.2109002E+05
rotational constants/cm⁻¹ :        0.1557113E-02   0.9879754E-03   0.7993181E-03

 * 128 selected distances

     #   Z          #   Z                                           value/Å
     1   6 C        2   6 C                                       1.4351381
     1   6 C        3   6 C                                       1.4343359
     1   6 C        4   6 C                                       1.4146251
     2   6 C        5   6 C                                       1.4094737
     3   6 C        6   6 C                                       1.4091288
     7   6 C        9   6 C                                       1.4167566
     8   6 C       10   6 C                                       1.4160005
     4   6 C       11   6 C                                       1.4141930
     4   6 C       12   6 C                                       1.4142719
     5   6 C       13   6 C                                       1.4140724
    11   6 C       13   6 C                                       1.3582139
     6   6 C       14   6 C                                       1.4145469
    12   6 C       14   6 C                                       1.3575218
     5   6 C       15   6 C                                       1.4212729
     6   6 C       16   6 C                                       1.4203501
     9   6 C       17   6 C                                       1.4209534
    15   6 C       17   6 C                                       1.3544319
    10   6 C       18   6 C                                       1.4206520
    16   6 C       18   6 C                                       1.3536730
     7   6 C       19   6 C                                       1.4059751
     8   6 C       20   6 C                                       1.4061078
     9   6 C       21   6 C                                       1.4001945
    10   6 C       22   6 C                                       1.4052715
    19   6 C       23   6 C                                       1.3667413
    20   6 C       24   6 C                                       1.3709053
    21   6 C       25   6 C                                       1.3842749
    23   6 C       25   6 C                                       1.4108722
    22   6 C       26   6 C                                       1.3695467
    24   6 C       26   6 C                                       1.3968970
    11   6 C       27   1 H                                       1.0809655
    12   6 C       28   1 H                                       1.0807464
    13   6 C       29   1 H                                       1.0819701
    14   6 C       30   1 H                                       1.0808410
    15   6 C       31   1 H                                       1.0821562
    16   6 C       32   1 H                                       1.0811207
    17   6 C       33   1 H                                       1.0807091
    18   6 C       34   1 H                                       1.0807098
    19   6 C       35   1 H                                       1.0766970 (min)
    20   6 C       36   1 H                                       1.0786338
    21   6 C       37   1 H                                       1.0790574
    22   6 C       38   1 H                                       1.0813236
    23   6 C       39   1 H                                       1.0786548
    24   6 C       40   1 H                                       1.0802294
    26   6 C       42   1 H                                       1.0805517
    43   6 C       44   6 C                                       1.5388072
    43   6 C       45   6 C                                       1.5227039
    44   6 C       46   6 C                                       1.5349650
    44   6 C       47   6 C                                       1.5235358
    43   6 C       48   6 C                                       1.5367438
    41   6 C       49   7 N                                       1.3447710
    43   6 C       49   7 N                                       1.4768555
    41   6 C       51   7 N                                       1.3432037
    44   6 C       51   7 N                                       1.4770112
    48   6 C       53   1 H                                       1.0882285
    48   6 C       54   1 H                                       1.0872224
    48   6 C       55   1 H                                       1.0884965
    45   6 C       56   1 H                                       1.0842867
    45   6 C       57   1 H                                       1.0875376
    45   6 C       58   1 H                                       1.0876811
    46   6 C       59   1 H                                       1.0877334
    46   6 C       60   1 H                                       1.0871470
    46   6 C       61   1 H                                       1.0883816
    47   6 C       62   1 H                                       1.0854653
    47   6 C       63   1 H                                       1.0876388
    47   6 C       64   1 H                                       1.0874338
    65   6 C       68   6 C                                       1.4165313
    66   6 C       69   6 C                                       1.4099132
    67   6 C       70   6 C                                       1.4104423
    71   6 C       73   6 C                                       1.4172527
    72   6 C       74   6 C                                       1.4167307
    68   6 C       75   6 C                                       1.4145942
    68   6 C       76   6 C                                       1.4138091
    69   6 C       77   6 C                                       1.4124392
    75   6 C       77   6 C                                       1.3569703
    70   6 C       78   6 C                                       1.4140781
    76   6 C       78   6 C                                       1.3562856
    69   6 C       79   6 C                                       1.4208392
    70   6 C       80   6 C                                       1.4208134
    73   6 C       81   6 C                                       1.4207288
    79   6 C       81   6 C                                       1.3534732
    74   6 C       82   6 C                                       1.4194950
    80   6 C       82   6 C                                       1.3530884
    71   6 C       83   6 C                                       1.4072374
    72   6 C       84   6 C                                       1.4050648
    73   6 C       85   6 C                                       1.3988718
    74   6 C       86   6 C                                       1.4052463
    83   6 C       87   6 C                                       1.3677618
    84   6 C       88   6 C                                       1.3710295
    85   6 C       89   6 C                                       1.3817610
    87   6 C       89   6 C                                       1.4082665
    86   6 C       90   6 C                                       1.3682419
    88   6 C       90   6 C                                       1.3953031
    75   6 C       91   1 H                                       1.0819137
    76   6 C       92   1 H                                       1.0817557
    77   6 C       93   1 H                                       1.0807081
    78   6 C       94   1 H                                       1.0816708
    79   6 C       95   1 H                                       1.0809177
    80   6 C       96   1 H                                       1.0820487
    81   6 C       97   1 H                                       1.0797947
    82   6 C       98   1 H                                       1.0813722
    83   6 C       99   1 H                                       1.0801673
    84   6 C      100   1 H                                       1.0772493
    85   6 C      101   1 H                                       1.0786475
    86   6 C      102   1 H                                       1.0813954
    87   6 C      103   1 H                                       1.0778954
    88   6 C      104   1 H                                       1.0791499
Note: The following floating-point exceptions are signalling: IEEE_UNDERFLOW_FLAG
normal termination of xtb
    90   6 C      106   1 H                                       1.0788179
   107   6 C      108   6 C                                       1.5451118 (max)
   107   6 C      109   6 C                                       1.5270548
   108   6 C      110   6 C                                       1.5337905
   108   6 C      111   6 C                                       1.5248581
   107   6 C      112   6 C                                       1.5339079
   105   6 C      113   7 N                                       1.3404829
   107   6 C      113   7 N                                       1.4765265
   105   6 C      115   7 N                                       1.3376131
   108   6 C      115   7 N                                       1.4758286
   112   6 C      117   1 H                                       1.0870663
   112   6 C      118   1 H                                       1.0870381
   112   6 C      119   1 H                                       1.0885691
   109   6 C      120   1 H                                       1.0859951
   109   6 C      121   1 H                                       1.0877618
   109   6 C      122   1 H                                       1.0871337
   110   6 C      123   1 H                                       1.0878867
   110   6 C      124   1 H                                       1.0868599
   110   6 C      125   1 H                                       1.0884050
   111   6 C      126   1 H                                       1.0871516
   111   6 C      127   1 H                                       1.0881272
   111   6 C      128   1 H                                       1.0875427

 * 3 distinct bonds (by element types)

   Z      Z             #   av. dist./Å        max./Å        min./Å
   1 H    6 C          54     1.0834196     1.0885691     1.0766970
   6 C    6 C          66     1.4193052     1.5451118     1.3530884
   6 C    7 N           8     1.4090366     1.4770112     1.3376131


optimized geometry written to: xtbopt.mol


           -------------------------------------------------
          | TOTAL ENERGY             -197.015819709748 Eh   |
          | GRADIENT NORM               0.000360392586 Eh/α |
          | HOMO-LUMO GAP               0.249813393352 eV   |
           -------------------------------------------------
########################################################################
[WARNING] Runtime exception occurred
-2- restart_readRestart: Multiplicity missmatch in restart file.
-1- restart_readRestart: Number of electron missmatch in restart file.
########################################################################

------------------------------------------------------------------------
 * finished run on 2024/11/14 at 10:43:17.334     
------------------------------------------------------------------------
 total:
 * wall-time:     0 d,  0 h,  1 min, 17.055 sec
 *  cpu-time:     0 d,  0 h,  4 min, 29.294 sec
 * ratio c/w:     3.495 speedup
 SCF:
 * wall-time:     0 d,  0 h,  0 min,  2.550 sec
 *  cpu-time:     0 d,  0 h,  0 min, 10.452 sec
 * ratio c/w:     4.098 speedup
 ANC optimizer:
 * wall-time:     0 d,  0 h,  1 min, 14.469 sec
 *  cpu-time:     0 d,  0 h,  4 min, 18.796 sec
 * ratio c/w:     3.475 speedup

