      -----------------------------------------------------------      
     |                   =====================                   |     
     |                           x T B                           |     
     |                   =====================                   |     
     |                         S. Grimme                         |     
     |          Mulliken Center for Theoretical Chemistry        |     
     |                    University of Bonn                     |     
      -----------------------------------------------------------      

   * xtb version 6.6.1 (8d0f1dd) compiled by 'runner@Mac-1690902418499.local' on 2023-08-01

   xtb is free software: you can redistribute it and/or modify it under
   the terms of the GNU Lesser General Public License as published by
   the Free Software Foundation, either version 3 of the License, or
   (at your option) any later version.
   
   xtb is distributed in the hope that it will be useful,
   but WITHOUT ANY WARRANTY; without even the implied warranty of
   MERCHANTABILITY or FITNESS FOR A PARTICULAR PURPOSE.  See the
   GNU Lesser General Public License for more details.
   
   Cite this work as:
   * C. Bannwarth, E. Caldeweyher, S. Ehlert, A. Hansen, P. Pracht,
     J. Seibert, S. Spicher, S. Grimme, WIREs Comput. Mol. Sci., 2020, 11,
     e01493. DOI: 10.1002/wcms.1493
   
   for GFN2-xTB:
   * C. Bannwarth, S. Ehlert and S. Grimme., J. Chem. Theory Comput., 2019,
     15, 1652-1671. DOI: 10.1021/acs.jctc.8b01176
   for GFN1-xTB:
   * S. Grimme, C. Bannwarth, P. Shushkov, J. Chem. Theory Comput., 2017,
     13, 1989-2009. DOI: 10.1021/acs.jctc.7b00118
   for GFN0-xTB:
   * P. Pracht, E. Caldeweyher, S. Ehlert, S. Grimme, ChemRxiv, 2019, preprint.
     DOI: 10.26434/chemrxiv.8326202.v1
   for GFN-FF:
   * S. Spicher and S. Grimme, Angew. Chem. Int. Ed., 2020, 59, 15665-15673.
     DOI: 10.1002/anie.202004239
   
   for ALPB and GBSA implicit solvation:
   * S. Ehlert, M. Stahn, S. Spicher, S. Grimme, J. Chem. Theory Comput.,
     2021, 17, 4250-4261. DOI: 10.1021/acs.jctc.1c00471
   
   for DFT-D4:
   * E. Caldeweyher, C. Bannwarth and S. Grimme, J. Chem. Phys., 2017,
     147, 034112. DOI: 10.1063/1.4993215
   * E. Caldeweyher, S. Ehlert, A. Hansen, H. Neugebauer, S. Spicher,
     C. Bannwarth and S. Grimme, J. Chem. Phys., 2019, 150, 154122.
     DOI: 10.1063/1.5090222
   * E. Caldeweyher, J.-M. Mewes, S. Ehlert and S. Grimme, Phys. Chem. Chem. Phys.
     2020, 22, 8499-8512. DOI: 10.1039/D0CP00502A
   
   for sTDA-xTB:
   * S. Grimme and C. Bannwarth, J. Chem. Phys., 2016, 145, 054103.
     DOI: 10.1063/1.4959605
   
   in the mass-spec context:
   * V. Asgeirsson, C. Bauer and S. Grimme, Chem. Sci., 2017, 8, 4879.
     DOI: 10.1039/c7sc00601b
   * J. Koopman and S. Grimme, ACS Omega 2019, 4, 12, 15120-15133.
     DOI: 10.1021/acsomega.9b02011
   
   for metadynamics refer to:
   * S. Grimme, J. Chem. Theory Comput., 2019, 155, 2847-2862
     DOI: 10.1021/acs.jctc.9b00143
   
   for SPH calculations refer to:
   * S. Spicher and S. Grimme, J. Chem. Theory Comput., 2021, 17, 1701-1714
     DOI: 10.1021/acs.jctc.0c01306
   
   with help from (in alphabetical order)
   P. Atkinson, C. Bannwarth, F. Bohle, G. Brandenburg, E. Caldeweyher
   M. Checinski, S. Dohm, S. Ehlert, S. Ehrlich, I. Gerasimov, C. Hölzer
   A. Katbashev, J. Koopman, C. Lavigne, S. Lehtola, F. März, M. Müller,
   F. Musil, H. Neugebauer, J. Pisarek, C. Plett, P. Pracht, F. Pultar,
   J. Seibert, P. Shushkov, S. Spicher, M. Stahn, M. Steiner, T. Strunk,
   J. Stückrath, T. Rose, and J. Unsleber
   
 * started run on 2024/11/14 at 10:37:51.405     

           -------------------------------------------------
          |                Calculation Setup                |
           -------------------------------------------------

          program call               : xtb Nitro2.mol --opt --gfn2 --chrg 1 --uhf 0 --tight
          coordinate file            : Nitro2.mol
          omp threads                :                     8

   ID    Z sym.   atoms
    1    6 C      1-26, 41, 43-48
    2    1 H      27-40, 42, 53-64
    3    7 N      49, 51
    4    8 O      50, 52
########################################################################
[WARNING] Please study the warnings concerning your input carefully
-2- prog_main: Charge in sdf/mol input was overwritten
-1- prog_main_parseArguments: Unknown option '--tight' provided
########################################################################

           -------------------------------------------------
          |                 G F N 2 - x T B                 |
           -------------------------------------------------

        Reference                      10.1021/acs.jctc.8b01176
      * Hamiltonian:
        H0-scaling (s, p, d)           1.850000    2.230000    2.230000
        zeta-weighting                 0.500000
      * Dispersion:
        s8                             2.700000
        a1                             0.520000
        a2                             5.000000
        s9                             5.000000
      * Repulsion:
        kExp                           1.500000    1.000000
        rExp                           1.000000
      * Coulomb:
        alpha                          2.000000
        third order                    shell-resolved
        anisotropic                    true
        a3                             3.000000
        a5                             4.000000
        cn-shift                       1.200000
        cn-exp                         4.000000
        max-rad                        5.000000

q/qsh data taken from xtbrestart
CAMM data taken from xtbrestart

          ...................................................
          :                      SETUP                      :
          :.................................................:
          :  # basis functions                 175          :
          :  # atomic orbitals                 175          :
          :  # shells                          101          :
          :  # electrons                       180          :
          :  max. iterations                   250          :
          :  Hamiltonian                  GFN2-xTB          :
          :  restarted?                       true          :
          :  GBSA solvation                  false          :
          :  PC potential                    false          :
          :  electronic temp.          300.0000000     K    :
          :  accuracy                    1.0000000          :
          :  -> integral cutoff          0.2500000E+02      :
          :  -> integral neglect         0.1000000E-07      :
          :  -> SCF convergence          0.1000000E-05 Eh   :
          :  -> wf. convergence          0.1000000E-03 e    :
          :  Broyden damping             0.4000000          :
          ...................................................

 iter      E             dE          RMSdq      gap      omega  full diag
   1    -99.3832942 -0.993833E+02  0.187E+00    1.30       0.0  T
   2    -99.0991841  0.284110E+00  0.181E+00    0.06       1.0  T
   3    -99.3914778 -0.292294E+00  0.136E+00    1.59       1.0  T
   4    -99.4612862 -0.698084E-01  0.885E-01    1.10       1.0  T
   5    -99.4897768 -0.284905E-01  0.589E-01    0.19       1.0  T
   6    -99.1293729  0.360404E+00  0.164E+00    0.10       1.0  T
   7    -99.1960665 -0.666935E-01  0.147E+00    0.07       1.0  T
   8    -99.4968865 -0.300820E+00  0.441E-01    0.19       1.0  T
   9    -99.5109014 -0.140150E-01  0.322E-01    0.14       1.0  T
  10    -99.5199954 -0.909401E-02  0.206E-01    0.11       1.0  T
  11    -99.5256292 -0.563378E-02  0.791E-02    0.08       1.0  T
  12    -99.5228607  0.276856E-02  0.153E-01    0.10       1.0  T
  13    -99.5264921 -0.363140E-02  0.187E-02    0.07       1.0  T
  14    -99.5262904  0.201675E-03  0.387E-02    0.07       1.0  T
  15    -99.5263712 -0.807923E-04  0.307E-02    0.08       1.0  T
  16    -99.5265187 -0.147538E-03  0.409E-03    0.07       3.1  T
  17    -99.5265133  0.538906E-05  0.701E-03    0.08       1.8  T
  18    -99.5265208 -0.743078E-05  0.118E-03    0.08      10.6  T
  19    -99.5265207  0.869412E-07  0.138E-03    0.07       9.1  T
  20    -99.5265209 -0.219062E-06  0.727E-04    0.08      17.2  T
  21    -99.5265210 -0.825367E-07  0.644E-05    0.07     194.0  T

   *** convergence criteria satisfied after 21 iterations ***

         #    Occupation            Energy/Eh            Energy/eV
      -------------------------------------------------------------
         1        2.0000           -0.8724770             -23.7413
       ...           ...                  ...                  ...
        84        2.0000           -0.5159936             -14.0409
        85        2.0000           -0.5095284             -13.8650
        86        2.0000           -0.5086707             -13.8416
        87        2.0000           -0.4904535             -13.3459
        88        2.0000           -0.4901826             -13.3385
        89        1.9297           -0.4720072             -12.8440
        90        1.6538           -0.4703460             -12.7988 (HOMO)
        91        0.4165           -0.4675916             -12.7238 (LUMO)
        92                         -0.3898346             -10.6079
        93                         -0.3751875             -10.2094
        94                         -0.3700142             -10.0686
        95                         -0.3508151              -9.5462
       ...                                ...                  ...
       175                          0.6136234              16.6975
      -------------------------------------------------------------
                  HL-Gap            0.0027544 Eh            0.0750 eV
             Fermi-level           -0.4688603 Eh          -12.7583 eV

 SCC (total)                   0 d,  0 h,  0 min,  0.688 sec
 SCC setup                      ...        0 min,  0.000 sec (  0.022%)
 Dispersion                     ...        0 min,  0.000 sec (  0.065%)
 classical contributions        ...        0 min,  0.000 sec (  0.017%)
 integral evaluation            ...        0 min,  0.002 sec (  0.300%)
 iterations                     ...        0 min,  0.674 sec ( 98.051%)
 molecular gradient             ...        0 min,  0.010 sec (  1.464%)
 printout                       ...        0 min,  0.001 sec (  0.080%)

         :::::::::::::::::::::::::::::::::::::::::::::::::::::
         ::                     SUMMARY                     ::
         :::::::::::::::::::::::::::::::::::::::::::::::::::::
         :: total energy             -97.912750197538 Eh    ::
         :: gradient norm              0.205180079516 Eh/a0 ::
         :: HOMO-LUMO gap              0.074950007925 eV    ::
         ::.................................................::
         :: SCC energy               -99.526520971269 Eh    ::
         :: -> isotropic ES            0.099170880674 Eh    ::
         :: -> anisotropic ES         -0.006271671958 Eh    ::
         :: -> anisotropic XC          0.047135101106 Eh    ::
         :: -> dispersion             -0.085015728054 Eh    ::
         :: repulsion energy           1.612551612556 Eh    ::
         :: add. restraining           0.000000000000 Eh    ::
         :: total charge               0.999999637453 e     ::
         :::::::::::::::::::::::::::::::::::::::::::::::::::::

      ----------------------------------------------------------- 
     |                   =====================                   |
     |                        A N C O P T                        |
     |                   =====================                   |
     |               Approximate Normal Coordinate               |
     |                Rational Function Optimizer                |
      ----------------------------------------------------------- 

          ...................................................
          :                      SETUP                      :
          :.................................................:
          :   optimization level            normal          :
          :   max. optcycles                   200          :
          :   ANC micro-cycles                  20          :
          :   degrees of freedom               186          :
          :.................................................:
          :   RF solver                   davidson          :
          :   write xtbopt.log                true          :
          :   linear?                        false          :
          :   energy convergence         0.5000000E-05 Eh   :
          :   grad. convergence          0.1000000E-02 Eh/α :
          :   maxmium RF displ.          1.0000000          :
          :   Hlow (freq-cutoff)         0.1000000E-01      :
          :   Hmax (freq-cutoff)         5.0000000          :
          :   S6 in model hess.         20.0000000          :
          ...................................................

generating ANC from model Hessian ...
Using Lindh-Hessian (1995)
 Shifting diagonal of input Hessian by    9.9085208605691512E-003
 Lowest  eigenvalues of input Hessian
    0.000000    0.000000    0.000000    0.000000    0.000000    0.000000
    0.010000    0.010023    0.010284    0.010583    0.011089    0.011445
    0.011815    0.012012    0.012605    0.012741    0.013291    0.013966
 Highest eigenvalues
    2.004237    2.049036    2.082338    2.092006    2.200415    2.580589


........................................................................
.............................. CYCLE    1 ..............................
........................................................................

 iter      E             dE          RMSdq      gap      omega  full diag
   1    -99.5265210 -0.995265E+02  0.772E-05    0.07       0.0  T
   2    -99.5265205  0.511499E-06  0.180E-03    0.07       6.9  T
   3    -99.5265210 -0.512197E-06  0.418E-05    0.07     298.7  T
   4    -99.5265210 -0.238515E-09  0.150E-05    0.07     834.6  T
     SCC iter.                  ...        0 min,  0.073 sec
     gradient                   ...        0 min,  0.010 sec
 * total energy  :   -97.9127502 Eh     change       -0.5111929E-09 Eh
   gradient norm :     0.2051824 Eh/α   predicted     0.0000000E+00 (-100.00%)
   displ. norm   :     0.3016595 α      lambda       -0.3945763E-01
   maximum displ.:     0.1184297 α      in ANC's #13, #53, #143, ...

........................................................................
.............................. CYCLE    2 ..............................
........................................................................

 iter      E             dE          RMSdq      gap      omega  full diag
   1    -99.5035199 -0.995035E+02  0.599E-01    0.28       0.0  T
   2    -99.0420025  0.461517E+00  0.189E+00    0.15       1.0  T
   3    -99.5306046 -0.488602E+00  0.566E-01    0.10       1.0  T
   4    -99.3736959  0.156909E+00  0.107E+00    0.06       1.0  T
   5    -99.5339315 -0.160236E+00  0.366E-01    0.15       1.0  T
   6    -99.5144757  0.194558E-01  0.510E-01    0.34       1.0  T
   7    -99.5155360 -0.106024E-02  0.495E-01    0.33       1.0  T
   8    -99.5178609 -0.232497E-02  0.474E-01    0.28       1.0  T
   9    -99.5197751 -0.191413E-02  0.455E-01    0.24       1.0  T
  10    -99.5255845 -0.580949E-02  0.407E-01    0.19       1.0  T
  11    -99.5299640 -0.437951E-02  0.370E-01    0.16       1.0  T
  12    -99.5443397 -0.143757E-01  0.211E-01    0.11       1.0  T
  13    -99.5461122 -0.177246E-02  0.183E-01    0.10       1.0  T
  14    -99.5495276 -0.341537E-02  0.113E-01    0.05       1.0  T
  15    -99.5515020 -0.197442E-02  0.583E-03    0.07       2.1  T
  16    -99.5514086  0.933687E-04  0.244E-02    0.07       1.0  T
  17    -99.5513614  0.472515E-04  0.301E-02    0.06       1.0  T
  18    -99.5515051 -0.143766E-03  0.133E-03    0.07       9.4  T
  19    -99.5515017  0.344057E-05  0.481E-03    0.07       2.6  T
  20    -99.5515050 -0.332884E-05  0.159E-03    0.07       7.9  T
  21    -99.5515054 -0.396017E-06  0.160E-04    0.07      78.1  T
  22    -99.5515054  0.441270E-07  0.550E-04    0.07      22.7  T
     SCC iter.                  ...        0 min,  0.913 sec
     gradient                   ...        0 min,  0.025 sec
 * total energy  :   -97.9410569 Eh     change       -0.2830668E-01 Eh
   gradient norm :     0.0891109 Eh/α   predicted    -0.2153047E-01 ( -23.94%)
   displ. norm   :     0.3448237 α      lambda       -0.1447055E-01
   maximum displ.:     0.2021426 α      in ANC's #13, #6, #18, ...

........................................................................
.............................. CYCLE    3 ..............................
........................................................................

 iter      E             dE          RMSdq      gap      omega  full diag
   1    -99.5350511 -0.995351E+02  0.511E-01    0.28       0.0  T
   2    -99.0557996  0.479252E+00  0.188E+00    0.17       1.0  T
   3    -99.5589802 -0.503181E+00  0.418E-01    0.09       1.0  T
   4    -99.4719420  0.870382E-01  0.804E-01    0.02       1.0  T
   5    -99.5513871 -0.794451E-01  0.365E-01    0.16       1.0  T
   6    -99.5423943  0.899283E-02  0.432E-01    0.24       1.0  T
   7    -99.5477579 -0.536361E-02  0.386E-01    0.18       1.0  T
   8    -99.5580069 -0.102490E-01  0.283E-01    0.13       1.0  T
   9    -99.5678915 -0.988456E-02  0.129E-01    0.09       1.0  T
  10    -99.5704234 -0.253195E-02  0.264E-02    0.07       1.0  T
  11    -99.5700979  0.325463E-03  0.526E-02    0.08       1.0  T
  12    -99.5705300 -0.432008E-03  0.380E-03    0.07       3.3  T
  13    -99.5704980  0.319988E-04  0.146E-02    0.07       1.0  T
  14    -99.5705289 -0.309569E-04  0.421E-03    0.07       3.0  T
  15    -99.5705226  0.629343E-05  0.760E-03    0.07       1.6  T
  16    -99.5705317 -0.905540E-05  0.145E-04    0.07      86.2  T
  17    -99.5705317  0.128639E-07  0.314E-04    0.07      39.8  T
  18    -99.5705317 -0.150755E-07  0.381E-05    0.07     328.0  T
     SCC iter.                  ...        0 min,  0.488 sec
     gradient                   ...        0 min,  0.010 sec
 * total energy  :   -97.9487630 Eh     change       -0.7706074E-02 Eh
   gradient norm :     0.0243639 Eh/α   predicted    -0.8098150E-02 (   5.09%)
   displ. norm   :     0.2918111 α      lambda       -0.2090670E-02
   maximum displ.:     0.1781984 α      in ANC's #13, #6, #18, ...

........................................................................
.............................. CYCLE    4 ..............................
........................................................................

 iter      E             dE          RMSdq      gap      omega  full diag
   1    -99.5565162 -0.995565E+02  0.321E-01    0.03       0.0  T
   2    -99.5177303  0.387859E-01  0.680E-01    1.05       1.0  T
   3    -99.5392127 -0.214823E-01  0.496E-01    0.38       1.0  T
   4    -99.5463976 -0.718490E-02  0.422E-01    0.20       1.0  T
   5    -99.5673375 -0.209399E-01  0.180E-01    0.04       1.0  T
   6    -99.5545653  0.127722E-01  0.342E-01    0.15       1.0  T
   7    -99.5706708 -0.161055E-01  0.109E-01    0.05       1.0  T
   8    -99.5715285 -0.857680E-03  0.811E-02    0.08       1.0  T
   9    -99.5725598 -0.103136E-02  0.275E-03    0.07       4.5  T
  10    -99.5725579  0.197417E-05  0.433E-03    0.07       2.9  T
  11    -99.5725579  0.490192E-08  0.428E-03    0.07       2.9  T
  12    -99.5725590 -0.114483E-05  0.327E-03    0.07       3.8  T
  13    -99.5725607 -0.169540E-05  0.268E-04    0.07      46.6  T
  14    -99.5725607 -0.999682E-08  0.911E-05    0.07     137.1  T
  15    -99.5725607  0.621435E-08  0.219E-04    0.07      57.0  T
     SCC iter.                  ...        0 min,  0.402 sec
     gradient                   ...        0 min,  0.011 sec
 * total energy  :   -97.9502966 Eh     change       -0.1533632E-02 Eh
   gradient norm :     0.0111293 Eh/α   predicted    -0.1134356E-02 ( -26.03%)
   displ. norm   :     0.3729694 α      lambda       -0.1357661E-02
   maximum displ.:     0.2251688 α      in ANC's #6, #13, #18, ...

........................................................................
.............................. CYCLE    5 ..............................
........................................................................

 iter      E             dE          RMSdq      gap      omega  full diag
   1    -99.5746822 -0.995747E+02  0.148E-01    0.05       0.0  T
   2    -99.5389013  0.357810E-01  0.528E-01    0.47       1.0  T
   3    -99.5657198 -0.268185E-01  0.282E-01    0.12       1.0  T
   4    -99.5170700  0.486499E-01  0.619E-01    0.01       1.0  T
   5    -99.5747690 -0.576990E-01  0.134E-01    0.05       1.0  T
   6    -99.5712852  0.348382E-02  0.196E-01    0.04       1.0  T
   7    -99.5772583 -0.597317E-02  0.220E-02    0.07       1.0  T
   8    -99.5772315  0.267861E-04  0.254E-02    0.07       1.0  T
   9    -99.5773163 -0.848023E-04  0.104E-02    0.07       1.2  T
  10    -99.5773331 -0.167642E-04  0.146E-03    0.07       8.6  T
  11    -99.5773331 -0.155776E-07  0.140E-03    0.07       9.0  T
  12    -99.5773334 -0.277183E-06  0.390E-04    0.07      32.0  T
  13    -99.5773334 -0.196933E-07  0.170E-04    0.07      73.3  T
     SCC iter.                  ...        0 min,  0.355 sec
     gradient                   ...        0 min,  0.013 sec
 * total energy  :   -97.9512021 Eh     change       -0.9055060E-03 Eh
   gradient norm :     0.0059009 Eh/α   predicted    -0.7732962E-03 ( -14.60%)
   displ. norm   :     0.2861820 α      lambda       -0.4908505E-03
   maximum displ.:     0.1972985 α      in ANC's #6, #4, #2, ...

........................................................................
.............................. CYCLE    6 ..............................
........................................................................

 iter      E             dE          RMSdq      gap      omega  full diag
   1    -99.5806891 -0.995807E+02  0.539E-02    0.07       0.0  T
   2    -99.5714523  0.923681E-02  0.245E-01    0.04       1.0  T
   3    -99.5773780 -0.592566E-02  0.149E-01    0.09       1.0  T
   4    -99.5805824 -0.320442E-02  0.434E-02    0.07       1.0  T
   5    -99.5807084 -0.125970E-03  0.850E-03    0.07       1.5  T
   6    -99.5807105 -0.215893E-05  0.779E-03    0.07       1.6  T
   7    -99.5807203 -0.976895E-05  0.914E-04    0.07      13.7  T
   8    -99.5807199  0.442823E-06  0.189E-03    0.07       6.6  T
   9    -99.5807202 -0.342792E-06  0.110E-03    0.07      11.4  T
  10    -99.5807204 -0.183143E-06  0.158E-04    0.07      79.2  T
  11    -99.5807204 -0.261213E-08  0.731E-05    0.07     171.0  T
     SCC iter.                  ...        0 min,  0.258 sec
     gradient                   ...        0 min,  0.010 sec
 * total energy  :   -97.9515835 Eh     change       -0.3813669E-03 Eh
   gradient norm :     0.0062604 Eh/α   predicted    -0.2655259E-03 ( -30.38%)
   displ. norm   :     0.3028583 α      lambda       -0.4158346E-03
   maximum displ.:     0.2016216 α      in ANC's #6, #4, #2, ...

........................................................................
.............................. CYCLE    7 ..............................
........................................................................

 iter      E             dE          RMSdq      gap      omega  full diag
   1    -99.5829445 -0.995829E+02  0.699E-02    0.07       0.0  T
   2    -99.3619660  0.220978E+00  0.118E+00    0.07       1.0  T
   3    -99.5827996 -0.220834E+00  0.600E-02    0.07       1.0  T
   4    -99.5829618 -0.162140E-03  0.411E-02    0.06       1.0  T
   5    -99.5832097 -0.247890E-03  0.119E-02    0.07       1.1  T
   6    -99.5832203 -0.106752E-04  0.443E-03    0.07       2.8  T
   7    -99.5832183  0.206689E-05  0.504E-03    0.07       2.5  T
   8    -99.5832196 -0.135953E-05  0.399E-03    0.07       3.1  T
   9    -99.5832218 -0.216613E-05  0.134E-03    0.07       9.3  T
  10    -99.5832221 -0.273070E-06  0.268E-04    0.07      46.6  T
  11    -99.5832221 -0.290281E-08  0.229E-04    0.07      54.6  T
     SCC iter.                  ...        0 min,  0.219 sec
     gradient                   ...        0 min,  0.010 sec
 * total energy  :   -97.9519309 Eh     change       -0.3474846E-03 Eh
   gradient norm :     0.0054739 Eh/α   predicted    -0.2269889E-03 ( -34.68%)
   displ. norm   :     0.3895946 α      lambda       -0.4565215E-03
   maximum displ.:     0.2463006 α      in ANC's #6, #4, #2, ...

........................................................................
.............................. CYCLE    8 ..............................
........................................................................

 iter      E             dE          RMSdq      gap      omega  full diag
   1    -99.5841338 -0.995841E+02  0.835E-02    0.07       0.0  T
   2    -99.4132797  0.170854E+00  0.104E+00    0.05       1.0  T
   3    -99.5836565 -0.170377E+00  0.800E-02    0.08       1.0  T
   4    -99.5840526 -0.396127E-03  0.620E-02    0.07       1.0  T
   5    -99.5843411 -0.288466E-03  0.945E-03    0.07       1.3  T
   6    -99.5843482 -0.713126E-05  0.465E-03    0.07       2.7  T
   7    -99.5843500 -0.182099E-05  0.303E-03    0.07       4.1  T
   8    -99.5843503 -0.327918E-06  0.259E-03    0.07       4.8  T
   9    -99.5843511 -0.768817E-06  0.124E-03    0.07      10.1  T
  10    -99.5843513 -0.231150E-06  0.243E-04    0.07      51.5  T
  11    -99.5843513 -0.865980E-08  0.344E-05    0.07     363.5  T
     SCC iter.                  ...        0 min,  0.208 sec
     gradient                   ...        0 min,  0.012 sec
 * total energy  :   -97.9523118 Eh     change       -0.3808438E-03 Eh
   gradient norm :     0.0048058 Eh/α   predicted    -0.2629077E-03 ( -30.97%)
   displ. norm   :     0.4803880 α      lambda       -0.4609764E-03
   maximum displ.:     0.2910323 α      in ANC's #6, #4, #2, ...

........................................................................
.............................. CYCLE    9 ..............................
........................................................................

 iter      E             dE          RMSdq      gap      omega  full diag
   1    -99.5839938 -0.995840E+02  0.967E-02    0.07       0.0  T
   2    -99.5822051  0.178868E-02  0.123E-01    0.08       1.0  T
   3    -99.4722111  0.109994E+00  0.841E-01    0.03       1.0  T
   4    -99.5824883 -0.110277E+00  0.115E-01    0.08       1.0  T
   5    -99.5835133 -0.102500E-02  0.569E-02    0.08       1.0  T
   6    -99.5838463 -0.332958E-03  0.329E-02    0.07       1.0  T
   7    -99.5840072 -0.160930E-03  0.841E-03    0.07       1.5  T
   8    -99.5840176 -0.104055E-04  0.200E-03    0.07       6.2  T
   9    -99.5840168  0.763301E-06  0.301E-03    0.07       4.2  T
  10    -99.5840174 -0.507448E-06  0.236E-03    0.07       5.3  T
  11    -99.5840182 -0.856331E-06  0.379E-04    0.07      33.0  T
  12    -99.5840182 -0.220413E-07  0.400E-05    0.07     312.4  T
     SCC iter.                  ...        0 min,  0.195 sec
     gradient                   ...        0 min,  0.011 sec
 * total energy  :   -97.9526902 Eh     change       -0.3784324E-03 Eh
   gradient norm :     0.0050950 Eh/α   predicted    -0.2836820E-03 ( -25.04%)
   displ. norm   :     0.5444814 α      lambda       -0.4231907E-03
   maximum displ.:     0.3175959 α      in ANC's #6, #2, #4, ...

........................................................................
.............................. CYCLE   10 ..............................
........................................................................

 iter      E             dE          RMSdq      gap      omega  full diag
   1    -99.5828998 -0.995829E+02  0.120E-01    0.06       0.0  T
   2    -99.5565923  0.263075E-01  0.424E-01    0.20       1.0  T
   3    -99.5770830 -0.204907E-01  0.206E-01    0.04       1.0  T
   4    -99.5743031  0.277990E-02  0.246E-01    0.11       1.0  T
   5    -99.5793085 -0.500534E-02  0.158E-01    0.09       1.0  T
   6    -99.5827972 -0.348878E-02  0.495E-02    0.07       1.0  T
   7    -99.5831724 -0.375172E-03  0.899E-03    0.07       1.4  T
   8    -99.5831309  0.415082E-04  0.187E-02    0.07       1.0  T
   9    -99.5831785 -0.475635E-04  0.649E-03    0.07       1.9  T
  10    -99.5831842 -0.575071E-05  0.235E-03    0.07       5.3  T
  11    -99.5831851 -0.850751E-06  0.362E-04    0.07      34.5  T
  12    -99.5831851 -0.193074E-07  0.976E-05    0.07     128.1  T
     SCC iter.                  ...        0 min,  0.283 sec
     gradient                   ...        0 min,  0.010 sec
 * total energy  :   -97.9530242 Eh     change       -0.3340203E-03 Eh
   gradient norm :     0.0052085 Eh/α   predicted    -0.2743272E-03 ( -17.87%)
   displ. norm   :     0.4944807 α      lambda       -0.3146333E-03
   maximum displ.:     0.2683082 α      in ANC's #6, #2, #4, ...

........................................................................
.............................. CYCLE   11 ..............................
........................................................................

 iter      E             dE          RMSdq      gap      omega  full diag
   1    -99.5830410 -0.995830E+02  0.115E-01    0.06       0.0  T
   2    -99.5542098  0.288311E-01  0.445E-01    0.23       1.0  T
   3    -99.5818856 -0.276758E-01  0.114E-01    0.05       1.0  T
   4    -99.5779812  0.390449E-02  0.189E-01    0.10       1.0  T
   5    -99.5825837 -0.460258E-02  0.733E-02    0.08       1.0  T
   6    -99.5834002 -0.816514E-03  0.144E-02    0.06       1.0  T
   7    -99.5834224 -0.221723E-04  0.714E-03    0.07       1.8  T
   8    -99.5834023  0.201370E-04  0.135E-02    0.07       1.0  T
   9    -99.5834305 -0.282298E-04  0.126E-03    0.07       9.9  T
  10    -99.5834307 -0.140646E-06  0.780E-04    0.07      16.0  T
  11    -99.5834307 -0.945841E-07  0.945E-05    0.07     132.3  T
     SCC iter.                  ...        0 min,  0.181 sec
     gradient                   ...        0 min,  0.011 sec
 * total energy  :   -97.9532666 Eh     change       -0.2424076E-03 Eh
   gradient norm :     0.0043294 Eh/α   predicted    -0.1957948E-03 ( -19.23%)
   displ. norm   :     0.3958391 α      lambda       -0.2181970E-03
   maximum displ.:     0.1907075 α      in ANC's #2, #6, #3, ...

........................................................................
.............................. CYCLE   12 ..............................
........................................................................

 iter      E             dE          RMSdq      gap      omega  full diag
   1    -99.5848114 -0.995848E+02  0.905E-02    0.06       0.0  T
   2    -99.5619640  0.228474E-01  0.392E-01    0.17       1.0  T
   3    -99.5836823 -0.217183E-01  0.102E-01    0.05       1.0  T
   4    -99.5827605  0.921818E-03  0.121E-01    0.09       1.0  T
   5    -99.5846519 -0.189144E-02  0.464E-02    0.07       1.0  T
   6    -99.5849787 -0.326797E-03  0.939E-03    0.06       1.3  T
   7    -99.5849786  0.132026E-06  0.914E-03    0.06       1.4  T
   8    -99.5849864 -0.780770E-05  0.595E-03    0.07       2.1  T
   9    -99.5849911 -0.476536E-05  0.211E-03    0.07       5.9  T
  10    -99.5849917 -0.599359E-06  0.795E-04    0.07      15.7  T
  11    -99.5849918 -0.981713E-07  0.866E-05    0.07     144.4  T
     SCC iter.                  ...        0 min,  0.200 sec
     gradient                   ...        0 min,  0.011 sec
 * total energy  :   -97.9534333 Eh     change       -0.1666279E-03 Eh
   gradient norm :     0.0030743 Eh/α   predicted    -0.1261948E-03 ( -24.27%)
   displ. norm   :     0.3232280 α      lambda       -0.1504982E-03
   maximum displ.:     0.1709563 α      in ANC's #2, #3, #10, ...

........................................................................
.............................. CYCLE   13 ..............................
........................................................................

 iter      E             dE          RMSdq      gap      omega  full diag
   1    -99.5863238 -0.995863E+02  0.691E-02    0.06       0.0  T
   2    -99.5801854  0.613843E-02  0.204E-01    0.10       1.0  T
   3    -99.5807789 -0.593494E-03  0.192E-01    0.04       1.0  T
   4    -99.5858405 -0.506161E-02  0.615E-02    0.07       1.0  T
   5    -99.5860639 -0.223379E-03  0.428E-02    0.07       1.0  T
   6    -99.5862619 -0.198038E-03  0.233E-02    0.07       1.0  T
   7    -99.5863462 -0.842611E-04  0.194E-03    0.07       6.4  T
   8    -99.5863465 -0.314469E-06  0.122E-03    0.07      10.3  T
   9    -99.5863467 -0.178706E-06  0.526E-04    0.07      23.8  T
  10    -99.5863467 -0.359055E-07  0.200E-04    0.07      62.4  T
     SCC iter.                  ...        0 min,  0.201 sec
     gradient                   ...        0 min,  0.014 sec
 * total energy  :   -97.9535507 Eh     change       -0.1174290E-03 Eh
   gradient norm :     0.0027973 Eh/α   predicted    -0.8311422E-04 ( -29.22%)
   displ. norm   :     0.2776952 α      lambda       -0.1211965E-03
   maximum displ.:     0.1587713 α      in ANC's #2, #3, #10, ...

........................................................................
.............................. CYCLE   14 ..............................
........................................................................

 iter      E             dE          RMSdq      gap      omega  full diag
   1    -99.5873758 -0.995874E+02  0.564E-02    0.07       0.0  T
   2    -99.5827908  0.458493E-02  0.175E-01    0.04       1.0  T
   3    -99.5841962 -0.140539E-02  0.146E-01    0.09       1.0  T
   4    -99.5873387 -0.314248E-02  0.223E-02    0.07       1.0  T
   5    -99.5873256  0.131320E-04  0.198E-02    0.07       1.0  T
   6    -99.5873643 -0.387621E-04  0.115E-02    0.07       1.1  T
   7    -99.5873846 -0.202762E-04  0.188E-03    0.07       6.7  T
   8    -99.5873849 -0.272177E-06  0.131E-03    0.07       9.5  T
   9    -99.5873851 -0.244467E-06  0.373E-04    0.07      33.5  T
  10    -99.5873852 -0.194979E-07  0.686E-05    0.07     182.2  T
     SCC iter.                  ...        0 min,  0.405 sec
     gradient                   ...        0 min,  0.012 sec
 * total energy  :   -97.9536493 Eh     change       -0.9860040E-04 Eh
   gradient norm :     0.0030093 Eh/α   predicted    -0.6527191E-04 ( -33.80%)
   displ. norm   :     0.2821498 α      lambda       -0.1225819E-03
   maximum displ.:     0.1684229 α      in ANC's #2, #3, #1, ...

........................................................................
.............................. CYCLE   15 ..............................
........................................................................

 iter      E             dE          RMSdq      gap      omega  full diag
   1    -99.5878232 -0.995878E+02  0.546E-02    0.07       0.0  T
   2    -99.5782566  0.956656E-02  0.250E-01    0.03       1.0  T
   3    -99.5865060 -0.824935E-02  0.970E-02    0.08       1.0  T
   4    -99.5878292 -0.132326E-02  0.105E-02    0.07       1.2  T
   5    -99.5878126  0.166039E-04  0.133E-02    0.07       1.0  T
   6    -99.5878297 -0.170713E-04  0.780E-03    0.07       1.6  T
   7    -99.5878391 -0.943258E-05  0.120E-03    0.07      10.4  T
   8    -99.5878392 -0.108617E-06  0.847E-04    0.07      14.8  T
   9    -99.5878393 -0.381237E-07  0.664E-04    0.07      18.8  T
     SCC iter.                  ...        0 min,  0.168 sec
     gradient                   ...        0 min,  0.011 sec
 * total energy  :   -97.9537519 Eh     change       -0.1026206E-03 Eh
   gradient norm :     0.0031349 Eh/α   predicted    -0.6617542E-04 ( -35.51%)
   displ. norm   :     0.3249707 α      lambda       -0.1377942E-03
   maximum displ.:     0.1977979 α      in ANC's #2, #1, #3, ...

........................................................................
.............................. CYCLE   16 ..............................
........................................................................

 iter      E             dE          RMSdq      gap      omega  full diag
   1    -99.5876506 -0.995877E+02  0.594E-02    0.07       0.0  T
   2    -99.5867384  0.912206E-03  0.849E-02    0.06       1.0  T
   3    -99.5774910  0.924740E-02  0.258E-01    0.12       1.0  T
   4    -99.5875147 -0.100237E-01  0.362E-02    0.07       1.0  T
   5    -99.5875716 -0.568210E-04  0.234E-02    0.07       1.0  T
   6    -99.5876402 -0.686170E-04  0.935E-03    0.07       1.3  T
   7    -99.5876516 -0.113838E-04  0.398E-03    0.07       3.1  T
   8    -99.5876540 -0.244405E-05  0.295E-04    0.07      42.3  T
   9    -99.5876538  0.182247E-06  0.110E-03    0.07      11.4  T
  10    -99.5876540 -0.187716E-06  0.113E-04    0.07     110.5  T
  11    -99.5876540  0.894896E-08  0.264E-04    0.07      47.4  T
     SCC iter.                  ...        0 min,  0.303 sec
     gradient                   ...        0 min,  0.011 sec
 * total energy  :   -97.9538695 Eh     change       -0.1175522E-03 Eh
   gradient norm :     0.0029916 Eh/α   predicted    -0.7617334E-04 ( -35.20%)
   displ. norm   :     0.3752142 α      lambda       -0.1570951E-03
   maximum displ.:     0.2303900 α      in ANC's #2, #1, #3, ...

........................................................................
.............................. CYCLE   17 ..............................
........................................................................

 iter      E             dE          RMSdq      gap      omega  full diag
   1    -99.5872578 -0.995873E+02  0.669E-02    0.07       0.0  T
   2    -99.5869735  0.284311E-03  0.591E-02    0.06       1.0  T
   3    -99.5681939  0.187796E-01  0.354E-01    0.15       1.0  T
   4    -99.5871222 -0.189284E-01  0.414E-02    0.07       1.0  T
   5    -99.5871347 -0.124502E-04  0.291E-02    0.07       1.0  T
   6    -99.5872538 -0.119103E-03  0.730E-03    0.07       1.7  T
   7    -99.5872560 -0.221186E-05  0.630E-03    0.07       2.0  T
   8    -99.5872621 -0.606695E-05  0.541E-04    0.07      23.1  T
   9    -99.5872612  0.867615E-06  0.239E-03    0.07       5.2  T
  10    -99.5872621 -0.891684E-06  0.160E-04    0.07      77.9  T
  11    -99.5872621  0.504109E-08  0.240E-04    0.07      52.1  T
     SCC iter.                  ...        0 min,  0.403 sec
     gradient                   ...        0 min,  0.015 sec
 * total energy  :   -97.9540052 Eh     change       -0.1357435E-03 Eh
   gradient norm :     0.0030151 Eh/α   predicted    -0.8960681E-04 ( -33.99%)
   displ. norm   :     0.4285818 α      lambda       -0.1799883E-03
   maximum displ.:     0.2639777 α      in ANC's #2, #1, #3, ...

........................................................................
.............................. CYCLE   18 ..............................
........................................................................

 iter      E             dE          RMSdq      gap      omega  full diag
   1    -99.5866093 -0.995866E+02  0.758E-02    0.06       0.0  T
   2    -99.5817260  0.488334E-02  0.183E-01    0.10       1.0  T
   3    -99.5705855  0.111405E-01  0.324E-01    0.03       1.0  T
   4    -99.5856344 -0.150489E-01  0.869E-02    0.08       1.0  T
   5    -99.5861515 -0.517052E-03  0.559E-02    0.07       1.0  T
   6    -99.5864795 -0.328033E-03  0.311E-02    0.07       1.0  T
   7    -99.5866231 -0.143548E-03  0.644E-03    0.07       1.9  T
   8    -99.5866288 -0.576431E-05  0.202E-03    0.07       6.2  T
   9    -99.5866293 -0.522247E-06  0.916E-04    0.07      13.6  T
  10    -99.5866294 -0.894914E-07  0.447E-04    0.07      27.9  T
     SCC iter.                  ...        0 min,  0.302 sec
     gradient                   ...        0 min,  0.024 sec
 * total energy  :   -97.9541623 Eh     change       -0.1571247E-03 Eh
   gradient norm :     0.0033672 Eh/α   predicted    -0.1065271E-03 ( -32.20%)
   displ. norm   :     0.4919187 α      lambda       -0.2097850E-03
   maximum displ.:     0.3021981 α      in ANC's #2, #1, #3, ...

........................................................................
.............................. CYCLE   19 ..............................
........................................................................

 iter      E             dE          RMSdq      gap      omega  full diag
   1    -99.5859123 -0.995859E+02  0.877E-02    0.06       0.0  T
   2    -99.5714559  0.144564E-01  0.312E-01    0.13       1.0  T
   3    -99.5790928 -0.763693E-02  0.216E-01    0.04       1.0  T
   4    -99.5832636 -0.417080E-02  0.137E-01    0.09       1.0  T
   5    -99.5847800 -0.151638E-02  0.888E-02    0.08       1.0  T
   6    -99.5857599 -0.979941E-03  0.385E-02    0.07       1.0  T
   7    -99.5859880 -0.228059E-03  0.235E-03    0.07       5.3  T
   8    -99.5859885 -0.545949E-06  0.129E-03    0.07       9.7  T
   9    -99.5859874  0.109423E-05  0.286E-03    0.07       4.4  T
  10    -99.5859887 -0.126936E-05  0.305E-04    0.07      41.0  T
  11    -99.5859887  0.506963E-07  0.645E-04    0.07      19.4  T
  12    -99.5859887 -0.628060E-07  0.101E-04    0.07     123.5  T
     SCC iter.                  ...        0 min,  0.294 sec
     gradient                   ...        0 min,  0.011 sec
 * total energy  :   -97.9543454 Eh     change       -0.1830518E-03 Eh
   gradient norm :     0.0038769 Eh/α   predicted    -0.1302782E-03 ( -28.83%)
   displ. norm   :     0.5571751 α      lambda       -0.2395902E-03
   maximum displ.:     0.3402332 α      in ANC's #2, #1, #3, ...

........................................................................
.............................. CYCLE   20 ..............................
........................................................................

 iter      E             dE          RMSdq      gap      omega  full diag
   1    -99.5853147 -0.995853E+02  0.968E-02    0.06       0.0  T
   2    -99.5709770  0.143377E-01  0.312E-01    0.13       1.0  T
   3    -99.5750928 -0.411576E-02  0.263E-01    0.03       1.0  T
   4    -99.5817883 -0.669552E-02  0.155E-01    0.09       1.0  T
   5    -99.5837522 -0.196391E-02  0.104E-01    0.08       1.0  T
   6    -99.5850145 -0.126231E-02  0.493E-02    0.07       1.0  T
   7    -99.5853893 -0.374729E-03  0.221E-03    0.07       5.7  T
   8    -99.5853894 -0.161350E-06  0.182E-03    0.07       6.9  T
   9    -99.5853887  0.741881E-06  0.270E-03    0.07       4.6  T
  10    -99.5853898 -0.111674E-05  0.444E-04    0.07      28.2  T
  11    -99.5853897  0.589778E-07  0.758E-04    0.07      16.5  T
  12    -99.5853898 -0.871419E-07  0.102E-04    0.07     122.1  T
     SCC iter.                  ...        0 min,  0.644 sec
     gradient                   ...        0 min,  0.014 sec
 * total energy  :   -97.9545522 Eh     change       -0.2067989E-03 Eh
   gradient norm :     0.0042818 Eh/α   predicted    -0.1569902E-03 ( -24.09%)
   displ. norm   :     0.5905088 α      lambda       -0.2564890E-03
   maximum displ.:     0.3581934 α      in ANC's #2, #1, #9, ...
 * RMSD in coord.:     0.7437120 α      energy gain  -0.4180200E-01 Eh

generating ANC from model Hessian ...
Using Lindh-Hessian (1995)
 Shifting diagonal of input Hessian by    9.8759628868129307E-003
 Lowest  eigenvalues of input Hessian
    0.000000    0.000000    0.000000    0.000000    0.000000    0.000000
    0.010000    0.010013    0.010323    0.010618    0.011176    0.011464
    0.012053    0.012618    0.012890    0.013477    0.014162    0.015591
 Highest eigenvalues
    2.080079    2.108750    2.119018    2.212484    2.257682    2.447747


........................................................................
.............................. CYCLE   21 ..............................
........................................................................

 iter      E             dE          RMSdq      gap      omega  full diag
   1    -99.5851122 -0.995851E+02  0.100E-01    0.06       0.0  T
   2    -99.5715708  0.135414E-01  0.304E-01    0.13       1.0  T
   3    -99.5729010 -0.133020E-02  0.286E-01    0.03       1.0  T
   4    -99.5814098 -0.850880E-02  0.158E-01    0.09       1.0  T
   5    -99.5838817 -0.247193E-02  0.920E-02    0.08       1.0  T
   6    -99.5848803 -0.998563E-03  0.441E-02    0.07       1.0  T
   7    -99.5851795 -0.299208E-03  0.156E-03    0.07       8.0  T
   8    -99.5851787  0.765646E-06  0.263E-03    0.07       4.7  T
   9    -99.5851790 -0.251084E-06  0.210E-03    0.07       6.0  T
  10    -99.5851796 -0.629157E-06  0.644E-04    0.07      19.4  T
  11    -99.5851796  0.294477E-07  0.782E-04    0.07      16.0  T
     SCC iter.                  ...        0 min,  0.319 sec
     gradient                   ...        0 min,  0.032 sec
 * total energy  :   -97.9547698 Eh     change       -0.2175975E-03 Eh
   gradient norm :     0.0043562 Eh/α   predicted     0.0000000E+00 (-100.00%)
   displ. norm   :     0.0650403 α      lambda       -0.8553495E-04
   maximum displ.:     0.0336833 α      in ANC's #1, #8, #14, ...

........................................................................
.............................. CYCLE   22 ..............................
........................................................................

 iter      E             dE          RMSdq      gap      omega  full diag
   1    -99.5872698 -0.995873E+02  0.383E-02    0.07       0.0  T
   2    -99.4504809  0.136789E+00  0.936E-01    0.04       1.0  T
   3    -99.5873789 -0.136898E+00  0.224E-02    0.07       1.0  T
   4    -99.5874216 -0.426337E-04  0.140E-02    0.07       1.0  T
   5    -99.5874334 -0.118523E-04  0.701E-03    0.07       1.8  T
   6    -99.5874374 -0.400795E-05  0.251E-03    0.07       5.0  T
   7    -99.5874375 -0.100417E-06  0.177E-03    0.07       7.1  T
   8    -99.5874378 -0.212727E-06  0.128E-03    0.07       9.8  T
   9    -99.5874380 -0.249441E-06  0.926E-05    0.07     134.9  T
  10    -99.5874380  0.115669E-07  0.284E-04    0.07      44.0  T
     SCC iter.                  ...        0 min,  0.408 sec
     gradient                   ...        0 min,  0.011 sec
 * total energy  :   -97.9548430 Eh     change       -0.7323510E-04 Eh
   gradient norm :     0.0022906 Eh/α   predicted    -0.4415385E-04 ( -39.71%)
   displ. norm   :     0.1932511 α      lambda       -0.1663181E-03
   maximum displ.:     0.1016207 α      in ANC's #1, #8, #14, ...

........................................................................
.............................. CYCLE   23 ..............................
........................................................................

 iter      E             dE          RMSdq      gap      omega  full diag
   1    -99.5894446 -0.995894E+02  0.860E-02    0.08       0.0  T
   2    -99.2266456  0.362799E+00  0.152E+00    0.13       1.0  T
   3    -99.5898199 -0.363174E+00  0.556E-02    0.07       1.0  T
   4    -99.5899749 -0.155003E-03  0.418E-02    0.06       1.0  T
   5    -99.5901055 -0.130605E-03  0.233E-02    0.06       1.0  T
   6    -99.5901761 -0.705304E-04  0.577E-03    0.07       2.2  T
   7    -99.5901781 -0.206288E-05  0.236E-03    0.07       5.3  T
   8    -99.5901784 -0.289146E-06  0.179E-03    0.07       7.0  T
   9    -99.5901789 -0.489846E-06  0.227E-04    0.07      55.0  T
  10    -99.5901789  0.382441E-07  0.520E-04    0.07      24.0  T
     SCC iter.                  ...        0 min,  0.269 sec
     gradient                   ...        0 min,  0.010 sec
 * total energy  :   -97.9549564 Eh     change       -0.1133250E-03 Eh
   gradient norm :     0.0026580 Eh/α   predicted    -0.8626688E-04 ( -23.88%)
   displ. norm   :     0.1734338 α      lambda       -0.8332977E-04
   maximum displ.:     0.0982204 α      in ANC's #1, #8, #9, ...

........................................................................
.............................. CYCLE   24 ..............................
........................................................................

 iter      E             dE          RMSdq      gap      omega  full diag
   1    -99.5901267 -0.995901E+02  0.459E-02    0.07       0.0  T
   2    -99.5384069  0.517198E-01  0.577E-01    0.01       1.0  T
   3    -99.5898724 -0.514655E-01  0.515E-02    0.07       1.0  T
   4    -99.5901563 -0.283843E-03  0.205E-02    0.07       1.0  T
   5    -99.5901678 -0.114902E-04  0.135E-02    0.07       1.0  T
   6    -99.5901954 -0.276450E-04  0.208E-03    0.07       6.0  T
   7    -99.5901959 -0.458981E-06  0.950E-04    0.07      13.2  T
   8    -99.5901960 -0.107068E-06  0.346E-04    0.07      36.1  T
     SCC iter.                  ...        0 min,  0.173 sec
     gradient                   ...        0 min,  0.010 sec
 * total energy  :   -97.9550221 Eh     change       -0.6576779E-04 Eh
   gradient norm :     0.0034195 Eh/α   predicted    -0.4291824E-04 ( -34.74%)
   displ. norm   :     0.2073565 α      lambda       -0.9120231E-04
   maximum displ.:     0.1219928 α      in ANC's #1, #8, #9, ...

........................................................................
.............................. CYCLE   25 ..............................
........................................................................

 iter      E             dE          RMSdq      gap      omega  full diag
   1    -99.5889990 -0.995890E+02  0.436E-02    0.07       0.0  T
   2    -99.5843617  0.463727E-02  0.177E-01    0.10       1.0  T
   3    -99.5882166 -0.385492E-02  0.750E-02    0.06       1.0  T
   4    -99.5887417 -0.525039E-03  0.453E-02    0.07       1.0  T
   5    -99.5889448 -0.203157E-03  0.215E-02    0.07       1.0  T
   6    -99.5890070 -0.621328E-04  0.760E-03    0.07       1.6  T
   7    -99.5890155 -0.856875E-05  0.153E-03    0.07       8.1  T
   8    -99.5890159 -0.336429E-06  0.422E-04    0.07      29.6  T
   9    -99.5890159  0.454288E-08  0.392E-04    0.07      31.9  T
     SCC iter.                  ...        0 min,  0.189 sec
     gradient                   ...        0 min,  0.011 sec
 * total energy  :   -97.9550957 Eh     change       -0.7360517E-04 Eh
   gradient norm :     0.0028261 Eh/α   predicted    -0.4756214E-04 ( -35.38%)
   displ. norm   :     0.2269399 α      lambda       -0.9250450E-04
   maximum displ.:     0.1393363 α      in ANC's #1, #8, #9, ...

........................................................................
.............................. CYCLE   26 ..............................
........................................................................

 iter      E             dE          RMSdq      gap      omega  full diag
   1    -99.5876207 -0.995876E+02  0.441E-02    0.06       0.0  T
   2    -99.5743879  0.132327E-01  0.297E-01    0.13       1.0  T
   3    -99.5876450 -0.132571E-01  0.273E-02    0.06       1.0  T
   4    -99.5874903  0.154708E-03  0.386E-02    0.07       1.0  T
   5    -99.5876767 -0.186449E-03  0.758E-03    0.07       1.6  T
   6    -99.5876803 -0.358439E-05  0.565E-03    0.07       2.2  T
   7    -99.5876852 -0.488112E-05  0.694E-04    0.07      18.0  T
   8    -99.5876846  0.562713E-06  0.196E-03    0.07       6.4  T
   9    -99.5876851 -0.469955E-06  0.908E-04    0.07      13.8  T
  10    -99.5876852 -0.129038E-06  0.443E-05    0.07     282.3  T
     SCC iter.                  ...        0 min,  0.246 sec
     gradient                   ...        0 min,  0.010 sec
 * total energy  :   -97.9551700 Eh     change       -0.7426819E-04 Eh
   gradient norm :     0.0023139 Eh/α   predicted    -0.4863538E-04 ( -34.51%)
   displ. norm   :     0.2424445 α      lambda       -0.9020611E-04
   maximum displ.:     0.1526598 α      in ANC's #1, #8, #9, ...

........................................................................
.............................. CYCLE   27 ..............................
........................................................................

 iter      E             dE          RMSdq      gap      omega  full diag
   1    -99.5868488 -0.995868E+02  0.414E-02    0.06       0.0  T
   2    -99.5742511  0.125977E-01  0.289E-01    0.13       1.0  T
   3    -99.5868821 -0.126310E-01  0.245E-02    0.07       1.0  T
   4    -99.5867923  0.898225E-04  0.296E-02    0.07       1.0  T
   5    -99.5869043 -0.112031E-03  0.518E-03    0.07       2.4  T
   6    -99.5869026  0.168471E-05  0.582E-03    0.07       2.1  T
   7    -99.5869074 -0.474909E-05  0.220E-03    0.07       5.7  T
   8    -99.5869080 -0.660206E-06  0.653E-04    0.07      19.1  T
   9    -99.5869080  0.487390E-09  0.594E-04    0.07      21.0  T
     SCC iter.                  ...        0 min,  0.188 sec
     gradient                   ...        0 min,  0.013 sec
 * total energy  :   -97.9552427 Eh     change       -0.7271514E-04 Eh
   gradient norm :     0.0027555 Eh/α   predicted    -0.4775452E-04 ( -34.33%)
   displ. norm   :     0.2530991 α      lambda       -0.9271578E-04
   maximum displ.:     0.1618227 α      in ANC's #1, #8, #9, ...

........................................................................
.............................. CYCLE   28 ..............................
........................................................................

 iter      E             dE          RMSdq      gap      omega  full diag
   1    -99.5868930 -0.995869E+02  0.373E-02    0.07       0.0  T
   2    -99.5839833  0.290967E-02  0.140E-01    0.09       1.0  T
   3    -99.5861338 -0.215052E-02  0.731E-02    0.06       1.0  T
   4    -99.5868035 -0.669698E-03  0.267E-02    0.07       1.0  T
   5    -99.5868792 -0.756343E-04  0.125E-02    0.07       1.0  T
   6    -99.5868994 -0.201947E-04  0.473E-03    0.07       2.6  T
   7    -99.5869024 -0.301833E-05  0.129E-03    0.07       9.7  T
   8    -99.5869023  0.694793E-07  0.134E-03    0.07       9.3  T
   9    -99.5869026 -0.263185E-06  0.345E-04    0.07      36.3  T
  10    -99.5869026 -0.160469E-07  0.113E-04    0.07     110.8  T
     SCC iter.                  ...        0 min,  0.173 sec
     gradient                   ...        0 min,  0.012 sec
 * total energy  :   -97.9553192 Eh     change       -0.7647738E-04 Eh
   gradient norm :     0.0033668 Eh/α   predicted    -0.4932908E-04 ( -35.50%)
   displ. norm   :     0.2878539 α      lambda       -0.1082013E-03
   maximum displ.:     0.1857422 α      in ANC's #1, #8, #9, ...

........................................................................
.............................. CYCLE   29 ..............................
........................................................................

 iter      E             dE          RMSdq      gap      omega  full diag
   1    -99.5874751 -0.995875E+02  0.470E-02    0.07       0.0  T
   2    -99.5486130  0.388621E-01  0.501E-01    0.01       1.0  T
   3    -99.5873054 -0.386924E-01  0.453E-02    0.07       1.0  T
   4    -99.5875157 -0.210262E-03  0.137E-02    0.07       1.0  T
   5    -99.5875261 -0.104049E-04  0.553E-03    0.07       2.3  T
   6    -99.5875247  0.133343E-05  0.567E-03    0.07       2.2  T
   7    -99.5875295 -0.475427E-05  0.153E-03    0.07       8.2  T
   8    -99.5875296 -0.150373E-06  0.988E-04    0.07      12.6  T
   9    -99.5875297 -0.106256E-06  0.453E-04    0.07      27.6  T
     SCC iter.                  ...        0 min,  0.139 sec
     gradient                   ...        0 min,  0.011 sec
 * total energy  :   -97.9554080 Eh     change       -0.8877177E-04 Eh
   gradient norm :     0.0033330 Eh/α   predicted    -0.5859031E-04 ( -34.00%)
   displ. norm   :     0.3185129 α      lambda       -0.1150626E-03
   maximum displ.:     0.2079735 α      in ANC's #1, #9, #8, ...

........................................................................
.............................. CYCLE   30 ..............................
........................................................................

 iter      E             dE          RMSdq      gap      omega  full diag
   1    -99.5882248 -0.995882E+02  0.561E-02    0.07       0.0  T
   2    -99.5003061  0.879187E-01  0.752E-01    0.02       1.0  T
   3    -99.5881948 -0.878887E-01  0.412E-02    0.07       1.0  T
   4    -99.5882790 -0.842210E-04  0.224E-02    0.07       1.0  T
   5    -99.5883333 -0.542909E-04  0.598E-03    0.07       2.1  T
   6    -99.5883319  0.136358E-05  0.570E-03    0.07       2.2  T
   7    -99.5883359 -0.397749E-05  0.187E-03    0.07       6.7  T
   8    -99.5883362 -0.354519E-06  0.100E-03    0.07      12.5  T
   9    -99.5883364 -0.141192E-06  0.172E-04    0.07      72.6  T
  10    -99.5883364 -0.142289E-08  0.706E-05    0.07     177.0  T
     SCC iter.                  ...        0 min,  0.159 sec
     gradient                   ...        0 min,  0.010 sec
 * total energy  :   -97.9555013 Eh     change       -0.9331115E-04 Eh
   gradient norm :     0.0030203 Eh/α   predicted    -0.6337411E-04 ( -32.08%)
   displ. norm   :     0.3080485 α      lambda       -0.1042417E-03
   maximum displ.:     0.2059428 α      in ANC's #1, #9, #7, ...

........................................................................
.............................. CYCLE   31 ..............................
........................................................................

 iter      E             dE          RMSdq      gap      omega  full diag
   1    -99.5889250 -0.995889E+02  0.603E-02    0.07       0.0  T
   2    -99.4269669  0.161958E+00  0.102E+00    0.05       1.0  T
   3    -99.5890543 -0.162087E+00  0.350E-02    0.07       1.0  T
   4    -99.5889929  0.614298E-04  0.307E-02    0.06       1.0  T
   5    -99.5891179 -0.125032E-03  0.888E-03    0.07       1.4  T
   6    -99.5891246 -0.674312E-05  0.362E-03    0.07       3.4  T
   7    -99.5891265 -0.183534E-05  0.867E-04    0.07      14.4  T
   8    -99.5891262  0.250958E-06  0.137E-03    0.07       9.1  T
   9    -99.5891264 -0.191646E-06  0.817E-04    0.07      15.3  T
  10    -99.5891265 -0.404369E-07  0.622E-04    0.07      20.1  T
     SCC iter.                  ...        0 min,  0.287 sec
     gradient                   ...        0 min,  0.011 sec
 * total energy  :   -97.9555848 Eh     change       -0.8352160E-04 Eh
   gradient norm :     0.0024184 Eh/α   predicted    -0.5706792E-04 ( -31.67%)
   displ. norm   :     0.2662614 α      lambda       -0.8208788E-04
   maximum displ.:     0.1836733 α      in ANC's #1, #9, #5, ...

........................................................................
.............................. CYCLE   32 ..............................
........................................................................

 iter      E             dE          RMSdq      gap      omega  full diag
   1    -99.5896312 -0.995896E+02  0.529E-02    0.07       0.0  T
   2    -99.4670575  0.122574E+00  0.885E-01    0.03       1.0  T
   3    -99.5897292 -0.122672E+00  0.306E-02    0.07       1.0  T
   4    -99.5897009  0.282984E-04  0.246E-02    0.06       1.0  T
   5    -99.5897730 -0.720217E-04  0.961E-03    0.07       1.3  T
   6    -99.5897810 -0.805016E-05  0.346E-03    0.07       3.6  T
   7    -99.5897824 -0.143612E-05  0.574E-04    0.07      21.8  T
   8    -99.5897822  0.188659E-06  0.114E-03    0.07      11.0  T
   9    -99.5897824 -0.110069E-06  0.780E-04    0.07      16.0  T
  10    -99.5897824 -0.603793E-07  0.470E-04    0.07      26.6  T
     SCC iter.                  ...        0 min,  0.259 sec
     gradient                   ...        0 min,  0.012 sec
 * total energy  :   -97.9556495 Eh     change       -0.6471572E-04 Eh
   gradient norm :     0.0018706 Eh/α   predicted    -0.4395409E-04 ( -32.08%)
   displ. norm   :     0.3054354 α      lambda       -0.5388671E-04
   maximum displ.:     0.2203391 α      in ANC's #1, #9, #5, ...

........................................................................
.............................. CYCLE   33 ..............................
........................................................................

 iter      E             dE          RMSdq      gap      omega  full diag
   1    -99.5899956 -0.995900E+02  0.523E-02    0.07       0.0  T
   2    -99.5724793  0.175162E-01  0.337E-01    0.03       1.0  T
   3    -99.5894846 -0.170053E-01  0.655E-02    0.08       1.0  T
   4    -99.5899514 -0.466720E-03  0.278E-02    0.07       1.0  T
   5    -99.5900004 -0.490733E-04  0.126E-02    0.07       1.0  T
   6    -99.5900139 -0.135007E-04  0.789E-03    0.07       1.6  T
   7    -99.5900230 -0.908341E-05  0.213E-03    0.07       5.9  T
   8    -99.5900236 -0.565328E-06  0.823E-04    0.07      15.2  T
   9    -99.5900237 -0.630886E-07  0.543E-04    0.07      23.0  T
     SCC iter.                  ...        0 min,  0.180 sec
     gradient                   ...        0 min,  0.011 sec
 * total energy  :   -97.9557057 Eh     change       -0.5616319E-04 Eh
   gradient norm :     0.0017406 Eh/α   predicted    -0.2806442E-04 ( -50.03%)
   displ. norm   :     0.1186835 α      lambda       -0.2151424E-04
   maximum displ.:     0.0969287 α      in ANC's #1, #5, #9, ...

........................................................................
.............................. CYCLE   34 ..............................
........................................................................

 iter      E             dE          RMSdq      gap      omega  full diag
   1    -99.5900876 -0.995901E+02  0.234E-02    0.07       0.0  T
   2    -99.5875213  0.256628E-02  0.130E-01    0.09       1.0  T
   3    -99.5898954 -0.237412E-02  0.380E-02    0.06       1.0  T
   4    -99.5900465 -0.151021E-03  0.212E-02    0.07       1.0  T
   5    -99.5900867 -0.402704E-04  0.760E-03    0.07       1.6  T
   6    -99.5900957 -0.898900E-05  0.497E-04    0.07      25.2  T
   7    -99.5900957 -0.146671E-07  0.212E-04    0.07      58.9  T
   8    -99.5900957  0.136889E-07  0.352E-04    0.07      35.5  T
     SCC iter.                  ...        0 min,  0.176 sec
     gradient                   ...        0 min,  0.010 sec
 * total energy  :   -97.9557331 Eh     change       -0.2746980E-04 Eh
   gradient norm :     0.0012654 Eh/α   predicted    -0.1082638E-04 ( -60.59%)
   displ. norm   :     0.0929280 α      lambda       -0.2262607E-04
   maximum displ.:     0.0704358 α      in ANC's #1, #4, #14, ...

........................................................................
.............................. CYCLE   35 ..............................
........................................................................

 iter      E             dE          RMSdq      gap      omega  full diag
   1    -99.5900402 -0.995900E+02  0.217E-02    0.07       0.0  T
   2    -99.5885860  0.145423E-02  0.977E-02    0.05       1.0  T
   3    -99.5898069 -0.122093E-02  0.408E-02    0.07       1.0  T
   4    -99.5900247 -0.217752E-03  0.154E-02    0.07       1.0  T
   5    -99.5900432 -0.185157E-04  0.252E-03    0.07       5.0  T
   6    -99.5900436 -0.385176E-06  0.136E-03    0.07       9.2  T
   7    -99.5900439 -0.266280E-06  0.256E-04    0.07      48.9  T
   8    -99.5900439  0.715801E-09  0.208E-04    0.07      60.2  T
     SCC iter.                  ...        0 min,  0.190 sec
     gradient                   ...        0 min,  0.013 sec
 * total energy  :   -97.9557619 Eh     change       -0.2878435E-04 Eh
   gradient norm :     0.0011393 Eh/α   predicted    -0.1135986E-04 ( -60.53%)
   displ. norm   :     0.1217894 α      lambda       -0.2552835E-04
   maximum displ.:     0.0772980 α      in ANC's #1, #4, #7, ...

........................................................................
.............................. CYCLE   36 ..............................
........................................................................

 iter      E             dE          RMSdq      gap      omega  full diag
   1    -99.5895921 -0.995896E+02  0.385E-02    0.06       0.0  T
   2    -99.5699199  0.196722E-01  0.361E-01    0.16       1.0  T
   3    -99.5897174 -0.197975E-01  0.171E-02    0.07       1.0  T
   4    -99.5896976  0.198545E-04  0.163E-02    0.07       1.0  T
   5    -99.5897108 -0.132485E-04  0.115E-02    0.07       1.1  T
   6    -99.5897289 -0.181431E-04  0.390E-03    0.07       3.2  T
   7    -99.5897290 -0.384737E-07  0.363E-03    0.07       3.4  T
   8    -99.5897310 -0.199339E-05  0.295E-04    0.07      42.3  T
   9    -99.5897302  0.827190E-06  0.231E-03    0.07       5.4  T
  10    -99.5897310 -0.831374E-06  0.452E-05    0.07     276.6  T
  11    -99.5897310 -0.999592E-10  0.288E-05    0.07     433.4  T
     SCC iter.                  ...        0 min,  0.254 sec
     gradient                   ...        0 min,  0.021 sec
 * total energy  :   -97.9557937 Eh     change       -0.3177186E-04 Eh
   gradient norm :     0.0012691 Eh/α   predicted    -0.1284943E-04 ( -59.56%)
   displ. norm   :     0.1524043 α      lambda       -0.2668964E-04
   maximum displ.:     0.0881570 α      in ANC's #1, #4, #7, ...

........................................................................
.............................. CYCLE   37 ..............................
........................................................................

 iter      E             dE          RMSdq      gap      omega  full diag
   1    -99.5894251 -0.995894E+02  0.280E-02    0.07       0.0  T
   2    -99.5853286  0.409655E-02  0.164E-01    0.10       1.0  T
   3    -99.5892350 -0.390635E-02  0.394E-02    0.06       1.0  T
   4    -99.5894051 -0.170140E-03  0.190E-02    0.07       1.0  T
   5    -99.5894356 -0.304790E-04  0.507E-03    0.07       2.5  T
   6    -99.5894386 -0.298148E-05  0.195E-03    0.07       6.4  T
   7    -99.5894389 -0.327964E-06  0.118E-03    0.07      10.6  T
   8    -99.5894390 -0.167109E-06  0.448E-04    0.07      27.9  T
   9    -99.5894391 -0.155671E-07  0.216E-04    0.07      57.9  T
     SCC iter.                  ...        0 min,  0.174 sec
     gradient                   ...        0 min,  0.011 sec
 * total energy  :   -97.9558273 Eh     change       -0.3356512E-04 Eh
   gradient norm :     0.0015633 Eh/α   predicted    -0.1348316E-04 ( -59.83%)
   displ. norm   :     0.1616605 α      lambda       -0.2571816E-04
   maximum displ.:     0.0904692 α      in ANC's #1, #4, #9, ...

........................................................................
.............................. CYCLE   38 ..............................
........................................................................

 iter      E             dE          RMSdq      gap      omega  full diag
   1    -99.5892791 -0.995893E+02  0.323E-02    0.06       0.0  T
   2    -99.5764321  0.128471E-01  0.290E-01    0.13       1.0  T
   3    -99.5893312 -0.128991E-01  0.169E-02    0.07       1.0  T
   4    -99.5893225  0.868124E-05  0.157E-02    0.07       1.0  T
   5    -99.5893409 -0.183421E-04  0.298E-03    0.07       4.2  T
   6    -99.5893416 -0.731201E-06  0.134E-03    0.07       9.3  T
   7    -99.5893417 -0.120389E-06  0.509E-04    0.07      24.5  T
   8    -99.5893417 -0.591783E-09  0.345E-04    0.07      36.2  T
     SCC iter.                  ...        0 min,  0.128 sec
     gradient                   ...        0 min,  0.010 sec
 * total energy  :   -97.9558596 Eh     change       -0.3235273E-04 Eh
   gradient norm :     0.0013694 Eh/α   predicted    -0.1300958E-04 ( -59.79%)
   displ. norm   :     0.1449386 α      lambda       -0.2280002E-04
   maximum displ.:     0.0918821 α      in ANC's #1, #4, #9, ...

........................................................................
.............................. CYCLE   39 ..............................
........................................................................

 iter      E             dE          RMSdq      gap      omega  full diag
   1    -99.5891183 -0.995891E+02  0.311E-02    0.06       0.0  T
   2    -99.5753847  0.137336E-01  0.301E-01    0.13       1.0  T
   3    -99.5891864 -0.138017E-01  0.136E-02    0.07       1.0  T
   4    -99.5891719  0.144790E-04  0.137E-02    0.07       1.0  T
   5    -99.5891852 -0.133080E-04  0.440E-03    0.07       2.8  T
   6    -99.5891877 -0.247748E-05  0.837E-04    0.07      14.9  T
   7    -99.5891877  0.179919E-07  0.719E-04    0.07      17.4  T
   8    -99.5891875  0.154138E-06  0.120E-03    0.07      10.4  T
   9    -99.5891877 -0.189331E-06  0.421E-04    0.07      29.7  T
     SCC iter.                  ...        0 min,  0.136 sec
     gradient                   ...        0 min,  0.011 sec
 * total energy  :   -97.9558873 Eh     change       -0.2773091E-04 Eh
   gradient norm :     0.0008989 Eh/α   predicted    -0.1150924E-04 ( -58.50%)
   displ. norm   :     0.1047187 α      lambda       -0.1543865E-04
   maximum displ.:     0.0749933 α      in ANC's #1, #4, #2, ...

........................................................................
.............................. CYCLE   40 ..............................
........................................................................

 iter      E             dE          RMSdq      gap      omega  full diag
   1    -99.5894656 -0.995895E+02  0.178E-02    0.07       0.0  T
   2    -99.5892581  0.207548E-03  0.385E-02    0.06       1.0  T
   3    -99.5888530  0.405092E-03  0.635E-02    0.08       1.0  T
   4    -99.5894458 -0.592841E-03  0.131E-02    0.07       1.0  T
   5    -99.5894659 -0.201287E-04  0.188E-03    0.07       6.6  T
   6    -99.5894661 -0.144092E-06  0.148E-03    0.07       8.5  T
   7    -99.5894664 -0.301109E-06  0.496E-04    0.07      25.2  T
   8    -99.5894663  0.918256E-07  0.870E-04    0.07      14.4  T
     SCC iter.                  ...        0 min,  0.121 sec
     gradient                   ...        0 min,  0.010 sec
 * total energy  :   -97.9559065 Eh     change       -0.1912139E-04 Eh
   gradient norm :     0.0004875 Eh/α   predicted    -0.7759118E-05 ( -59.42%)
   displ. norm   :     0.0703892 α      lambda       -0.1147863E-04
   maximum displ.:     0.0616342 α      in ANC's #1, #4, #2, ...

........................................................................
.............................. CYCLE   41 ..............................
........................................................................

 iter      E             dE          RMSdq      gap      omega  full diag
   1    -99.5895105 -0.995895E+02  0.148E-02    0.07       0.0  T
   2    -99.5860061  0.350444E-02  0.151E-01    0.09       1.0  T
   3    -99.5895188 -0.351268E-02  0.850E-03    0.07       1.5  T
   4    -99.5895118  0.693480E-05  0.107E-02    0.07       1.2  T
   5    -99.5895214 -0.953325E-05  0.144E-03    0.07       8.7  T
   6    -99.5895216 -0.234436E-06  0.511E-04    0.07      24.5  T
   7    -99.5895216 -0.250869E-07  0.141E-04    0.07      88.9  T
     SCC iter.                  ...        0 min,  0.145 sec
     gradient                   ...        0 min,  0.010 sec
 * total energy  :   -97.9559221 Eh     change       -0.1561968E-04 Eh
   gradient norm :     0.0006949 Eh/α   predicted    -0.5756437E-05 ( -63.15%)
   displ. norm   :     0.0695413 α      lambda       -0.1171613E-04
   maximum displ.:     0.0568734 α      in ANC's #1, #6, #5, ...

........................................................................
.............................. CYCLE   42 ..............................
........................................................................

 iter      E             dE          RMSdq      gap      omega  full diag
   1    -99.5896771 -0.995897E+02  0.171E-02    0.07       0.0  T
   2    -99.5722624  0.174147E-01  0.335E-01    0.03       1.0  T
   3    -99.5896945 -0.174320E-01  0.986E-03    0.07       1.3  T
   4    -99.5896979 -0.342116E-05  0.680E-03    0.07       1.8  T
   5    -99.5897031 -0.517655E-05  0.269E-03    0.07       4.7  T
   6    -99.5897035 -0.450411E-06  0.144E-03    0.07       8.7  T
   7    -99.5897038 -0.277711E-06  0.184E-04    0.07      67.9  T
   8    -99.5897038  0.115474E-07  0.325E-04    0.07      38.4  T
     SCC iter.                  ...        0 min,  0.122 sec
     gradient                   ...        0 min,  0.014 sec
 * total energy  :   -97.9559383 Eh     change       -0.1625519E-04 Eh
   gradient norm :     0.0007391 Eh/α   predicted    -0.5871385E-05 ( -63.88%)
   displ. norm   :     0.0960807 α      lambda       -0.1496585E-04
   maximum displ.:     0.0711788 α      in ANC's #1, #6, #9, ...
 * RMSD in coord.:     0.3749355 α      energy gain  -0.1386146E-02 Eh

generating ANC from model Hessian ...
Using Lindh-Hessian (1995)
 Shifting diagonal of input Hessian by    9.8731734649001503E-003
 Lowest  eigenvalues of input Hessian
    0.000000    0.000000    0.000000    0.000000    0.000000    0.000000
    0.010000    0.010017    0.010335    0.010629    0.011149    0.011471
    0.012133    0.012640    0.013122    0.013494    0.014208    0.015624
 Highest eigenvalues
    2.081620    2.110343    2.119439    2.210744    2.265286    2.450542


........................................................................
.............................. CYCLE   43 ..............................
........................................................................

 iter      E             dE          RMSdq      gap      omega  full diag
   1    -99.5896840 -0.995897E+02  0.132E-02    0.07       0.0  T
   2    -99.5896390  0.449710E-04  0.186E-02    0.07       1.0  T
   3    -99.5887984  0.840613E-03  0.762E-02    0.08       1.0  T
   4    -99.5896823 -0.883912E-03  0.420E-03    0.07       3.0  T
   5    -99.5896838 -0.151024E-05  0.159E-03    0.07       7.9  T
   6    -99.5896840 -0.177511E-06  0.107E-03    0.07      11.6  T
   7    -99.5896841 -0.158316E-06  0.265E-04    0.07      47.1  T
   8    -99.5896841  0.990087E-08  0.341E-04    0.07      36.7  T
     SCC iter.                  ...        0 min,  0.118 sec
     gradient                   ...        0 min,  0.010 sec
 * total energy  :   -97.9559588 Eh     change       -0.2044115E-04 Eh
   gradient norm :     0.0008094 Eh/α   predicted     0.0000000E+00 (-100.00%)
   displ. norm   :     0.0375393 α      lambda       -0.7574317E-05
   maximum displ.:     0.0344708 α      in ANC's #1, #13, #2, ...

........................................................................
.............................. CYCLE   44 ..............................
........................................................................

 iter      E             dE          RMSdq      gap      omega  full diag
   1    -99.5896635 -0.995897E+02  0.690E-03    0.07       0.0  T
   2    -99.5892690  0.394522E-03  0.508E-02    0.08       1.0  T
   3    -99.5896518 -0.382807E-03  0.994E-03    0.07       1.3  T
   4    -99.5896624 -0.105464E-04  0.534E-03    0.07       2.3  T
   5    -99.5896646 -0.223910E-05  0.921E-04    0.07      13.6  T
   6    -99.5896647 -0.107137E-06  0.383E-04    0.07      32.6  T
   7    -99.5896647 -0.216138E-07  0.115E-04    0.07     108.4  T
     SCC iter.                  ...        0 min,  0.114 sec
     gradient                   ...        0 min,  0.011 sec
 * total energy  :   -97.9559693 Eh     change       -0.1051756E-04 Eh
   gradient norm :     0.0004278 Eh/α   predicted    -0.3803590E-05 ( -63.84%)
   displ. norm   :     0.0568666 α      lambda       -0.9576273E-05
   maximum displ.:     0.0491469 α      in ANC's #1, #2, #7, ...

........................................................................
.............................. CYCLE   45 ..............................
........................................................................

 iter      E             dE          RMSdq      gap      omega  full diag
   1    -99.5895863 -0.995896E+02  0.108E-02    0.07       0.0  T
   2    -99.5880883  0.149794E-02  0.986E-02    0.05       1.0  T
   3    -99.5895772 -0.148891E-02  0.105E-02    0.07       1.2  T
   4    -99.5895850 -0.776360E-05  0.715E-03    0.07       1.7  T
   5    -99.5895892 -0.415729E-05  0.120E-03    0.07      10.4  T
   6    -99.5895893 -0.134916E-06  0.544E-04    0.07      23.0  T
   7    -99.5895893 -0.315830E-07  0.153E-04    0.07      81.7  T
     SCC iter.                  ...        0 min,  0.136 sec
     gradient                   ...        0 min,  0.010 sec
 * total energy  :   -97.9559826 Eh     change       -0.1324767E-04 Eh
   gradient norm :     0.0003461 Eh/α   predicted    -0.4887206E-05 ( -63.11%)
   displ. norm   :     0.0650486 α      lambda       -0.9360127E-05
   maximum displ.:     0.0558061 α      in ANC's #1, #2, #7, ...

........................................................................
.............................. CYCLE   46 ..............................
........................................................................

 iter      E             dE          RMSdq      gap      omega  full diag
   1    -99.5895348 -0.995895E+02  0.967E-03    0.07       0.0  T
   2    -99.5894286  0.106211E-03  0.268E-02    0.06       1.0  T
   3    -99.5893959  0.326508E-04  0.305E-02    0.07       1.0  T
   4    -99.5895333 -0.137372E-03  0.464E-03    0.07       2.7  T
   5    -99.5895350 -0.167318E-05  0.110E-03    0.07      11.4  T
   6    -99.5895350 -0.781736E-07  0.617E-04    0.07      20.2  T
   7    -99.5895351 -0.518378E-07  0.157E-04    0.07      79.5  T
     SCC iter.                  ...        0 min,  0.120 sec
     gradient                   ...        0 min,  0.013 sec
 * total energy  :   -97.9559956 Eh     change       -0.1302424E-04 Eh
   gradient norm :     0.0005024 Eh/α   predicted    -0.4690284E-05 ( -63.99%)
   displ. norm   :     0.0633949 α      lambda       -0.8483599E-05
   maximum displ.:     0.0539241 α      in ANC's #1, #2, #7, ...

........................................................................
.............................. CYCLE   47 ..............................
........................................................................

 iter      E             dE          RMSdq      gap      omega  full diag
   1    -99.5895243 -0.995895E+02  0.774E-03    0.07       0.0  T
   2    -99.5894840  0.403192E-04  0.168E-02    0.07       1.0  T
   3    -99.5893871  0.968780E-04  0.301E-02    0.07       1.0  T
   4    -99.5895230 -0.135865E-03  0.403E-03    0.07       3.1  T
   5    -99.5895244 -0.142125E-05  0.751E-04    0.07      16.6  T
   6    -99.5895244 -0.182844E-07  0.490E-04    0.07      25.5  T
   7    -99.5895244 -0.320304E-07  0.138E-04    0.07      90.4  T
     SCC iter.                  ...        0 min,  0.209 sec
     gradient                   ...        0 min,  0.011 sec
 * total energy  :   -97.9560078 Eh     change       -0.1225558E-04 Eh
   gradient norm :     0.0005640 Eh/α   predicted    -0.4251034E-05 ( -65.31%)
   displ. norm   :     0.0648484 α      lambda       -0.8744188E-05
   maximum displ.:     0.0539460 α      in ANC's #1, #2, #3, ...

........................................................................
.............................. CYCLE   48 ..............................
........................................................................

 iter      E             dE          RMSdq      gap      omega  full diag
   1    -99.5895550 -0.995896E+02  0.672E-03    0.07       0.0  T
   2    -99.5894807  0.742367E-04  0.223E-02    0.06       1.0  T
   3    -99.5895114 -0.306906E-04  0.172E-02    0.07       1.0  T
   4    -99.5895543 -0.429118E-04  0.240E-03    0.07       5.2  T
   5    -99.5895551 -0.801296E-06  0.389E-04    0.07      32.1  T
   6    -99.5895551  0.261678E-07  0.530E-04    0.07      23.6  T
     SCC iter.                  ...        0 min,  0.103 sec
     gradient                   ...        0 min,  0.020 sec
 * total energy  :   -97.9560206 Eh     change       -0.1279721E-04 Eh
   gradient norm :     0.0005038 Eh/α   predicted    -0.4381790E-05 ( -65.76%)
   displ. norm   :     0.0755136 α      lambda       -0.1027877E-04
   maximum displ.:     0.0610358 α      in ANC's #1, #2, #3, ...

........................................................................
[...]
 molecular gradient             ...        0 min,  0.012 sec ( 14.096%)
 printout                       ...        0 min,  0.006 sec (  6.769%)

         :::::::::::::::::::::::::::::::::::::::::::::::::::::
         ::                     SUMMARY                     ::
         :::::::::::::::::::::::::::::::::::::::::::::::::::::
         :: total energy             -97.956308582434 Eh    ::
         :: gradient norm              0.000165219621 Eh/a0 ::
         :: HOMO-LUMO gap              0.068088253920 eV    ::
         ::.................................................::
         :: SCC energy               -99.589657006804 Eh    ::
         :: -> isotropic ES            0.095502376284 Eh    ::
         :: -> anisotropic ES         -0.004750964261 Eh    ::
         :: -> anisotropic XC          0.046439770482 Eh    ::
         :: -> dispersion             -0.087954458005 Eh    ::
         :: repulsion energy           1.631782995769 Eh    ::
         :: add. restraining           0.000000000000 Eh    ::
         :: total charge               1.000000000000 e     ::
         :::::::::::::::::::::::::::::::::::::::::::::::::::::

           -------------------------------------------------
          |                Property Printout                |
           -------------------------------------------------

    * Orbital Energies and Occupations

         #    Occupation            Energy/Eh            Energy/eV
      -------------------------------------------------------------
         1        2.0000           -0.8631693             -23.4880
       ...           ...                  ...                  ...
        78        2.0000           -0.5353714             -14.5682
        79        2.0000           -0.5322363             -14.4829
        80        2.0000           -0.5271693             -14.3450
        81        2.0000           -0.5244308             -14.2705
        82        2.0000           -0.5233888             -14.2421
        83        2.0000           -0.5175989             -14.0846
        84        2.0000           -0.5148809             -14.0106
        85        2.0000           -0.5097078             -13.8699
        86        2.0000           -0.5072582             -13.8032
        87        2.0000           -0.4921589             -13.3923
        88        2.0000           -0.4904918             -13.3470
        89        1.9929           -0.4738337             -12.8937
        90        1.5809           -0.4697398             -12.7823 (HOMO)
        91        0.4262           -0.4672376             -12.7142 (LUMO)
        92                         -0.3926228             -10.6838
        93                         -0.3708549             -10.0915
        94                         -0.3678291             -10.0091
        95                         -0.3476502              -9.4600
        96                         -0.3385482              -9.2124
        97                         -0.3116240              -8.4797
        98                         -0.2998267              -8.1587
        99                         -0.2862314              -7.7888
       100                         -0.2824647              -7.6863
       101                         -0.2548999              -6.9362
       ...                                ...                  ...
       175                          0.6176113              16.8061
      -------------------------------------------------------------
                  HL-Gap            0.0025022 Eh            0.0681 eV
             Fermi-level           -0.4684786 Eh          -12.7480 eV

     #   Z          covCN         q      C6AA      α(0)
     1   6 C        2.980     0.009    27.818     8.652
     2   6 C        2.979     0.014    27.704     8.634
     3   6 C        2.980     0.017    27.633     8.623
     4   6 C        2.988     0.020    27.551     8.610
     5   6 C        2.986     0.021    27.523     8.606
     6   6 C        2.986     0.023    27.473     8.598
     7   6 C        2.981     0.019    27.580     8.615
     8   6 C        2.981     0.013    27.727     8.637
     9   6 C        2.987     0.020    27.553     8.610
    10   6 C        2.987     0.018    27.607     8.619
    11   6 C        2.917    -0.023    28.586     8.768
    12   6 C        2.917    -0.026    28.640     8.776
    13   6 C        2.917    -0.026    28.654     8.778
    14   6 C        2.916    -0.030    28.752     8.793
    15   6 C        2.916    -0.029    28.718     8.788
    16   6 C        2.915    -0.029    28.734     8.790
    17   6 C        2.915    -0.031    28.770     8.796
    18   6 C        2.915    -0.022    28.560     8.763
    19   6 C        2.918    -0.027    28.684     8.783
    20   6 C        2.919    -0.026    28.659     8.779
    21   6 C        2.926    -0.031    28.784     8.798
    22   6 C        2.922    -0.023    28.586     8.768
    23   6 C        2.919    -0.032    28.791     8.799
    24   6 C        2.917    -0.024    28.605     8.770
    25   6 C        2.969     0.012    27.740     8.639
    26   6 C        2.915    -0.021    28.538     8.760
    27   1 H        0.926     0.060     2.199     2.319
    28   1 H        0.926     0.058     2.217     2.329
    29   1 H        0.926     0.059     2.215     2.327
    30   1 H        0.926     0.057     2.236     2.338
    31   1 H        0.926     0.057     2.233     2.337
    32   1 H        0.926     0.057     2.240     2.340
    33   1 H        0.926     0.056     2.251     2.346
    34   1 H        0.926     0.057     2.237     2.339
    35   1 H        0.926     0.052     2.295     2.369
    36   1 H        0.926     0.044     2.402     2.423
    37   1 H        0.926     0.074     2.037     2.232
    38   1 H        0.926     0.055     2.257     2.349
    39   1 H        0.926     0.064     2.150     2.293
    40   1 H        0.926     0.046     2.374     2.410
    41   6 C        2.893     0.038    27.149     8.543
    42   1 H        0.926     0.051     2.301     2.372
    43   6 C        3.885     0.041    19.838     6.332
    44   6 C        3.884     0.041    19.840     6.333
    45   6 C        3.761    -0.122    22.877     6.818
    46   6 C        3.758    -0.124    22.930     6.827
    47   6 C        3.761    -0.122    22.880     6.819
    48   6 C        3.758    -0.124    22.922     6.826
    49   7 N        2.807     0.257    17.103     6.142
    50   8 O        0.927    -0.338    20.456     6.066
    51   7 N        2.807     0.259    17.076     6.137
    52   8 O        0.927    -0.333    20.360     6.051
    53   1 H        0.925     0.068     2.112     2.273
    54   1 H        0.925     0.073     2.051     2.240
    55   1 H        0.925     0.088     1.901     2.156
    56   1 H        0.925     0.054     2.267     2.355
    57   1 H        0.925     0.081     1.970     2.195
    58   1 H        0.925     0.083     1.944     2.180
    59   1 H        0.925     0.068     2.109     2.271
    60   1 H        0.925     0.073     2.051     2.239
    61   1 H        0.925     0.089     1.889     2.150
    62   1 H        0.925     0.054     2.271     2.357
    63   1 H        0.925     0.082     1.956     2.187
    64   1 H        0.925     0.083     1.946     2.181

 Mol. C6AA /au·bohr⁶  :      51972.517157
 Mol. C8AA /au·bohr⁸  :    1293548.955326
 Mol. α(0) /au        :        361.351978


Wiberg/Mayer (AO) data.
largest (>0.10) Wiberg bond orders for each atom

 ---------------------------------------------------------------------------
     #   Z sym  total        # sym  WBO       # sym  WBO       # sym  WBO
 ---------------------------------------------------------------------------
     1   6 C    3.975 --     4 C    1.281     3 C    1.236     2 C    1.206
     2   6 C    3.930 --     5 C    1.295     1 C    1.206     7 C    1.191
     3   6 C    3.899 --     6 C    1.269     1 C    1.236     8 C    1.172
     4   6 C    3.965 --     1 C    1.281    11 C    1.268    12 C    1.233
     5   6 C    3.965 --     2 C    1.295    13 C    1.270    15 C    1.217
     6   6 C    3.938 --     3 C    1.269    14 C    1.252    16 C    1.248
     7   6 C    3.984 --    19 C    1.302     9 C    1.262     2 C    1.191
     8   6 C    3.983 --    20 C    1.329    10 C    1.268     3 C    1.172
     9   6 C    3.978 --    21 C    1.335     7 C    1.262    17 C    1.207
    10   6 C    3.983 --    22 C    1.313     8 C    1.268    18 C    1.221
    11   6 C    3.929 --    13 C    1.544     4 C    1.268    27 H    0.964
    12   6 C    3.934 --    14 C    1.587     4 C    1.233    28 H    0.964
    13   6 C    3.937 --    11 C    1.544     5 C    1.270    29 H    0.965
    14   6 C    3.971 --    12 C    1.587     6 C    1.252    30 H    0.965
    15   6 C    3.984 --    17 C    1.634     5 C    1.217    31 H    0.964
    16   6 C    3.964 --    18 C    1.585     6 C    1.248    32 H    0.964
    17   6 C    3.967 --    15 C    1.634     9 C    1.207    33 H    0.965
    18   6 C    3.909 --    16 C    1.585    10 C    1.221    34 H    0.965
    19   6 C    3.976 --    23 C    1.540     7 C    1.302    35 H    0.959
    20   6 C    3.940 --    24 C    1.482     8 C    1.329    36 H    0.961
    21   6 C    3.972 --    25 C    1.423     9 C    1.335    37 H    0.959
    22   6 C    3.930 --    26 C    1.489    10 C    1.313    38 H    0.966
    23   6 C    3.980 --    19 C    1.540    25 C    1.282    39 H    0.964
    24   6 C    3.963 --    20 C    1.482    26 C    1.374    40 H    0.969
    25   6 C    3.957 --    21 C    1.423    23 C    1.282    41 C    1.081
    26   6 C    3.964 --    22 C    1.489    24 C    1.374    42 H    0.969
    27   1 H    0.994 --    11 C    0.964
    28   1 H    0.994 --    12 C    0.964
    29   1 H    0.995 --    13 C    0.965
    30   1 H    0.996 --    14 C    0.965
    31   1 H    0.996 --    15 C    0.964
    32   1 H    0.996 --    16 C    0.964
    33   1 H    0.995 --    17 C    0.965
    34   1 H    0.995 --    18 C    0.965
    35   1 H    0.996 --    19 C    0.959
    36   1 H    0.996 --    20 C    0.961
    37   1 H    0.994 --    21 C    0.959
    38   1 H    0.996 --    22 C    0.966
    39   1 H    0.995 --    23 C    0.964
    40   1 H    0.997 --    24 C    0.969
    41   6 C    3.934 --    51 N    1.237    49 N    1.235    25 C    1.081
                            52 O    0.147    50 O    0.144
    42   1 H    0.996 --    26 C    0.969
    43   6 C    3.948 --    48 C    0.994    45 C    0.965    44 C    0.954
                            49 N    0.905
    44   6 C    3.947 --    46 C    0.993    47 C    0.966    43 C    0.954
                            51 N    0.904
    45   6 C    3.965 --    56 H    0.982    57 H    0.977    58 H    0.973
                            43 C    0.965
    46   6 C    3.974 --    44 C    0.993    59 H    0.979    60 H    0.977
                            61 H    0.974
    47   6 C    3.966 --    62 H    0.983    63 H    0.977    64 H    0.974
                            44 C    0.966
    48   6 C    3.975 --    43 C    0.994    53 H    0.979    54 H    0.977
                            55 H    0.975
    49   7 N    3.663 --    50 O    1.379    41 C    1.235    43 C    0.905
    50   8 O    1.769 --    49 N    1.379    41 C    0.144
    51   7 N    3.670 --    52 O    1.384    41 C    1.237    44 C    0.904
    52   8 O    1.779 --    51 N    1.384    41 C    0.147
    53   1 H    0.995 --    48 C    0.979
    54   1 H    0.994 --    48 C    0.977
    55   1 H    0.992 --    48 C    0.975
    56   1 H    0.997 --    45 C    0.982
    57   1 H    0.993 --    45 C    0.977
    58   1 H    0.991 --    45 C    0.973
    59   1 H    0.995 --    46 C    0.979
    60   1 H    0.994 --    46 C    0.977
    61   1 H    0.991 --    46 C    0.974
    62   1 H    0.997 --    47 C    0.983
    63   1 H    0.993 --    47 C    0.977
    64   1 H    0.991 --    47 C    0.974
 ---------------------------------------------------------------------------

Topologies differ in bond orders
Writing corrected topology to xtbtopo.mol

molecular dipole:
                 x           y           z       tot (Debye)
 q only:       -0.367      -2.562       0.943
   full:       -0.305      -2.535       0.961       6.934
molecular quadrupole (traceless):
                xx          xy          yy          xz          yz          zz
 q only:       53.825      38.920      -9.852      13.561      -1.208     -43.973
  q+dip:       53.361      39.953      -5.607      21.677      -2.847     -47.754
   full:       52.927      39.568     -10.922      14.914      -1.415     -42.005

           -------------------------------------------------
          |                Geometry Summary                 |
           -------------------------------------------------

      molecular mass/u    :      483.5809012
   center of mass at/Å    :        0.9156469      -0.7999205       0.4806901
  moments of inertia/u·Å² :        0.2506371E+04   0.7248505E+04   0.8661739E+04
rotational constants/cm⁻¹ :        0.6725911E-02   0.2325670E-02   0.1946218E-02

 * 67 selected distances

     #   Z          #   Z                                           value/Å
     1   6 C        2   6 C                                       1.4338931
     1   6 C        3   6 C                                       1.4273644
     1   6 C        4   6 C                                       1.4162025
     2   6 C        5   6 C                                       1.4131894
     3   6 C        6   6 C                                       1.4175503
     7   6 C        9   6 C                                       1.4182568
     8   6 C       10   6 C                                       1.4171284
     4   6 C       11   6 C                                       1.4115832
     4   6 C       12   6 C                                       1.4180874
     5   6 C       13   6 C                                       1.4112615
    11   6 C       13   6 C                                       1.3649887
     6   6 C       14   6 C                                       1.4145578
    12   6 C       14   6 C                                       1.3596213
     5   6 C       15   6 C                                       1.4222593
     6   6 C       16   6 C                                       1.4163266
     9   6 C       17   6 C                                       1.4237205
    15   6 C       17   6 C                                       1.3537730
    10   6 C       18   6 C                                       1.4211997
    16   6 C       18   6 C                                       1.3598211
     7   6 C       19   6 C                                       1.4076786
     8   6 C       20   6 C                                       1.4033040
     9   6 C       21   6 C                                       1.3993600
    10   6 C       22   6 C                                       1.4041989
    19   6 C       23   6 C                                       1.3671651
    20   6 C       24   6 C                                       1.3764227
    21   6 C       25   6 C                                       1.3849067
    23   6 C       25   6 C                                       1.4104596
    22   6 C       26   6 C                                       1.3747441
    24   6 C       26   6 C                                       1.3938012
    11   6 C       27   1 H                                       1.0794376
    12   6 C       28   1 H                                       1.0792594
    13   6 C       29   1 H                                       1.0792830
    14   6 C       30   1 H                                       1.0791208
    15   6 C       31   1 H                                       1.0793365
    16   6 C       32   1 H                                       1.0795491
    17   6 C       33   1 H                                       1.0790583
    18   6 C       34   1 H                                       1.0795955
    19   6 C       35   1 H                                       1.0781838
    20   6 C       36   1 H                                       1.0793055
    21   6 C       37   1 H                                       1.0786192
    22   6 C       38   1 H                                       1.0797508
    23   6 C       39   1 H                                       1.0776070 (min)
    24   6 C       40   1 H                                       1.0794395
    26   6 C       42   1 H                                       1.0789673
    43   6 C       44   6 C                                       1.5423469 (max)
    43   6 C       45   6 C                                       1.5346760
    44   6 C       46   6 C                                       1.5223558
    44   6 C       47   6 C                                       1.5342127
    43   6 C       48   6 C                                       1.5218325
    41   6 C       49   7 N                                       1.3468232
    43   6 C       49   7 N                                       1.4782869
    49   7 N       50   8 O                                       1.2328700
    41   6 C       51   7 N                                       1.3465400
    44   6 C       51   7 N                                       1.4785869
    51   7 N       52   8 O                                       1.2314067
    48   6 C       53   1 H                                       1.0856043
    48   6 C       54   1 H                                       1.0857659
    48   6 C       55   1 H                                       1.0872205
    45   6 C       56   1 H                                       1.0880882
    45   6 C       57   1 H                                       1.0882303
    45   6 C       58   1 H                                       1.0855915
    46   6 C       59   1 H                                       1.0856768
    46   6 C       60   1 H                                       1.0857366
    46   6 C       61   1 H                                       1.0872625
    47   6 C       62   1 H                                       1.0880478
    47   6 C       63   1 H                                       1.0882318
    47   6 C       64   1 H                                       1.0855941

 * 4 distinct bonds (by element types)

   Z      Z             #   av. dist./Å        max./Å        min./Å
   1 H    6 C          27     1.0825024     1.0882318     1.0776070
   6 C    6 C          34     1.4205368     1.5423469     1.3537730
   6 C    7 N           4     1.4125593     1.4785869     1.3465400
   7 N    8 O           2     1.2321384     1.2328700     1.2314067


optimized geometry written to: xtbopt.mol


           -------------------------------------------------
          | TOTAL ENERGY              -97.956308582434 Eh   |
          | GRADIENT NORM               0.000165219621 Eh/α |
          | HOMO-LUMO GAP               0.068088253920 eV   |
           -------------------------------------------------
########################################################################
[WARNING] Runtime exception occurred
-1- restart_readRestart: Number of electron missmatch in restart file.
########################################################################

------------------------------------------------------------------------
 * finished run on 2024/11/14 at 10:38:08.034     
------------------------------------------------------------------------
 total:
 * wall-time:     0 d,  0 h,  0 min, 16.628 sec
 *  cpu-time:     0 d,  0 h,  0 min, 51.819 sec
 * ratio c/w:     3.116 speedup
 SCF:
 * wall-time:     0 d,  0 h,  0 min,  0.688 sec
 *  cpu-time:     0 d,  0 h,  0 min,  2.677 sec
Note: The following floating-point exceptions are signalling: IEEE_UNDERFLOW_FLAG
normal termination of xtb
 * ratio c/w:     3.892 speedup
 ANC optimizer:
 * wall-time:     0 d,  0 h,  0 min, 15.927 sec
 *  cpu-time:     0 d,  0 h,  0 min, 49.127 sec
 * ratio c/w:     3.085 speedup

