      -----------------------------------------------------------      
     |                   =====================                   |     
     |                           x T B                           |     
     |                   =====================                   |     
     |                         S. Grimme                         |     
     |          Mulliken Center for Theoretical Chemistry        |     
     |                    University of Bonn                     |     
      -----------------------------------------------------------      

   * xtb version 6.6.1 (8d0f1dd) compiled by 'runner@Mac-1690902418499.local' on 2023-08-01

   xtb is free software: you can redistribute it and/or modify it under
   the terms of the GNU Lesser General Public License as published by
   the Free Software Foundation, either version 3 of the License, or
   (at your option) any later version.
   
   xtb is distributed in the hope that it will be useful,
   but WITHOUT ANY WARRANTY; without even the implied warranty of
   MERCHANTABILITY or FITNESS FOR A PARTICULAR PURPOSE.  See the
   GNU Lesser General Public License for more details.
   
   Cite this work as:
   * C. Bannwarth, E. Caldeweyher, S. Ehlert, A. Hansen, P. Pracht,
     J. Seibert, S. Spicher, S. Grimme, WIREs Comput. Mol. Sci., 2020, 11,
     e01493. DOI: 10.1002/wcms.1493
   
   for GFN2-xTB:
   * C. Bannwarth, S. Ehlert and S. Grimme., J. Chem. Theory Comput., 2019,
     15, 1652-1671. DOI: 10.1021/acs.jctc.8b01176
   for GFN1-xTB:
   * S. Grimme, C. Bannwarth, P. Shushkov, J. Chem. Theory Comput., 2017,
     13, 1989-2009. DOI: 10.1021/acs.jctc.7b00118
   for GFN0-xTB:
   * P. Pracht, E. Caldeweyher, S. Ehlert, S. Grimme, ChemRxiv, 2019, preprint.
     DOI: 10.26434/chemrxiv.8326202.v1
   for GFN-FF:
   * S. Spicher and S. Grimme, Angew. Chem. Int. Ed., 2020, 59, 15665-15673.
     DOI: 10.1002/anie.202004239
   
   for ALPB and GBSA implicit solvation:
   * S. Ehlert, M. Stahn, S. Spicher, S. Grimme, J. Chem. Theory Comput.,
     2021, 17, 4250-4261. DOI: 10.1021/acs.jctc.1c00471
   
   for DFT-D4:
   * E. Caldeweyher, C. Bannwarth and S. Grimme, J. Chem. Phys., 2017,
     147, 034112. DOI: 10.1063/1.4993215
   * E. Caldeweyher, S. Ehlert, A. Hansen, H. Neugebauer, S. Spicher,
     C. Bannwarth and S. Grimme, J. Chem. Phys., 2019, 150, 154122.
     DOI: 10.1063/1.5090222
   * E. Caldeweyher, J.-M. Mewes, S. Ehlert and S. Grimme, Phys. Chem. Chem. Phys.
     2020, 22, 8499-8512. DOI: 10.1039/D0CP00502A
   
   for sTDA-xTB:
   * S. Grimme and C. Bannwarth, J. Chem. Phys., 2016, 145, 054103.
     DOI: 10.1063/1.4959605
   
   in the mass-spec context:
   * V. Asgeirsson, C. Bauer and S. Grimme, Chem. Sci., 2017, 8, 4879.
     DOI: 10.1039/c7sc00601b
   * J. Koopman and S. Grimme, ACS Omega 2019, 4, 12, 15120-15133.
     DOI: 10.1021/acsomega.9b02011
   
   for metadynamics refer to:
   * S. Grimme, J. Chem. Theory Comput., 2019, 155, 2847-2862
     DOI: 10.1021/acs.jctc.9b00143
   
   for SPH calculations refer to:
   * S. Spicher and S. Grimme, J. Chem. Theory Comput., 2021, 17, 1701-1714
     DOI: 10.1021/acs.jctc.0c01306
   
   with help from (in alphabetical order)
   P. Atkinson, C. Bannwarth, F. Bohle, G. Brandenburg, E. Caldeweyher
   M. Checinski, S. Dohm, S. Ehlert, S. Ehrlich, I. Gerasimov, C. Hölzer
   A. Katbashev, J. Koopman, C. Lavigne, S. Lehtola, F. März, M. Müller,
   F. Musil, H. Neugebauer, J. Pisarek, C. Plett, P. Pracht, F. Pultar,
   J. Seibert, P. Shushkov, S. Spicher, M. Stahn, M. Steiner, T. Strunk,
   J. Stückrath, T. Rose, and J. Unsleber
   
 * started run on 2024/11/14 at 10:51:54.407     

           -------------------------------------------------
          |                Calculation Setup                |
           -------------------------------------------------

          program call               : xtb opt_radical_Nitro2.mol --gfn2 --sp --chrg 1 --uhf 0
          coordinate file            : opt_radical_Nitro2.mol
          omp threads                :                     8

   ID    Z sym.   atoms
    1    6 C      1-26, 41, 43-48
    2    1 H      27-40, 42, 53-64
    3    7 N      49, 51
    4    8 O      50, 52

           -------------------------------------------------
          |                 G F N 2 - x T B                 |
           -------------------------------------------------

        Reference                      10.1021/acs.jctc.8b01176
      * Hamiltonian:
        H0-scaling (s, p, d)           1.850000    2.230000    2.230000
        zeta-weighting                 0.500000
      * Dispersion:
        s8                             2.700000
        a1                             0.520000
        a2                             5.000000
        s9                             5.000000
      * Repulsion:
        kExp                           1.500000    1.000000
        rExp                           1.000000
      * Coulomb:
        alpha                          2.000000
        third order                    shell-resolved
        anisotropic                    true
        a3                             3.000000
        a5                             4.000000
        cn-shift                       1.200000
        cn-exp                         4.000000
        max-rad                        5.000000

q/qsh data taken from xtbrestart
CAMM data taken from xtbrestart

          ...................................................
          :                      SETUP                      :
          :.................................................:
          :  # basis functions                 175          :
          :  # atomic orbitals                 175          :
          :  # shells                          101          :
          :  # electrons                       180          :
          :  max. iterations                   250          :
          :  Hamiltonian                  GFN2-xTB          :
          :  restarted?                       true          :
          :  GBSA solvation                  false          :
          :  PC potential                    false          :
          :  electronic temp.          300.0000000     K    :
          :  accuracy                    1.0000000          :
          :  -> integral cutoff          0.2500000E+02      :
          :  -> integral neglect         0.1000000E-07      :
          :  -> SCF convergence          0.1000000E-05 Eh   :
          :  -> wf. convergence          0.1000000E-03 e    :
          :  Broyden damping             0.4000000          :
          ...................................................

 iter      E             dE          RMSdq      gap      omega  full diag
   1    -99.5285448 -0.995285E+02  0.118E+00    0.89       0.0  T
   2    -99.1144316  0.414113E+00  0.174E+00    0.08       1.0  T
   3    -99.5209404 -0.406509E+00  0.857E-01    0.93       1.0  T
   4    -99.5440834 -0.231430E-01  0.593E-01    0.39       1.0  T
   5    -99.5827314 -0.386480E-01  0.166E-01    0.07       1.0  T
   6    -99.3669535  0.215778E+00  0.111E+00    0.06       1.0  T
   7    -99.5505483 -0.183595E+00  0.473E-01    0.27       1.0  T
   8    -99.5598072 -0.925887E-02  0.386E-01    0.17       1.0  T
   9    -99.5835971 -0.237898E-01  0.812E-02    0.08       1.0  T
  10    -99.5835970  0.131812E-07  0.792E-02    0.08       1.0  T
  11    -99.5843110 -0.713920E-03  0.446E-02    0.07       1.0  T
  12    -99.5844277 -0.116706E-03  0.342E-02    0.07       1.0  T
  13    -99.5837088  0.718899E-03  0.733E-02    0.06       1.0  T
  14    -99.5845428 -0.834081E-03  0.228E-02    0.07       1.0  T
  15    -99.5846312 -0.883077E-04  0.329E-03    0.07       3.8  T
  16    -99.5846321 -0.910072E-06  0.238E-03    0.07       5.3  T
  17    -99.5846330 -0.942966E-06  0.405E-04    0.07      30.8  T
  18    -99.5846330  0.185875E-07  0.527E-04    0.07      23.7  T

   *** convergence criteria satisfied after 18 iterations ***

         #    Occupation            Energy/Eh            Energy/eV
      -------------------------------------------------------------
         1        2.0000           -0.8550637             -23.2675
       ...           ...                  ...                  ...
        84        2.0000           -0.5169586             -14.0672
        85        2.0000           -0.5120577             -13.9338
        86        2.0000           -0.5090056             -13.8507
        87        2.0000           -0.4943165             -13.4510
        88        2.0000           -0.4930234             -13.4158
        89        1.9457           -0.4764437             -12.9647
        90        1.5871           -0.4743228             -12.9070 (HOMO)
        91        0.4672           -0.4719148             -12.8415 (LUMO)
        92                         -0.3952144             -10.7543
        93                         -0.3736246             -10.1668
        94                         -0.3692032             -10.0465
        95                         -0.3499692              -9.5231
       ...                                ...                  ...
       175                          0.6147689              16.7287
      -------------------------------------------------------------
                  HL-Gap            0.0024080 Eh            0.0655 eV
             Fermi-level           -0.4730436 Eh          -12.8722 eV

 SCC (total)                   0 d,  0 h,  0 min,  0.548 sec
 SCC setup                      ...        0 min,  0.000 sec (  0.039%)
 Dispersion                     ...        0 min,  0.001 sec (  0.102%)
 classical contributions        ...        0 min,  0.000 sec (  0.025%)
 integral evaluation            ...        0 min,  0.002 sec (  0.447%)
 iterations                     ...        0 min,  0.516 sec ( 94.075%)
 molecular gradient             ...        0 min,  0.020 sec (  3.711%)
 printout                       ...        0 min,  0.009 sec (  1.598%)

         :::::::::::::::::::::::::::::::::::::::::::::::::::::
         ::                     SUMMARY                     ::
         :::::::::::::::::::::::::::::::::::::::::::::::::::::
         :: total energy             -97.953047559770 Eh    ::
         :: gradient norm              0.061173292017 Eh/a0 ::
         :: HOMO-LUMO gap              0.065526305302 eV    ::
         ::.................................................::
         :: SCC energy               -99.584632987620 Eh    ::
         :: -> isotropic ES            0.097545332915 Eh    ::
         :: -> anisotropic ES         -0.007237581504 Eh    ::
         :: -> anisotropic XC          0.047199226719 Eh    ::
         :: -> dispersion             -0.088131433533 Eh    ::
         :: repulsion energy           1.629977734780 Eh    ::
         :: add. restraining           0.000000000000 Eh    ::
         :: total charge               0.999999899794 e     ::
         :::::::::::::::::::::::::::::::::::::::::::::::::::::

           -------------------------------------------------
          |                Property Printout                |
           -------------------------------------------------

    * Orbital Energies and Occupations

         #    Occupation            Energy/Eh            Energy/eV
      -------------------------------------------------------------
         1        2.0000           -0.8550637             -23.2675
       ...           ...                  ...                  ...
        78        2.0000           -0.5364638             -14.5979
        79        2.0000           -0.5324527             -14.4888
        80        2.0000           -0.5299039             -14.4194
        81        2.0000           -0.5259740             -14.3125
        82        2.0000           -0.5244205             -14.2702
        83        2.0000           -0.5174754             -14.0812
        84        2.0000           -0.5169586             -14.0672
        85        2.0000           -0.5120577             -13.9338
        86        2.0000           -0.5090056             -13.8507
        87        2.0000           -0.4943165             -13.4510
        88        2.0000           -0.4930234             -13.4158
        89        1.9457           -0.4764437             -12.9647
        90        1.5871           -0.4743228             -12.9070 (HOMO)
        91        0.4672           -0.4719148             -12.8415 (LUMO)
        92                         -0.3952144             -10.7543
        93                         -0.3736246             -10.1668
        94                         -0.3692032             -10.0465
        95                         -0.3499692              -9.5231
        96                         -0.3393341              -9.2338
        97                         -0.3138429              -8.5401
        98                         -0.3003362              -8.1726
        99                         -0.2885135              -7.8509
       100                         -0.2840899              -7.7305
       101                         -0.2559331              -6.9643
       ...                                ...                  ...
       175                          0.6147689              16.7287
      -------------------------------------------------------------
                  HL-Gap            0.0024080 Eh            0.0655 eV
             Fermi-level           -0.4730436 Eh          -12.8722 eV

     #   Z          covCN         q      C6AA      α(0)
     1   6 C        2.981     0.009    27.810     8.650
     2   6 C        2.980     0.015    27.675     8.629
     3   6 C        2.980     0.018    27.606     8.619
     4   6 C        2.990     0.020    27.542     8.609
     5   6 C        2.988     0.023    27.493     8.601
     6   6 C        2.988     0.024    27.465     8.597
     7   6 C        2.982     0.019    27.576     8.614
     8   6 C        2.983     0.013    27.719     8.636
     9   6 C        2.988     0.020    27.564     8.612
    10   6 C        2.989     0.018    27.592     8.616
    11   6 C        2.918    -0.022    28.567     8.765
    12   6 C        2.918    -0.024    28.598     8.769
    13   6 C        2.917    -0.026    28.651     8.778
    14   6 C        2.917    -0.028    28.706     8.786
    15   6 C        2.917    -0.028    28.712     8.787
    16   6 C        2.917    -0.029    28.720     8.788
    17   6 C        2.916    -0.029    28.722     8.788
    18   6 C        2.915    -0.022    28.551     8.762
    19   6 C        2.918    -0.027    28.688     8.783
    20   6 C        2.920    -0.026    28.652     8.778
    21   6 C        2.927    -0.036    28.894     8.815
    22   6 C        2.922    -0.024    28.593     8.769
    23   6 C        2.920    -0.037    28.926     8.820
    24   6 C        2.918    -0.025    28.628     8.774
    25   6 C        2.967     0.011    27.766     8.643
    26   6 C        2.916    -0.022    28.552     8.762
    27   1 H        0.926     0.061     2.190     2.314
    28   1 H        0.926     0.060     2.202     2.320
    29   1 H        0.926     0.059     2.208     2.323
    30   1 H        0.926     0.058     2.218     2.329
    31   1 H        0.926     0.058     2.224     2.332
    32   1 H        0.926     0.057     2.231     2.336
    33   1 H        0.926     0.058     2.220     2.330
    34   1 H        0.926     0.058     2.227     2.334
    35   1 H        0.926     0.052     2.299     2.371
    36   1 H        0.926     0.044     2.394     2.419
    37   1 H        0.926     0.087     1.905     2.158
    38   1 H        0.926     0.055     2.257     2.349
    39   1 H        0.926     0.079     1.991     2.207
    40   1 H        0.926     0.045     2.380     2.412
    41   6 C        2.889     0.051    26.864     8.497
    42   1 H        0.926     0.050     2.322     2.383
    43   6 C        3.885     0.044    19.782     6.323
    44   6 C        3.884     0.045    19.777     6.323
    45   6 C        3.758    -0.124    22.930     6.827
    46   6 C        3.760    -0.121    22.868     6.817
    47   6 C        3.758    -0.124    22.935     6.828
    48   6 C        3.760    -0.121    22.859     6.816
    49   7 N        2.807     0.243    17.300     6.177
    50   8 O        0.925    -0.350    20.676     6.098
    51   7 N        2.807     0.242    17.325     6.182
    52   8 O        0.925    -0.348    20.639     6.093
    53   1 H        0.925     0.053     2.283     2.363
    54   1 H        0.925     0.083     1.947     2.182
    55   1 H        0.925     0.083     1.953     2.186
    56   1 H        0.925     0.067     2.117     2.275
    57   1 H        0.925     0.089     1.890     2.150
    58   1 H        0.925     0.073     2.052     2.240
    59   1 H        0.925     0.054     2.273     2.358
    60   1 H        0.925     0.083     1.948     2.183
    61   1 H        0.925     0.084     1.936     2.176
    62   1 H        0.925     0.067     2.124     2.279
    63   1 H        0.925     0.090     1.879     2.143
    64   1 H        0.925     0.073     2.053     2.241

 Mol. C6AA /au·bohr⁶  :      51939.792041
 Mol. C8AA /au·bohr⁸  :    1293069.472145
 Mol. α(0) /au        :        361.224606


Wiberg/Mayer (AO) data.
largest (>0.10) Wiberg bond orders for each atom

 ---------------------------------------------------------------------------
     #   Z sym  total        # sym  WBO       # sym  WBO       # sym  WBO
 ---------------------------------------------------------------------------
     1   6 C    3.968 --     4 C    1.286     3 C    1.223     2 C    1.212
     2   6 C    3.922 --     5 C    1.296     1 C    1.212     7 C    1.184
     3   6 C    3.896 --     6 C    1.282     1 C    1.223     8 C    1.174
     4   6 C    3.963 --     1 C    1.286    11 C    1.256    12 C    1.240
     5   6 C    3.957 --     2 C    1.296    13 C    1.261    15 C    1.222
     6   6 C    3.941 --     3 C    1.282    14 C    1.253    16 C    1.237
     7   6 C    3.981 --    19 C    1.304     9 C    1.264     2 C    1.184
     8   6 C    3.980 --    20 C    1.318    10 C    1.273     3 C    1.174
     9   6 C    3.979 --    21 C    1.334     7 C    1.264    17 C    1.207
    10   6 C    3.980 --    22 C    1.309     8 C    1.273    18 C    1.217
    11   6 C    3.927 --    13 C    1.558     4 C    1.256    27 H    0.963
    12   6 C    3.926 --    14 C    1.577     4 C    1.240    28 H    0.963
    13   6 C    3.941 --    11 C    1.558     5 C    1.261    29 H    0.964
    14   6 C    3.958 --    12 C    1.577     6 C    1.253    30 H    0.965
    15   6 C    3.979 --    17 C    1.626     5 C    1.222    31 H    0.964
    16   6 C    3.962 --    18 C    1.596     6 C    1.237    32 H    0.964
    17   6 C    3.955 --    15 C    1.626     9 C    1.207    33 H    0.965
    18   6 C    3.915 --    16 C    1.596    10 C    1.217    34 H    0.965
    19   6 C    3.974 --    23 C    1.539     7 C    1.304    35 H    0.959
    20   6 C    3.940 --    24 C    1.495     8 C    1.318    36 H    0.960
    21   6 C    3.965 --    25 C    1.417     9 C    1.334    37 H    0.953
    22   6 C    3.934 --    26 C    1.498    10 C    1.309    38 H    0.966
    23   6 C    3.974 --    19 C    1.539    25 C    1.279    39 H    0.957
    24   6 C    3.964 --    20 C    1.495    26 C    1.362    40 H    0.969
    25   6 C    3.958 --    21 C    1.417    23 C    1.279    41 C    1.092
    26   6 C    3.960 --    22 C    1.498    24 C    1.362    42 H    0.969
    27   1 H    0.994 --    11 C    0.963
    28   1 H    0.994 --    12 C    0.963
    29   1 H    0.995 --    13 C    0.964
    30   1 H    0.995 --    14 C    0.965
    31   1 H    0.995 --    15 C    0.964
    32   1 H    0.996 --    16 C    0.964
    33   1 H    0.995 --    17 C    0.965
    34   1 H    0.995 --    18 C    0.965
    35   1 H    0.995 --    19 C    0.959
    36   1 H    0.996 --    20 C    0.960
    37   1 H    0.991 --    21 C    0.953
    38   1 H    0.996 --    22 C    0.966
    39   1 H    0.993 --    23 C    0.957
    40   1 H    0.997 --    24 C    0.969
    41   6 C    3.936 --    49 N    1.244    51 N    1.242    25 C    1.092
                            50 O    0.135    52 O    0.133
    42   1 H    0.996 --    26 C    0.969
    43   6 C    3.947 --    45 C    0.991    48 C    0.965    44 C    0.957
                            49 N    0.909
    44   6 C    3.946 --    47 C    0.991    46 C    0.965    43 C    0.957
                            51 N    0.910
    45   6 C    3.973 --    43 C    0.991    56 H    0.979    58 H    0.977
Note: The following floating-point exceptions are signalling: IEEE_UNDERFLOW_FLAG
normal termination of xtb
                            57 H    0.974
    46   6 C    3.964 --    59 H    0.982    61 H    0.976    60 H    0.974
                            44 C    0.965
    47   6 C    3.973 --    44 C    0.991    62 H    0.979    64 H    0.977
                            63 H    0.974
    48   6 C    3.964 --    53 H    0.982    55 H    0.976    54 H    0.974
                            43 C    0.965
    49   7 N    3.651 --    50 O    1.352    41 C    1.244    43 C    0.909
    50   8 O    1.740 --    49 N    1.352    41 C    0.135
    51   7 N    3.650 --    52 O    1.350    41 C    1.242    44 C    0.910
    52   8 O    1.739 --    51 N    1.350    41 C    0.133
    53   1 H    0.997 --    48 C    0.982
    54   1 H    0.991 --    48 C    0.974
    55   1 H    0.993 --    48 C    0.976
    56   1 H    0.995 --    45 C    0.979
    57   1 H    0.991 --    45 C    0.974
    58   1 H    0.994 --    45 C    0.977
    59   1 H    0.997 --    46 C    0.982
    60   1 H    0.991 --    46 C    0.974
    61   1 H    0.993 --    46 C    0.976
    62   1 H    0.995 --    47 C    0.979
    63   1 H    0.991 --    47 C    0.974
    64   1 H    0.994 --    47 C    0.977
 ---------------------------------------------------------------------------

Topologies differ in bond orders
Writing corrected topology to xtbtopo.mol

molecular dipole:
                 x           y           z       tot (Debye)
 q only:       -0.024      -2.410       0.931
   full:        0.075      -2.358       0.948       6.463
molecular quadrupole (traceless):
                xx          xy          yy          xz          yz          zz
 q only:       55.040      38.161      -7.680      12.922       3.695     -47.360
  q+dip:       55.180      39.252      -3.133      20.027       3.124     -52.048
   full:       54.458      38.241      -8.252      13.095       5.303     -46.207


           -------------------------------------------------
          | TOTAL ENERGY              -97.953047559770 Eh   |
          | GRADIENT NORM               0.061173292017 Eh/α |
          | HOMO-LUMO GAP               0.065526305302 eV   |
           -------------------------------------------------
########################################################################
[WARNING] Runtime exception occurred
-2- restart_readRestart: Multiplicity missmatch in restart file.
-1- restart_readRestart: Number of electron missmatch in restart file.
########################################################################

------------------------------------------------------------------------
 * finished run on 2024/11/14 at 10:51:54.966     
------------------------------------------------------------------------
 total:
 * wall-time:     0 d,  0 h,  0 min,  0.558 sec
 *  cpu-time:     0 d,  0 h,  0 min,  1.965 sec
 * ratio c/w:     3.520 speedup
 SCF:
 * wall-time:     0 d,  0 h,  0 min,  0.549 sec
 *  cpu-time:     0 d,  0 h,  0 min,  1.951 sec
 * ratio c/w:     3.557 speedup

