      -----------------------------------------------------------      
     |                   =====================                   |     
     |                           x T B                           |     
     |                   =====================                   |     
     |                         S. Grimme                         |     
     |          Mulliken Center for Theoretical Chemistry        |     
     |                    University of Bonn                     |     
      -----------------------------------------------------------      

   * xtb version 6.6.1 (8d0f1dd) compiled by 'runner@Mac-1690902418499.local' on 2023-08-01

   xtb is free software: you can redistribute it and/or modify it under
   the terms of the GNU Lesser General Public License as published by
   the Free Software Foundation, either version 3 of the License, or
   (at your option) any later version.
   
   xtb is distributed in the hope that it will be useful,
   but WITHOUT ANY WARRANTY; without even the implied warranty of
   MERCHANTABILITY or FITNESS FOR A PARTICULAR PURPOSE.  See the
   GNU Lesser General Public License for more details.
   
   Cite this work as:
   * C. Bannwarth, E. Caldeweyher, S. Ehlert, A. Hansen, P. Pracht,
     J. Seibert, S. Spicher, S. Grimme, WIREs Comput. Mol. Sci., 2020, 11,
     e01493. DOI: 10.1002/wcms.1493
   
   for GFN2-xTB:
   * C. Bannwarth, S. Ehlert and S. Grimme., J. Chem. Theory Comput., 2019,
     15, 1652-1671. DOI: 10.1021/acs.jctc.8b01176
   for GFN1-xTB:
   * S. Grimme, C. Bannwarth, P. Shushkov, J. Chem. Theory Comput., 2017,
     13, 1989-2009. DOI: 10.1021/acs.jctc.7b00118
   for GFN0-xTB:
   * P. Pracht, E. Caldeweyher, S. Ehlert, S. Grimme, ChemRxiv, 2019, preprint.
     DOI: 10.26434/chemrxiv.8326202.v1
   for GFN-FF:
   * S. Spicher and S. Grimme, Angew. Chem. Int. Ed., 2020, 59, 15665-15673.
     DOI: 10.1002/anie.202004239
   
   for ALPB and GBSA implicit solvation:
   * S. Ehlert, M. Stahn, S. Spicher, S. Grimme, J. Chem. Theory Comput.,
     2021, 17, 4250-4261. DOI: 10.1021/acs.jctc.1c00471
   
   for DFT-D4:
   * E. Caldeweyher, C. Bannwarth and S. Grimme, J. Chem. Phys., 2017,
     147, 034112. DOI: 10.1063/1.4993215
   * E. Caldeweyher, S. Ehlert, A. Hansen, H. Neugebauer, S. Spicher,
     C. Bannwarth and S. Grimme, J. Chem. Phys., 2019, 150, 154122.
     DOI: 10.1063/1.5090222
   * E. Caldeweyher, J.-M. Mewes, S. Ehlert and S. Grimme, Phys. Chem. Chem. Phys.
     2020, 22, 8499-8512. DOI: 10.1039/D0CP00502A
   
   for sTDA-xTB:
   * S. Grimme and C. Bannwarth, J. Chem. Phys., 2016, 145, 054103.
     DOI: 10.1063/1.4959605
   
   in the mass-spec context:
   * V. Asgeirsson, C. Bauer and S. Grimme, Chem. Sci., 2017, 8, 4879.
     DOI: 10.1039/c7sc00601b
   * J. Koopman and S. Grimme, ACS Omega 2019, 4, 12, 15120-15133.
     DOI: 10.1021/acsomega.9b02011
   
   for metadynamics refer to:
   * S. Grimme, J. Chem. Theory Comput., 2019, 155, 2847-2862
     DOI: 10.1021/acs.jctc.9b00143
   
   for SPH calculations refer to:
   * S. Spicher and S. Grimme, J. Chem. Theory Comput., 2021, 17, 1701-1714
     DOI: 10.1021/acs.jctc.0c01306
   
   with help from (in alphabetical order)
   P. Atkinson, C. Bannwarth, F. Bohle, G. Brandenburg, E. Caldeweyher
   M. Checinski, S. Dohm, S. Ehlert, S. Ehrlich, I. Gerasimov, C. Hölzer
   A. Katbashev, J. Koopman, C. Lavigne, S. Lehtola, F. März, M. Müller,
   F. Musil, H. Neugebauer, J. Pisarek, C. Plett, P. Pracht, F. Pultar,
   J. Seibert, P. Shushkov, S. Spicher, M. Stahn, M. Steiner, T. Strunk,
   J. Stückrath, T. Rose, and J. Unsleber
   
 * started run on 2024/11/14 at 10:51:53.048     

           -------------------------------------------------
          |                Calculation Setup                |
           -------------------------------------------------

          program call               : xtb opt_cation_Nitro2.mol --gfn2 --sp --chrg 1 --uhf 0
          coordinate file            : opt_cation_Nitro2.mol
          omp threads                :                     8

   ID    Z sym.   atoms
    1    6 C      1-26, 41, 43-48
    2    1 H      27-40, 42, 53-64
    3    7 N      49, 51
    4    8 O      50, 52
########################################################################
[WARNING] Please study the warnings concerning your input carefully
-1- prog_main: Charge in sdf/mol input was overwritten
########################################################################

           -------------------------------------------------
          |                 G F N 2 - x T B                 |
           -------------------------------------------------

        Reference                      10.1021/acs.jctc.8b01176
      * Hamiltonian:
        H0-scaling (s, p, d)           1.850000    2.230000    2.230000
        zeta-weighting                 0.500000
      * Dispersion:
        s8                             2.700000
        a1                             0.520000
        a2                             5.000000
        s9                             5.000000
      * Repulsion:
        kExp                           1.500000    1.000000
        rExp                           1.000000
      * Coulomb:
        alpha                          2.000000
        third order                    shell-resolved
        anisotropic                    true
        a3                             3.000000
        a5                             4.000000
        cn-shift                       1.200000
        cn-exp                         4.000000
        max-rad                        5.000000

q/qsh data taken from xtbrestart
CAMM data taken from xtbrestart

          ...................................................
          :                      SETUP                      :
          :.................................................:
          :  # basis functions                 175          :
          :  # atomic orbitals                 175          :
          :  # shells                          101          :
          :  # electrons                       180          :
          :  max. iterations                   250          :
          :  Hamiltonian                  GFN2-xTB          :
          :  restarted?                       true          :
          :  GBSA solvation                  false          :
          :  PC potential                    false          :
          :  electronic temp.          300.0000000     K    :
          :  accuracy                    1.0000000          :
          :  -> integral cutoff          0.2500000E+02      :
          :  -> integral neglect         0.1000000E-07      :
          :  -> SCF convergence          0.1000000E-05 Eh   :
          :  -> wf. convergence          0.1000000E-03 e    :
          :  Broyden damping             0.4000000          :
          ...................................................

 iter      E             dE          RMSdq      gap      omega  full diag
   1    -99.4590693 -0.994591E+02  0.164E+00    1.78       0.0  T
   2    -99.1266776  0.332392E+00  0.181E+00    0.11       1.0  T
   3    -99.4902035 -0.363526E+00  0.113E+00    1.79       1.0  T
   4    -99.5431545 -0.529510E-01  0.788E-01    1.02       1.0  T
   5    -99.5588958 -0.157413E-01  0.500E-01    0.22       1.0  T
   6    -99.1513955  0.407500E+00  0.172E+00    0.15       1.0  T
   7    -99.1959562 -0.445607E-01  0.157E+00    0.10       1.0  T
   8    -99.5615608 -0.365605E+00  0.442E-01    0.24       1.0  T
   9    -99.5634711 -0.191032E-02  0.418E-01    0.22       1.0  T
  10    -99.5687944 -0.532335E-02  0.369E-01    0.17       1.0  T
  11    -99.5848010 -0.160065E-01  0.175E-01    0.10       1.0  T
  12    -99.5893892 -0.458829E-02  0.414E-02    0.07       1.0  T
  13    -99.5863567  0.303256E-02  0.145E-01    0.09       1.0  T
  14    -99.5888934 -0.253673E-02  0.720E-02    0.06       1.0  T
  15    -99.5890419 -0.148441E-03  0.627E-02    0.08       1.0  T
  16    -99.5896372 -0.595377E-03  0.752E-03    0.07       1.7  T
  17    -99.5896455 -0.825760E-05  0.192E-03    0.07       6.5  T
  18    -99.5896377  0.778602E-05  0.729E-03    0.07       1.7  T
  19    -99.5896459 -0.814713E-05  0.219E-04    0.07      57.0  T
  20    -99.5896458  0.342089E-07  0.508E-04    0.07      24.6  T
  21    -99.5896459 -0.395001E-07  0.631E-05    0.07     198.1  T

   *** convergence criteria satisfied after 21 iterations ***

         #    Occupation            Energy/Eh            Energy/eV
      -------------------------------------------------------------
         1        2.0000           -0.8631556             -23.4877
       ...           ...                  ...                  ...
        84        2.0000           -0.5148822             -14.0107
        85        2.0000           -0.5097072             -13.8698
        86        2.0000           -0.5072620             -13.8033
        87        2.0000           -0.4921603             -13.3924
        88        2.0000           -0.4904914             -13.3470
        89        1.9929           -0.4738344             -12.8937
        90        1.5808           -0.4697406             -12.7823 (HOMO)
        91        0.4263           -0.4672386             -12.7142 (LUMO)
        92                         -0.3926239             -10.6838
        93                         -0.3708610             -10.0916
        94                         -0.3678389             -10.0094
        95                         -0.3476551              -9.4602
       ...                                ...                  ...
       175                          0.6175918              16.8055
      -------------------------------------------------------------
                  HL-Gap            0.0025020 Eh            0.0681 eV
             Fermi-level           -0.4684795 Eh          -12.7480 eV

 SCC (total)                   0 d,  0 h,  0 min,  0.728 sec
 SCC setup                      ...        0 min,  0.000 sec (  0.026%)
 Dispersion                     ...        0 min,  0.000 sec (  0.066%)
 classical contributions        ...        0 min,  0.000 sec (  0.018%)
 integral evaluation            ...        0 min,  0.004 sec (  0.512%)
 iterations                     ...        0 min,  0.710 sec ( 97.504%)
 molecular gradient             ...        0 min,  0.013 sec (  1.773%)
 printout                       ...        0 min,  0.001 sec (  0.100%)

         :::::::::::::::::::::::::::::::::::::::::::::::::::::
         ::                     SUMMARY                     ::
         :::::::::::::::::::::::::::::::::::::::::::::::::::::
         :: total energy             -97.956308478344 Eh    ::
         :: gradient norm              0.000411483322 Eh/a0 ::
         :: HOMO-LUMO gap              0.068083859750 eV    ::
         ::.................................................::
         :: SCC energy               -99.589645863715 Eh    ::
         :: -> isotropic ES            0.095506373983 Eh    ::
         :: -> anisotropic ES         -0.004754733361 Eh    ::
         :: -> anisotropic XC          0.046440155437 Eh    ::
         :: -> dispersion             -0.087954037503 Eh    ::
         :: repulsion energy           1.631771958049 Eh    ::
         :: add. restraining           0.000000000000 Eh    ::
         :: total charge               0.999998770799 e     ::
         :::::::::::::::::::::::::::::::::::::::::::::::::::::

           -------------------------------------------------
          |                Property Printout                |
           -------------------------------------------------

    * Orbital Energies and Occupations

         #    Occupation            Energy/Eh            Energy/eV
      -------------------------------------------------------------
         1        2.0000           -0.8631556             -23.4877
       ...           ...                  ...                  ...
        78        2.0000           -0.5353711             -14.5682
        79        2.0000           -0.5322377             -14.4829
        80        2.0000           -0.5271712             -14.3451
        81        2.0000           -0.5244335             -14.2706
        82        2.0000           -0.5233923             -14.2422
        83        2.0000           -0.5176047             -14.0847
        84        2.0000           -0.5148822             -14.0107
        85        2.0000           -0.5097072             -13.8698
        86        2.0000           -0.5072620             -13.8033
        87        2.0000           -0.4921603             -13.3924
        88        2.0000           -0.4904914             -13.3470
        89        1.9929           -0.4738344             -12.8937
        90        1.5808           -0.4697406             -12.7823 (HOMO)
        91        0.4263           -0.4672386             -12.7142 (LUMO)
        92                         -0.3926239             -10.6838
        93                         -0.3708610             -10.0916
        94                         -0.3678389             -10.0094
        95                         -0.3476551              -9.4602
        96                         -0.3385557              -9.2126
        97                         -0.3116267              -8.4798
        98                         -0.2998241              -8.1586
        99                         -0.2862370              -7.7889
       100                         -0.2824705              -7.6864
       101                         -0.2549065              -6.9364
       ...                                ...                  ...
       175                          0.6175918              16.8055
      -------------------------------------------------------------
                  HL-Gap            0.0025020 Eh            0.0681 eV
             Fermi-level           -0.4684795 Eh          -12.7480 eV

     #   Z          covCN         q      C6AA      α(0)
     1   6 C        2.980     0.009    27.818     8.652
     2   6 C        2.979     0.014    27.704     8.634
     3   6 C        2.980     0.017    27.633     8.623
     4   6 C        2.988     0.020    27.551     8.610
     5   6 C        2.986     0.021    27.523     8.606
     6   6 C        2.986     0.023    27.473     8.598
     7   6 C        2.981     0.019    27.580     8.615
     8   6 C        2.981     0.013    27.727     8.637
     9   6 C        2.987     0.020    27.553     8.610
    10   6 C        2.987     0.018    27.607     8.619
    11   6 C        2.917    -0.023    28.586     8.768
    12   6 C        2.917    -0.026    28.640     8.776
    13   6 C        2.917    -0.026    28.654     8.778
    14   6 C        2.916    -0.030    28.752     8.793
    15   6 C        2.916    -0.029    28.719     8.788
    16   6 C        2.915    -0.029    28.734     8.790
    17   6 C        2.915    -0.031    28.770     8.796
    18   6 C        2.915    -0.022    28.560     8.763
    19   6 C        2.918    -0.027    28.684     8.783
    20   6 C        2.919    -0.026    28.659     8.779
    21   6 C        2.926    -0.031    28.784     8.798
    22   6 C        2.922    -0.023    28.586     8.768
    23   6 C        2.919    -0.032    28.791     8.799
    24   6 C        2.917    -0.024    28.605     8.770
    25   6 C        2.969     0.012    27.740     8.639
    26   6 C        2.915    -0.021    28.538     8.760
    27   1 H        0.926     0.060     2.199     2.319
    28   1 H        0.926     0.058     2.218     2.329
    29   1 H        0.926     0.059     2.215     2.327
    30   1 H        0.926     0.057     2.236     2.338
    31   1 H        0.926     0.057     2.233     2.337
    32   1 H        0.926     0.057     2.240     2.340
    33   1 H        0.926     0.056     2.250     2.346
    34   1 H        0.926     0.057     2.236     2.339
    35   1 H        0.926     0.052     2.295     2.369
    36   1 H        0.926     0.044     2.402     2.423
    37   1 H        0.926     0.074     2.037     2.232
    38   1 H        0.926     0.055     2.257     2.349
    39   1 H        0.926     0.064     2.149     2.293
    40   1 H        0.926     0.046     2.374     2.410
    41   6 C        2.893     0.038    27.148     8.543
    42   1 H        0.926     0.051     2.301     2.372
    43   6 C        3.885     0.041    19.837     6.332
    44   6 C        3.884     0.041    19.840     6.333
    45   6 C        3.761    -0.122    22.877     6.818
    46   6 C        3.758    -0.124    22.930     6.827
    47   6 C        3.761    -0.122    22.880     6.819
    48   6 C        3.758    -0.124    22.922     6.826
    49   7 N        2.807     0.257    17.104     6.142
    50   8 O        0.927    -0.338    20.457     6.066
    51   7 N        2.807     0.259    17.076     6.137
    52   8 O        0.927    -0.333    20.360     6.051
    53   1 H        0.925     0.068     2.112     2.273
    54   1 H        0.925     0.073     2.051     2.240
    55   1 H        0.925     0.088     1.901     2.156
    56   1 H        0.925     0.054     2.267     2.355
    57   1 H        0.925     0.081     1.970     2.195
    58   1 H        0.925     0.083     1.944     2.180
    59   1 H        0.925     0.068     2.108     2.271
    60   1 H        0.925     0.073     2.051     2.239
    61   1 H        0.925     0.089     1.889     2.150
    62   1 H        0.925     0.054     2.271     2.357
    63   1 H        0.925     0.082     1.956     2.187
    64   1 H        0.925     0.083     1.946     2.181

 Mol. C6AA /au·bohr⁶  :      51972.436989
 Mol. C8AA /au·bohr⁸  :    1293547.845491
 Mol. α(0) /au        :        361.351661


Wiberg/Mayer (AO) data.
largest (>0.10) Wiberg bond orders for each atom

 ---------------------------------------------------------------------------
     #   Z sym  total        # sym  WBO       # sym  WBO       # sym  WBO
 ---------------------------------------------------------------------------
     1   6 C    3.975 --     4 C    1.281     3 C    1.236     2 C    1.206
     2   6 C    3.930 --     5 C    1.295     1 C    1.206     7 C    1.191
     3   6 C    3.899 --     6 C    1.269     1 C    1.236     8 C    1.172
     4   6 C    3.965 --     1 C    1.281    11 C    1.268    12 C    1.233
     5   6 C    3.965 --     2 C    1.295    13 C    1.270    15 C    1.217
     6   6 C    3.938 --     3 C    1.269    14 C    1.252    16 C    1.248
     7   6 C    3.984 --    19 C    1.302     9 C    1.262     2 C    1.191
     8   6 C    3.983 --    20 C    1.329    10 C    1.268     3 C    1.172
     9   6 C    3.978 --    21 C    1.335     7 C    1.262    17 C    1.207
    10   6 C    3.983 --    22 C    1.312     8 C    1.268    18 C    1.221
    11   6 C    3.929 --    13 C    1.544     4 C    1.268    27 H    0.964
    12   6 C    3.934 --    14 C    1.587     4 C    1.233    28 H    0.964
    13   6 C    3.937 --    11 C    1.544     5 C    1.270    29 H    0.965
    14   6 C    3.971 --    12 C    1.587     6 C    1.252    30 H    0.965
    15   6 C    3.984 --    17 C    1.634     5 C    1.217    31 H    0.964
    16   6 C    3.964 --    18 C    1.585     6 C    1.248    32 H    0.964
    17   6 C    3.967 --    15 C    1.634     9 C    1.207    33 H    0.965
    18   6 C    3.909 --    16 C    1.585    10 C    1.221    34 H    0.965
    19   6 C    3.976 --    23 C    1.540     7 C    1.302    35 H    0.959
    20   6 C    3.940 --    24 C    1.482     8 C    1.329    36 H    0.961
    21   6 C    3.972 --    25 C    1.423     9 C    1.335    37 H    0.959
    22   6 C    3.930 --    26 C    1.489    10 C    1.312    38 H    0.966
    23   6 C    3.980 --    19 C    1.540    25 C    1.282    39 H    0.964
    24   6 C    3.963 --    20 C    1.482    26 C    1.374    40 H    0.969
    25   6 C    3.957 --    21 C    1.423    23 C    1.282    41 C    1.081
    26   6 C    3.964 --    22 C    1.489    24 C    1.374    42 H    0.969
    27   1 H    0.994 --    11 C    0.964
    28   1 H    0.994 --    12 C    0.964
    29   1 H    0.995 --    13 C    0.965
    30   1 H    0.996 --    14 C    0.965
    31   1 H    0.996 --    15 C    0.964
    32   1 H    0.996 --    16 C    0.964
    33   1 H    0.995 --    17 C    0.965
    34   1 H    0.995 --    18 C    0.965
    35   1 H    0.996 --    19 C    0.959
    36   1 H    0.996 --    20 C    0.961
    37   1 H    0.994 --    21 C    0.959
    38   1 H    0.996 --    22 C    0.966
    39   1 H    0.995 --    23 C    0.964
    40   1 H    0.997 --    24 C    0.969
    41   6 C    3.934 --    51 N    1.237    49 N    1.235    25 C    1.081
Note: The following floating-point exceptions are signalling: IEEE_UNDERFLOW_FLAG
normal termination of xtb
                            52 O    0.147    50 O    0.144
    42   1 H    0.996 --    26 C    0.969
    43   6 C    3.948 --    48 C    0.994    45 C    0.965    44 C    0.954
                            49 N    0.905
    44   6 C    3.947 --    46 C    0.993    47 C    0.966    43 C    0.954
                            51 N    0.904
    45   6 C    3.965 --    56 H    0.982    57 H    0.977    58 H    0.973
                            43 C    0.965
    46   6 C    3.974 --    44 C    0.993    59 H    0.979    60 H    0.977
                            61 H    0.974
    47   6 C    3.966 --    62 H    0.983    63 H    0.977    64 H    0.974
                            44 C    0.966
    48   6 C    3.975 --    43 C    0.994    53 H    0.979    54 H    0.977
                            55 H    0.975
    49   7 N    3.663 --    50 O    1.379    41 C    1.235    43 C    0.905
    50   8 O    1.769 --    49 N    1.379    41 C    0.144
    51   7 N    3.670 --    52 O    1.384    41 C    1.237    44 C    0.904
    52   8 O    1.779 --    51 N    1.384    41 C    0.147
    53   1 H    0.995 --    48 C    0.979
    54   1 H    0.994 --    48 C    0.977
    55   1 H    0.992 --    48 C    0.975
    56   1 H    0.997 --    45 C    0.982
    57   1 H    0.993 --    45 C    0.977
    58   1 H    0.991 --    45 C    0.973
    59   1 H    0.995 --    46 C    0.979
    60   1 H    0.994 --    46 C    0.977
    61   1 H    0.991 --    46 C    0.974
    62   1 H    0.997 --    47 C    0.983
    63   1 H    0.993 --    47 C    0.977
    64   1 H    0.991 --    47 C    0.974
 ---------------------------------------------------------------------------

Topologies differ in bond orders
Writing corrected topology to xtbtopo.mol

molecular dipole:
                 x           y           z       tot (Debye)
 q only:       -0.367      -2.562       0.943
   full:       -0.304      -2.535       0.961       6.933
molecular quadrupole (traceless):
                xx          xy          yy          xz          yz          zz
 q only:       53.826      38.914      -9.854      13.561      -1.208     -43.973
  q+dip:       53.363      39.947      -5.609      21.677      -2.847     -47.754
   full:       52.929      39.562     -10.924      14.913      -1.415     -42.005


           -------------------------------------------------
          | TOTAL ENERGY              -97.956308478344 Eh   |
          | GRADIENT NORM               0.000411483322 Eh/α |
          | HOMO-LUMO GAP               0.068083859750 eV   |
           -------------------------------------------------
########################################################################
[WARNING] Runtime exception occurred
-1- restart_readRestart: Number of electron missmatch in restart file.
########################################################################

------------------------------------------------------------------------
 * finished run on 2024/11/14 at 10:51:53.786     
------------------------------------------------------------------------
 total:
 * wall-time:     0 d,  0 h,  0 min,  0.737 sec
 *  cpu-time:     0 d,  0 h,  0 min,  2.651 sec
 * ratio c/w:     3.598 speedup
 SCF:
 * wall-time:     0 d,  0 h,  0 min,  0.728 sec
 *  cpu-time:     0 d,  0 h,  0 min,  2.637 sec
 * ratio c/w:     3.621 speedup

