      -----------------------------------------------------------      
     |                   =====================                   |     
     |                           x T B                           |     
     |                   =====================                   |     
     |                         S. Grimme                         |     
     |          Mulliken Center for Theoretical Chemistry        |     
     |                    University of Bonn                     |     
      -----------------------------------------------------------      

   * xtb version 6.6.1 (8d0f1dd) compiled by 'runner@Mac-1690902418499.local' on 2023-08-01

   xtb is free software: you can redistribute it and/or modify it under
   the terms of the GNU Lesser General Public License as published by
   the Free Software Foundation, either version 3 of the License, or
   (at your option) any later version.
   
   xtb is distributed in the hope that it will be useful,
   but WITHOUT ANY WARRANTY; without even the implied warranty of
   MERCHANTABILITY or FITNESS FOR A PARTICULAR PURPOSE.  See the
   GNU Lesser General Public License for more details.
   
   Cite this work as:
   * C. Bannwarth, E. Caldeweyher, S. Ehlert, A. Hansen, P. Pracht,
     J. Seibert, S. Spicher, S. Grimme, WIREs Comput. Mol. Sci., 2020, 11,
     e01493. DOI: 10.1002/wcms.1493
   
   for GFN2-xTB:
   * C. Bannwarth, S. Ehlert and S. Grimme., J. Chem. Theory Comput., 2019,
     15, 1652-1671. DOI: 10.1021/acs.jctc.8b01176
   for GFN1-xTB:
   * S. Grimme, C. Bannwarth, P. Shushkov, J. Chem. Theory Comput., 2017,
     13, 1989-2009. DOI: 10.1021/acs.jctc.7b00118
   for GFN0-xTB:
   * P. Pracht, E. Caldeweyher, S. Ehlert, S. Grimme, ChemRxiv, 2019, preprint.
     DOI: 10.26434/chemrxiv.8326202.v1
   for GFN-FF:
   * S. Spicher and S. Grimme, Angew. Chem. Int. Ed., 2020, 59, 15665-15673.
     DOI: 10.1002/anie.202004239
   
   for ALPB and GBSA implicit solvation:
   * S. Ehlert, M. Stahn, S. Spicher, S. Grimme, J. Chem. Theory Comput.,
     2021, 17, 4250-4261. DOI: 10.1021/acs.jctc.1c00471
   
   for DFT-D4:
   * E. Caldeweyher, C. Bannwarth and S. Grimme, J. Chem. Phys., 2017,
     147, 034112. DOI: 10.1063/1.4993215
   * E. Caldeweyher, S. Ehlert, A. Hansen, H. Neugebauer, S. Spicher,
     C. Bannwarth and S. Grimme, J. Chem. Phys., 2019, 150, 154122.
     DOI: 10.1063/1.5090222
   * E. Caldeweyher, J.-M. Mewes, S. Ehlert and S. Grimme, Phys. Chem. Chem. Phys.
     2020, 22, 8499-8512. DOI: 10.1039/D0CP00502A
   
   for sTDA-xTB:
   * S. Grimme and C. Bannwarth, J. Chem. Phys., 2016, 145, 054103.
     DOI: 10.1063/1.4959605
   
   in the mass-spec context:
   * V. Asgeirsson, C. Bauer and S. Grimme, Chem. Sci., 2017, 8, 4879.
     DOI: 10.1039/c7sc00601b
   * J. Koopman and S. Grimme, ACS Omega 2019, 4, 12, 15120-15133.
     DOI: 10.1021/acsomega.9b02011
   
   for metadynamics refer to:
   * S. Grimme, J. Chem. Theory Comput., 2019, 155, 2847-2862
     DOI: 10.1021/acs.jctc.9b00143
   
   for SPH calculations refer to:
   * S. Spicher and S. Grimme, J. Chem. Theory Comput., 2021, 17, 1701-1714
     DOI: 10.1021/acs.jctc.0c01306
   
   with help from (in alphabetical order)
   P. Atkinson, C. Bannwarth, F. Bohle, G. Brandenburg, E. Caldeweyher
   M. Checinski, S. Dohm, S. Ehlert, S. Ehrlich, I. Gerasimov, C. Hölzer
   A. Katbashev, J. Koopman, C. Lavigne, S. Lehtola, F. März, M. Müller,
   F. Musil, H. Neugebauer, J. Pisarek, C. Plett, P. Pracht, F. Pultar,
   J. Seibert, P. Shushkov, S. Spicher, M. Stahn, M. Steiner, T. Strunk,
   J. Stückrath, T. Rose, and J. Unsleber
   
 * started run on 2024/11/14 at 10:51:51.868     

           -------------------------------------------------
          |                Calculation Setup                |
           -------------------------------------------------

          program call               : xtb opt_anion_Nitro2.mol --gfn2 --sp --chrg 0 --uhf 1
          coordinate file            : opt_anion_Nitro2.mol
          omp threads                :                     8

   ID    Z sym.   atoms
    1    6 C      1-26, 41, 43-48
    2    1 H      27-40, 42, 53-64
    3    7 N      49, 51
    4    8 O      50, 52
########################################################################
[WARNING] Please study the warnings concerning your input carefully
-1- prog_main: Charge in sdf/mol input was overwritten
########################################################################

           -------------------------------------------------
          |                 G F N 2 - x T B                 |
           -------------------------------------------------

        Reference                      10.1021/acs.jctc.8b01176
      * Hamiltonian:
        H0-scaling (s, p, d)           1.850000    2.230000    2.230000
        zeta-weighting                 0.500000
      * Dispersion:
        s8                             2.700000
        a1                             0.520000
        a2                             5.000000
        s9                             5.000000
      * Repulsion:
        kExp                           1.500000    1.000000
        rExp                           1.000000
      * Coulomb:
        alpha                          2.000000
        third order                    shell-resolved
        anisotropic                    true
        a3                             3.000000
        a5                             4.000000
        cn-shift                       1.200000
        cn-exp                         4.000000
        max-rad                        5.000000

q/qsh data taken from xtbrestart
CAMM data taken from xtbrestart

          ...................................................
          :                      SETUP                      :
          :.................................................:
          :  # basis functions                 175          :
          :  # atomic orbitals                 175          :
          :  # shells                          101          :
          :  # electrons                       181          :
          :  max. iterations                   250          :
          :  Hamiltonian                  GFN2-xTB          :
          :  restarted?                       true          :
          :  GBSA solvation                  false          :
          :  PC potential                    false          :
          :  electronic temp.          300.0000000     K    :
          :  accuracy                    1.0000000          :
          :  -> integral cutoff          0.2500000E+02      :
          :  -> integral neglect         0.1000000E-07      :
          :  -> SCF convergence          0.1000000E-05 Eh   :
          :  -> wf. convergence          0.1000000E-03 e    :
          :  Broyden damping             0.4000000          :
          ...................................................

 iter      E             dE          RMSdq      gap      omega  full diag
   1    -99.9323136 -0.999323E+02  0.721E-01    0.10       0.0  T
   2    -99.9680994 -0.357857E-01  0.346E-01    1.67       1.0  T
   3    -99.9702780 -0.217865E-02  0.226E-01    1.62       1.0  T
   4    -99.9706743 -0.396312E-03  0.156E-01    1.69       1.0  T
   5    -99.9709309 -0.256536E-03  0.646E-02    1.71       1.0  T
   6    -99.9710297 -0.988407E-04  0.305E-02    1.71       1.0  T
   7    -99.9710951 -0.654196E-04  0.110E-02    1.70       1.1  T
   8    -99.9711005 -0.539333E-05  0.606E-03    1.70       2.1  T
   9    -99.9711014 -0.880539E-06  0.344E-03    1.69       3.6  T
  10    -99.9711020 -0.593358E-06  0.115E-03    1.69      10.9  T
  11    -99.9711020 -0.627953E-07  0.442E-04    1.69      28.3  T
  12    -99.9711021 -0.382943E-08  0.205E-04    1.69      61.1  T

   *** convergence criteria satisfied after 12 iterations ***

         #    Occupation            Energy/Eh            Energy/eV
      -------------------------------------------------------------
         1        2.0000           -0.7179134             -19.5354
       ...           ...                  ...                  ...
        85        2.0000           -0.3972732             -10.8104
        86        2.0000           -0.3891294             -10.5887
        87        2.0000           -0.3857751             -10.4975
        88        2.0000           -0.3795908             -10.3292
        89        2.0000           -0.3687269             -10.0336
        90        2.0000           -0.3639102              -9.9025
        91        1.0000           -0.3398269              -9.2472 (HOMO)
        92                         -0.2775576              -7.5527 (LUMO)
        93                         -0.2640099              -7.1841
        94                         -0.2589103              -7.0453
        95                         -0.2411725              -6.5626
        96                         -0.2271305              -6.1805
       ...                                ...                  ...
       175                          0.7236941              19.6927
      -------------------------------------------------------------
                  HL-Gap            0.0622693 Eh            1.6944 eV
             Fermi-level           -0.3302789 Eh           -8.9873 eV

 SCC (total)                   0 d,  0 h,  0 min,  0.406 sec
 SCC setup                      ...        0 min,  0.000 sec (  0.036%)
 Dispersion                     ...        0 min,  0.000 sec (  0.113%)
 classical contributions        ...        0 min,  0.000 sec (  0.026%)
 integral evaluation            ...        0 min,  0.002 sec (  0.510%)
 iterations                     ...        0 min,  0.379 sec ( 93.263%)
 molecular gradient             ...        0 min,  0.014 sec (  3.425%)
 printout                       ...        0 min,  0.011 sec (  2.623%)

         :::::::::::::::::::::::::::::::::::::::::::::::::::::
         ::                     SUMMARY                     ::
         :::::::::::::::::::::::::::::::::::::::::::::::::::::
         :: total energy             -98.354764934878 Eh    ::
         :: gradient norm              0.072641196051 Eh/a0 ::
         :: HOMO-LUMO gap              1.694434126126 eV    ::
         ::.................................................::
         :: SCC energy               -99.971102050260 Eh    ::
         :: -> isotropic ES            0.070335463643 Eh    ::
         :: -> anisotropic ES          0.005966129132 Eh    ::
         :: -> anisotropic XC          0.043081690180 Eh    ::
         :: -> dispersion             -0.089430882773 Eh    ::
         :: repulsion energy           1.614823233035 Eh    ::
         :: add. restraining           0.000000000000 Eh    ::
         :: total charge               0.000042213484 e     ::
         :::::::::::::::::::::::::::::::::::::::::::::::::::::

           -------------------------------------------------
          |                Property Printout                |
           -------------------------------------------------

    * Orbital Energies and Occupations

         #    Occupation            Energy/Eh            Energy/eV
      -------------------------------------------------------------
         1        2.0000           -0.7179134             -19.5354
       ...           ...                  ...                  ...
        79        2.0000           -0.4223789             -11.4935
        80        2.0000           -0.4183539             -11.3840
        81        2.0000           -0.4094690             -11.1422
        82        2.0000           -0.4081589             -11.1066
        83        2.0000           -0.4069829             -11.0746
        84        2.0000           -0.4005952             -10.9008
        85        2.0000           -0.3972732             -10.8104
        86        2.0000           -0.3891294             -10.5887
        87        2.0000           -0.3857751             -10.4975
        88        2.0000           -0.3795908             -10.3292
        89        2.0000           -0.3687269             -10.0336
        90        2.0000           -0.3639102              -9.9025
        91        1.0000           -0.3398269              -9.2472 (HOMO)
        92                         -0.2775576              -7.5527 (LUMO)
        93                         -0.2640099              -7.1841
        94                         -0.2589103              -7.0453
        95                         -0.2411725              -6.5626
        96                         -0.2271305              -6.1805
        97                         -0.2048930              -5.5754
        98                         -0.1879906              -5.1155
        99                         -0.1804312              -4.9098
       100                         -0.1725643              -4.6957
       101                         -0.1467490              -3.9932
       102                         -0.1187829              -3.2322
       ...                                ...                  ...
       175                          0.7236941              19.6927
      -------------------------------------------------------------
                  HL-Gap            0.0622693 Eh            1.6944 eV
             Fermi-level           -0.3302789 Eh           -8.9873 eV

     #   Z          covCN         q      C6AA      α(0)
     1   6 C        2.979     0.004    27.917     8.667
     2   6 C        2.978     0.003    27.944     8.671
     3   6 C        2.979     0.003    27.957     8.673
     4   6 C        2.989     0.010    27.795     8.648
     5   6 C        2.987     0.010    27.776     8.645
     6   6 C        2.987     0.009    27.806     8.650
     7   6 C        2.979     0.013    27.708     8.634
     8   6 C        2.981     0.011    27.771     8.644
     9   6 C        2.987     0.012    27.737     8.639
    10   6 C        2.988     0.012    27.732     8.638
    11   6 C        2.918    -0.037    28.918     8.818
    12   6 C        2.918    -0.038    28.950     8.823
    13   6 C        2.918    -0.038    28.942     8.822
    14   6 C        2.917    -0.037    28.922     8.819
    15   6 C        2.916    -0.037    28.918     8.818
    16   6 C        2.917    -0.037    28.923     8.819
    17   6 C        2.916    -0.036    28.898     8.815
    18   6 C        2.915    -0.036    28.906     8.816
    19   6 C        2.917    -0.033    28.814     8.802
    20   6 C        2.920    -0.034    28.835     8.806
    21   6 C        2.928    -0.042    29.051     8.839
    22   6 C        2.923    -0.035    28.863     8.810
    23   6 C        2.920    -0.040    28.998     8.831
    24   6 C        2.918    -0.031    28.773     8.796
    25   6 C        2.967     0.010    27.801     8.649
    26   6 C        2.916    -0.030    28.737     8.791
    27   1 H        0.925     0.032     2.561     2.503
    28   1 H        0.925     0.031     2.573     2.508
    29   1 H        0.925     0.031     2.567     2.506
    30   1 H        0.925     0.031     2.576     2.510
    31   1 H        0.925     0.032     2.554     2.499
    32   1 H        0.925     0.030     2.580     2.512
    33   1 H        0.926     0.038     2.469     2.457
    34   1 H        0.925     0.031     2.565     2.505
    35   1 H        0.926     0.039     2.461     2.453
    36   1 H        0.926     0.033     2.542     2.493
    37   1 H        0.926     0.082     1.955     2.186
    38   1 H        0.925     0.032     2.561     2.503
    39   1 H        0.926     0.077     2.011     2.217
    40   1 H        0.926     0.028     2.617     2.530
    41   6 C        2.901     0.062    26.608     8.458
    42   1 H        0.926     0.029     2.600     2.521
    43   6 C        3.891     0.050    19.685     6.307
    44   6 C        3.891     0.051    19.673     6.305
    45   6 C        3.758    -0.115    22.757     6.801
    46   6 C        3.759    -0.113    22.713     6.794
    47   6 C        3.758    -0.116    22.763     6.802
    48   6 C        3.759    -0.113    22.715     6.795
    49   7 N        2.800     0.175    18.324     6.358
    50   8 O        0.923    -0.447    22.605     6.376
    51   7 N        2.800     0.170    18.387     6.369
    52   8 O        0.922    -0.450    22.669     6.385
    53   1 H        0.925     0.044     2.393     2.419
    54   1 H        0.925     0.057     2.240     2.341
    55   1 H        0.925     0.072     2.062     2.245
    56   1 H        0.925     0.054     2.267     2.354
    57   1 H        0.925     0.078     1.998     2.210
    58   1 H        0.925     0.050     2.321     2.382
    59   1 H        0.925     0.044     2.401     2.423
    60   1 H        0.925     0.056     2.242     2.342
    61   1 H        0.925     0.072     2.061     2.245
    62   1 H        0.925     0.054     2.266     2.354
    63   1 H        0.925     0.079     1.993     2.208
    64   1 H        0.925     0.050     2.322     2.383

 Mol. C6AA /au·bohr⁶  :      53340.255393
 Mol. C8AA /au·bohr⁸  :    1320709.776058
 Mol. α(0) /au        :        365.945709


Wiberg/Mayer (AO) data.
largest (>0.10) Wiberg bond orders for each atom

 ---------------------------------------------------------------------------
     #   Z sym  total        # sym  WBO       # sym  WBO       # sym  WBO
 ---------------------------------------------------------------------------
     1   6 C    3.984 --     4 C    1.291     3 C    1.226     2 C    1.212
     2   6 C    3.985 --     5 C    1.315     1 C    1.212     7 C    1.191
     3   6 C    3.987 --     6 C    1.314     1 C    1.226     8 C    1.179
     4   6 C    3.982 --     1 C    1.291    11 C    1.257    12 C    1.245
     5   6 C    3.980 --     2 C    1.315    13 C    1.258    15 C    1.219
     6   6 C    3.986 --     3 C    1.314    14 C    1.249    16 C    1.230
     7   6 C    3.987 --    19 C    1.303     9 C    1.264     2 C    1.191
     8   6 C    3.988 --    20 C    1.322    10 C    1.273     3 C    1.179
     9   6 C    3.986 --    21 C    1.332     7 C    1.264    17 C    1.211
    10   6 C    3.987 --    22 C    1.311     8 C    1.273    18 C    1.221
    11   6 C    3.976 --    13 C    1.579     4 C    1.257    27 H    0.967
    12   6 C    3.980 --    14 C    1.594     4 C    1.245    28 H    0.967
    13   6 C    3.975 --    11 C    1.579     5 C    1.258    29 H    0.967
    14   6 C    3.976 --    12 C    1.594     6 C    1.249    30 H    0.967
    15   6 C    3.987 --    17 C    1.633     5 C    1.219    31 H    0.966
    16   6 C    3.987 --    18 C    1.620     6 C    1.230    32 H    0.967
    17   6 C    3.978 --    15 C    1.633     9 C    1.211    33 H    0.967
    18   6 C    3.980 --    16 C    1.620    10 C    1.221    34 H    0.968
    19   6 C    3.991 --    23 C    1.543     7 C    1.303    35 H    0.962
                            21 C    0.100
    20   6 C    3.992 --    24 C    1.513     8 C    1.322    36 H    0.962
                            22 C    0.114
    21   6 C    3.974 --    25 C    1.425     9 C    1.332    37 H    0.950
                            19 C    0.100
    22   6 C    3.985 --    26 C    1.519    10 C    1.311    38 H    0.968
                            20 C    0.114
    23   6 C    3.980 --    19 C    1.543    25 C    1.281    39 H    0.955
    24   6 C    3.987 --    20 C    1.513    26 C    1.357    40 H    0.971
    25   6 C    3.971 --    21 C    1.425    23 C    1.281    41 C    1.095
    26   6 C    3.983 --    22 C    1.519    24 C    1.357    42 H    0.971
    27   1 H    0.998 --    11 C    0.967
    28   1 H    0.998 --    12 C    0.967
    29   1 H    0.998 --    13 C    0.967
    30   1 H    0.998 --    14 C    0.967
    31   1 H    0.998 --    15 C    0.966
    32   1 H    0.998 --    16 C    0.967
    33   1 H    0.997 --    17 C    0.967
    34   1 H    0.998 --    18 C    0.968
    35   1 H    0.997 --    19 C    0.962
    36   1 H    0.998 --    20 C    0.962
    37   1 H    0.993 --    21 C    0.950
    38   1 H    0.998 --    22 C    0.968
    39   1 H    0.994 --    23 C    0.955
    40   1 H    0.999 --    24 C    0.971
    41   6 C    3.945 --    49 N    1.259    51 N    1.255    25 C    1.095
                            50 O    0.128    52 O    0.126
    42   1 H    0.998 --    26 C    0.971
    43   6 C    3.964 --    45 C    0.996    48 C    0.978    44 C    0.959
                            49 N    0.923
    44   6 C    3.964 --    47 C    0.996    46 C    0.978    43 C    0.959
                            51 N    0.924
    45   6 C    3.987 --    43 C    0.996    58 H    0.983    56 H    0.981
Note: The following floating-point exceptions are signalling: IEEE_UNDERFLOW_FLAG
normal termination of xtb
                            57 H    0.976
    46   6 C    3.988 --    59 H    0.984    60 H    0.981    61 H    0.979
                            44 C    0.978
    47   6 C    3.987 --    44 C    0.996    64 H    0.983    62 H    0.981
                            63 H    0.976
    48   6 C    3.987 --    53 H    0.984    54 H    0.981    55 H    0.979
                            43 C    0.978
    49   7 N    3.699 --    50 O    1.279    41 C    1.259    43 C    0.923
    50   8 O    1.716 --    49 N    1.279    41 C    0.128    52 O    0.104
    51   7 N    3.694 --    52 O    1.275    41 C    1.255    44 C    0.924
    52   8 O    1.713 --    51 N    1.275    41 C    0.126    50 O    0.104
    53   1 H    0.998 --    48 C    0.984
    54   1 H    0.996 --    48 C    0.981
    55   1 H    0.994 --    48 C    0.979
    56   1 H    0.997 --    45 C    0.981
    57   1 H    0.993 --    45 C    0.976
    58   1 H    0.997 --    45 C    0.983
    59   1 H    0.998 --    46 C    0.984
    60   1 H    0.996 --    46 C    0.981
    61   1 H    0.994 --    46 C    0.979
    62   1 H    0.997 --    47 C    0.981
    63   1 H    0.993 --    47 C    0.976
    64   1 H    0.997 --    47 C    0.983
 ---------------------------------------------------------------------------

Topologies differ in bond orders
Writing corrected topology to xtbtopo.mol

molecular dipole:
                 x           y           z       tot (Debye)
 q only:       -0.864      -0.500      -0.006
   full:       -0.837      -0.475       0.022       2.446
molecular quadrupole (traceless):
                xx          xy          yy          xz          yz          zz
 q only:       16.377      20.447      -4.999      -1.397       6.006     -11.378
  q+dip:       16.394      21.785      -0.018       6.531       6.496     -16.376
   full:       16.194      21.380      -4.660       0.033       7.976     -11.534


           -------------------------------------------------
          | TOTAL ENERGY              -98.354764934878 Eh   |
          | GRADIENT NORM               0.072641196051 Eh/α |
          | HOMO-LUMO GAP               1.694434126126 eV   |
           -------------------------------------------------
########################################################################
[WARNING] Runtime exception occurred
-2- restart_readRestart: Multiplicity missmatch in restart file.
-1- restart_readRestart: Number of electron missmatch in restart file.
########################################################################

------------------------------------------------------------------------
 * finished run on 2024/11/14 at 10:51:52.283     
------------------------------------------------------------------------
 total:
 * wall-time:     0 d,  0 h,  0 min,  0.414 sec
 *  cpu-time:     0 d,  0 h,  0 min,  1.450 sec
 * ratio c/w:     3.505 speedup
 SCF:
 * wall-time:     0 d,  0 h,  0 min,  0.406 sec
 *  cpu-time:     0 d,  0 h,  0 min,  1.436 sec
 * ratio c/w:     3.537 speedup

