      -----------------------------------------------------------      
     |                   =====================                   |     
     |                           x T B                           |     
     |                   =====================                   |     
     |                         S. Grimme                         |     
     |          Mulliken Center for Theoretical Chemistry        |     
     |                    University of Bonn                     |     
      -----------------------------------------------------------      

   * xtb version 6.6.1 (8d0f1dd) compiled by 'runner@Mac-1690902418499.local' on 2023-08-01

   xtb is free software: you can redistribute it and/or modify it under
   the terms of the GNU Lesser General Public License as published by
   the Free Software Foundation, either version 3 of the License, or
   (at your option) any later version.
   
   xtb is distributed in the hope that it will be useful,
   but WITHOUT ANY WARRANTY; without even the implied warranty of
   MERCHANTABILITY or FITNESS FOR A PARTICULAR PURPOSE.  See the
   GNU Lesser General Public License for more details.
   
   Cite this work as:
   * C. Bannwarth, E. Caldeweyher, S. Ehlert, A. Hansen, P. Pracht,
     J. Seibert, S. Spicher, S. Grimme, WIREs Comput. Mol. Sci., 2020, 11,
     e01493. DOI: 10.1002/wcms.1493
   
   for GFN2-xTB:
   * C. Bannwarth, S. Ehlert and S. Grimme., J. Chem. Theory Comput., 2019,
     15, 1652-1671. DOI: 10.1021/acs.jctc.8b01176
   for GFN1-xTB:
   * S. Grimme, C. Bannwarth, P. Shushkov, J. Chem. Theory Comput., 2017,
     13, 1989-2009. DOI: 10.1021/acs.jctc.7b00118
   for GFN0-xTB:
   * P. Pracht, E. Caldeweyher, S. Ehlert, S. Grimme, ChemRxiv, 2019, preprint.
     DOI: 10.26434/chemrxiv.8326202.v1
   for GFN-FF:
   * S. Spicher and S. Grimme, Angew. Chem. Int. Ed., 2020, 59, 15665-15673.
     DOI: 10.1002/anie.202004239
   
   for ALPB and GBSA implicit solvation:
   * S. Ehlert, M. Stahn, S. Spicher, S. Grimme, J. Chem. Theory Comput.,
     2021, 17, 4250-4261. DOI: 10.1021/acs.jctc.1c00471
   
   for DFT-D4:
   * E. Caldeweyher, C. Bannwarth and S. Grimme, J. Chem. Phys., 2017,
     147, 034112. DOI: 10.1063/1.4993215
   * E. Caldeweyher, S. Ehlert, A. Hansen, H. Neugebauer, S. Spicher,
     C. Bannwarth and S. Grimme, J. Chem. Phys., 2019, 150, 154122.
     DOI: 10.1063/1.5090222
   * E. Caldeweyher, J.-M. Mewes, S. Ehlert and S. Grimme, Phys. Chem. Chem. Phys.
     2020, 22, 8499-8512. DOI: 10.1039/D0CP00502A
   
   for sTDA-xTB:
   * S. Grimme and C. Bannwarth, J. Chem. Phys., 2016, 145, 054103.
     DOI: 10.1063/1.4959605
   
   in the mass-spec context:
   * V. Asgeirsson, C. Bauer and S. Grimme, Chem. Sci., 2017, 8, 4879.
     DOI: 10.1039/c7sc00601b
   * J. Koopman and S. Grimme, ACS Omega 2019, 4, 12, 15120-15133.
     DOI: 10.1021/acsomega.9b02011
   
   for metadynamics refer to:
   * S. Grimme, J. Chem. Theory Comput., 2019, 155, 2847-2862
     DOI: 10.1021/acs.jctc.9b00143
   
   for SPH calculations refer to:
   * S. Spicher and S. Grimme, J. Chem. Theory Comput., 2021, 17, 1701-1714
     DOI: 10.1021/acs.jctc.0c01306
   
   with help from (in alphabetical order)
   P. Atkinson, C. Bannwarth, F. Bohle, G. Brandenburg, E. Caldeweyher
   M. Checinski, S. Dohm, S. Ehlert, S. Ehrlich, I. Gerasimov, C. Hölzer
   A. Katbashev, J. Koopman, C. Lavigne, S. Lehtola, F. März, M. Müller,
   F. Musil, H. Neugebauer, J. Pisarek, C. Plett, P. Pracht, F. Pultar,
   J. Seibert, P. Shushkov, S. Spicher, M. Stahn, M. Steiner, T. Strunk,
   J. Stückrath, T. Rose, and J. Unsleber
   
 * started run on 2024/11/14 at 10:51:53.819     

           -------------------------------------------------
          |                Calculation Setup                |
           -------------------------------------------------

          program call               : xtb opt_cation_Nitro2.mol --gfn2 --sp --chrg 0 --uhf 1
          coordinate file            : opt_cation_Nitro2.mol
          omp threads                :                     8

   ID    Z sym.   atoms
    1    6 C      1-26, 41, 43-48
    2    1 H      27-40, 42, 53-64
    3    7 N      49, 51
    4    8 O      50, 52
########################################################################
[WARNING] Please study the warnings concerning your input carefully
-1- prog_main: Charge in sdf/mol input was overwritten
########################################################################

           -------------------------------------------------
          |                 G F N 2 - x T B                 |
           -------------------------------------------------

        Reference                      10.1021/acs.jctc.8b01176
      * Hamiltonian:
        H0-scaling (s, p, d)           1.850000    2.230000    2.230000
        zeta-weighting                 0.500000
      * Dispersion:
        s8                             2.700000
        a1                             0.520000
        a2                             5.000000
        s9                             5.000000
      * Repulsion:
        kExp                           1.500000    1.000000
        rExp                           1.000000
      * Coulomb:
        alpha                          2.000000
        third order                    shell-resolved
        anisotropic                    true
        a3                             3.000000
        a5                             4.000000
        cn-shift                       1.200000
        cn-exp                         4.000000
        max-rad                        5.000000

q/qsh data taken from xtbrestart
CAMM data taken from xtbrestart

          ...................................................
          :                      SETUP                      :
          :.................................................:
          :  # basis functions                 175          :
          :  # atomic orbitals                 175          :
          :  # shells                          101          :
          :  # electrons                       181          :
          :  max. iterations                   250          :
          :  Hamiltonian                  GFN2-xTB          :
          :  restarted?                       true          :
          :  GBSA solvation                  false          :
          :  PC potential                    false          :
          :  electronic temp.          300.0000000     K    :
          :  accuracy                    1.0000000          :
          :  -> integral cutoff          0.2500000E+02      :
          :  -> integral neglect         0.1000000E-07      :
          :  -> SCF convergence          0.1000000E-05 Eh   :
          :  -> wf. convergence          0.1000000E-03 e    :
          :  Broyden damping             0.4000000          :
          ...................................................

 iter      E             dE          RMSdq      gap      omega  full diag
   1    -99.9559014 -0.999559E+02  0.684E-01    2.03       0.0  T
   2    -99.9870779 -0.311765E-01  0.332E-01    0.99       1.0  T
   3    -99.9898888 -0.281092E-02  0.215E-01    1.25       1.0  T
   4    -99.9901944 -0.305625E-03  0.152E-01    1.25       1.0  T
   5    -99.9904451 -0.250640E-03  0.679E-02    1.30       1.0  T
   6    -99.9905224 -0.773695E-04  0.323E-02    1.29       1.0  T
   7    -99.9905964 -0.739885E-04  0.886E-03    1.29       1.4  T
   8    -99.9905992 -0.278627E-05  0.467E-03    1.29       2.7  T
   9    -99.9905994 -0.223899E-06  0.249E-03    1.29       5.0  T
  10    -99.9905996 -0.209686E-06  0.100E-03    1.29      12.5  T
  11    -99.9905997 -0.553564E-07  0.357E-04    1.29      35.0  T
  12    -99.9905997 -0.343375E-08  0.193E-04    1.29      64.6  T

   *** convergence criteria satisfied after 12 iterations ***

         #    Occupation            Energy/Eh            Energy/eV
      -------------------------------------------------------------
         1        2.0000           -0.7159157             -19.4811
       ...           ...                  ...                  ...
        85        2.0000           -0.3961032             -10.7785
        86        2.0000           -0.3899322             -10.6106
        87        2.0000           -0.3839870             -10.4488
        88        2.0000           -0.3759536             -10.2302
        89        2.0000           -0.3669725              -9.9858
        90        2.0000           -0.3605240              -9.8104
        91        1.0000           -0.3189506              -8.6791 (HOMO)
        92                         -0.2715943              -7.3905 (LUMO)
        93                         -0.2624338              -7.1412
        94                         -0.2526451              -6.8748
        95                         -0.2398541              -6.5268
        96                         -0.2228100              -6.0630
       ...                                ...                  ...
       175                          0.7256202              19.7451
      -------------------------------------------------------------
                  HL-Gap            0.0473563 Eh            1.2886 eV
             Fermi-level           -0.3175046 Eh           -8.6397 eV

 SCC (total)                   0 d,  0 h,  0 min,  0.554 sec
 SCC setup                      ...        0 min,  0.000 sec (  0.036%)
 Dispersion                     ...        0 min,  0.000 sec (  0.089%)
 classical contributions        ...        0 min,  0.000 sec (  0.026%)
 integral evaluation            ...        0 min,  0.003 sec (  0.559%)
 iterations                     ...        0 min,  0.516 sec ( 93.105%)
 molecular gradient             ...        0 min,  0.022 sec (  3.980%)
 printout                       ...        0 min,  0.012 sec (  2.202%)

         :::::::::::::::::::::::::::::::::::::::::::::::::::::
         ::                     SUMMARY                     ::
         :::::::::::::::::::::::::::::::::::::::::::::::::::::
         :: total energy             -98.357262320676 Eh    ::
         :: gradient norm              0.069616892696 Eh/a0 ::
         :: HOMO-LUMO gap              1.288631132832 eV    ::
         ::.................................................::
         :: SCC energy               -99.990599706047 Eh    ::
         :: -> isotropic ES            0.065599703779 Eh    ::
         :: -> anisotropic ES          0.009246518553 Eh    ::
         :: -> anisotropic XC          0.040442270109 Eh    ::
         :: -> dispersion             -0.090145469223 Eh    ::
         :: repulsion energy           1.631771958049 Eh    ::
         :: add. restraining           0.000000000000 Eh    ::
         :: total charge              -0.000049827463 e     ::
         :::::::::::::::::::::::::::::::::::::::::::::::::::::

           -------------------------------------------------
          |                Property Printout                |
           -------------------------------------------------

    * Orbital Energies and Occupations

         #    Occupation            Energy/Eh            Energy/eV
      -------------------------------------------------------------
         1        2.0000           -0.7159157             -19.4811
       ...           ...                  ...                  ...
        79        2.0000           -0.4200476             -11.4301
        80        2.0000           -0.4141470             -11.2695
        81        2.0000           -0.4074059             -11.0861
        82        2.0000           -0.4061153             -11.0510
        83        2.0000           -0.4046352             -11.0107
        84        2.0000           -0.4003774             -10.8948
        85        2.0000           -0.3961032             -10.7785
        86        2.0000           -0.3899322             -10.6106
        87        2.0000           -0.3839870             -10.4488
        88        2.0000           -0.3759536             -10.2302
        89        2.0000           -0.3669725              -9.9858
        90        2.0000           -0.3605240              -9.8104
        91        1.0000           -0.3189506              -8.6791 (HOMO)
        92                         -0.2715943              -7.3905 (LUMO)
        93                         -0.2624338              -7.1412
        94                         -0.2526451              -6.8748
        95                         -0.2398541              -6.5268
        96                         -0.2228100              -6.0630
        97                         -0.2029689              -5.5231
        98                         -0.1853531              -5.0437
        99                         -0.1789070              -4.8683
       100                         -0.1709113              -4.6507
       101                         -0.1460623              -3.9746
       102                         -0.1181095              -3.2139
       ...                                ...                  ...
       175                          0.7256202              19.7451
      -------------------------------------------------------------
                  HL-Gap            0.0473563 Eh            1.2886 eV
             Fermi-level           -0.3175046 Eh           -8.6397 eV

     #   Z          covCN         q      C6AA      α(0)
     1   6 C        2.980     0.004    27.921     8.668
     2   6 C        2.979     0.004    27.938     8.670
     3   6 C        2.980     0.003    27.957     8.673
     4   6 C        2.988     0.009    27.807     8.650
     5   6 C        2.986     0.009    27.801     8.649
     6   6 C        2.986     0.008    27.830     8.654
     7   6 C        2.981     0.012    27.738     8.639
     8   6 C        2.981     0.011    27.771     8.644
     9   6 C        2.987     0.012    27.745     8.640
    10   6 C        2.987     0.012    27.732     8.638
    11   6 C        2.917    -0.038    28.943     8.822
    12   6 C        2.917    -0.039    28.968     8.826
    13   6 C        2.917    -0.038    28.955     8.824
    14   6 C        2.916    -0.038    28.936     8.821
    15   6 C        2.916    -0.037    28.922     8.819
    16   6 C        2.915    -0.038    28.952     8.823
    17   6 C        2.915    -0.036    28.903     8.816
    18   6 C        2.915    -0.037    28.922     8.819
    19   6 C        2.918    -0.032    28.807     8.801
    20   6 C        2.919    -0.033    28.823     8.804
    21   6 C        2.926    -0.038    28.934     8.821
    22   6 C        2.922    -0.034    28.843     8.807
    23   6 C        2.919    -0.032    28.807     8.801
    24   6 C        2.917    -0.030    28.760     8.794
    25   6 C        2.969     0.016    27.649     8.625
    26   6 C        2.915    -0.028    28.697     8.784
    27   1 H        0.926     0.031     2.567     2.505
    28   1 H        0.926     0.031     2.576     2.510
    29   1 H        0.926     0.031     2.569     2.506
    30   1 H        0.926     0.031     2.575     2.510
    31   1 H        0.926     0.032     2.553     2.499
    32   1 H        0.926     0.030     2.584     2.514
    33   1 H        0.926     0.037     2.492     2.469
    34   1 H        0.926     0.031     2.569     2.506
    35   1 H        0.926     0.039     2.464     2.455
    36   1 H        0.926     0.032     2.562     2.503
    37   1 H        0.926     0.065     2.140     2.287
    38   1 H        0.926     0.033     2.543     2.494
    39   1 H        0.926     0.058     2.218     2.329
    40   1 H        0.926     0.028     2.622     2.532
    41   6 C        2.893     0.029    27.348     8.574
    42   1 H        0.926     0.031     2.571     2.507
    43   6 C        3.885     0.042    19.813     6.328
    44   6 C        3.884     0.043    19.812     6.328
    45   6 C        3.761    -0.114    22.719     6.795
    46   6 C        3.758    -0.112    22.698     6.792
    47   6 C        3.761    -0.114    22.720     6.795
    48   6 C        3.758    -0.112    22.695     6.792
    49   7 N        2.807     0.202    17.913     6.286
    50   8 O        0.927    -0.432    22.290     6.332
    51   7 N        2.807     0.202    17.911     6.286
    52   8 O        0.927    -0.433    22.320     6.336
    53   1 H        0.925     0.055     2.253     2.347
    54   1 H        0.925     0.048     2.343     2.394
    55   1 H        0.925     0.073     2.048     2.238
    56   1 H        0.925     0.045     2.387     2.416
    57   1 H        0.925     0.066     2.133     2.284
    58   1 H        0.925     0.056     2.250     2.346
    59   1 H        0.925     0.055     2.257     2.350
    60   1 H        0.925     0.048     2.343     2.394
    61   1 H        0.925     0.074     2.046     2.237
    62   1 H        0.925     0.045     2.381     2.413
    63   1 H        0.925     0.066     2.126     2.280
    64   1 H        0.925     0.055     2.253     2.347

 Mol. C6AA /au·bohr⁶  :      53393.611531
 Mol. C8AA /au·bohr⁸  :    1321433.379055
 Mol. α(0) /au        :        366.148649


Wiberg/Mayer (AO) data.
largest (>0.10) Wiberg bond orders for each atom

 ---------------------------------------------------------------------------
     #   Z sym  total        # sym  WBO       # sym  WBO       # sym  WBO
 ---------------------------------------------------------------------------
     1   6 C    3.985 --     4 C    1.291     3 C    1.227     2 C    1.213
     2   6 C    3.986 --     5 C    1.316     1 C    1.213     7 C    1.189
     3   6 C    3.987 --     6 C    1.313     1 C    1.227     8 C    1.178
     4   6 C    3.982 --     1 C    1.291    11 C    1.255    12 C    1.246
     5   6 C    3.981 --     2 C    1.316    13 C    1.256    15 C    1.220
     6   6 C    3.986 --     3 C    1.313    14 C    1.250    16 C    1.231
     7   6 C    3.988 --    19 C    1.304     9 C    1.268     2 C    1.189
     8   6 C    3.989 --    20 C    1.324    10 C    1.271     3 C    1.178
     9   6 C    3.986 --    21 C    1.326     7 C    1.268    17 C    1.213
    10   6 C    3.987 --    22 C    1.312     8 C    1.271    18 C    1.222
    11   6 C    3.977 --    13 C    1.582     4 C    1.255    27 H    0.967
    12   6 C    3.980 --    14 C    1.592     4 C    1.246    28 H    0.967
    13   6 C    3.975 --    11 C    1.582     5 C    1.256    29 H    0.968
    14   6 C    3.976 --    12 C    1.592     6 C    1.250    30 H    0.967
    15   6 C    3.988 --    17 C    1.631     5 C    1.220    31 H    0.967
    16   6 C    3.988 --    18 C    1.619     6 C    1.231    32 H    0.967
    17   6 C    3.978 --    15 C    1.631     9 C    1.213    33 H    0.967
    18   6 C    3.980 --    16 C    1.619    10 C    1.222    34 H    0.968
    19   6 C    3.991 --    23 C    1.541     7 C    1.304    35 H    0.962
                            21 C    0.102
    20   6 C    3.992 --    24 C    1.511     8 C    1.324    36 H    0.964
                            22 C    0.114
    21   6 C    3.980 --    25 C    1.440     9 C    1.326    37 H    0.961
                            19 C    0.102
    22   6 C    3.984 --    26 C    1.517    10 C    1.312    38 H    0.968
                            20 C    0.114
    23   6 C    3.984 --    19 C    1.541    25 C    1.288    39 H    0.964
    24   6 C    3.987 --    20 C    1.511    26 C    1.359    40 H    0.971
    25   6 C    3.972 --    21 C    1.440    23 C    1.288    41 C    1.076
    26   6 C    3.983 --    22 C    1.517    24 C    1.359    42 H    0.971
    27   1 H    0.998 --    11 C    0.967
    28   1 H    0.998 --    12 C    0.967
    29   1 H    0.998 --    13 C    0.968
    30   1 H    0.998 --    14 C    0.967
    31   1 H    0.998 --    15 C    0.967
    32   1 H    0.998 --    16 C    0.967
    33   1 H    0.997 --    17 C    0.967
    34   1 H    0.998 --    18 C    0.968
    35   1 H    0.997 --    19 C    0.962
    36   1 H    0.999 --    20 C    0.964
    37   1 H    0.995 --    21 C    0.961
    38   1 H    0.998 --    22 C    0.968
    39   1 H    0.996 --    23 C    0.964
    40   1 H    0.999 --    24 C    0.971
    41   6 C    3.941 --    51 N    1.243    49 N    1.240    25 C    1.076
                            52 O    0.152    50 O    0.150
    42   1 H    0.998 --    26 C    0.971
    43   6 C    3.968 --    48 C    0.999    45 C    0.980    44 C    0.959
                            49 N    0.910
    44   6 C    3.968 --    46 C    0.999    47 C    0.981    43 C    0.959
                            51 N    0.910
    45   6 C    3.989 --    56 H    0.984    58 H    0.980    43 C    0.980
Note: The following floating-point exceptions are signalling: IEEE_UNDERFLOW_FLAG
normal termination of xtb
                            57 H    0.980
    46   6 C    3.988 --    44 C    0.999    60 H    0.982    59 H    0.981
                            61 H    0.978
    47   6 C    3.989 --    62 H    0.984    44 C    0.981    64 H    0.981
                            63 H    0.980
    48   6 C    3.988 --    43 C    0.999    54 H    0.982    53 H    0.981
                            55 H    0.978
    49   7 N    3.714 --    50 O    1.330    41 C    1.240    43 C    0.910
    50   8 O    1.765 --    49 N    1.330    41 C    0.150
    51   7 N    3.716 --    52 O    1.328    41 C    1.243    44 C    0.910
    52   8 O    1.767 --    51 N    1.328    41 C    0.152
    53   1 H    0.997 --    48 C    0.981
    54   1 H    0.997 --    48 C    0.982
    55   1 H    0.994 --    48 C    0.978
    56   1 H    0.998 --    45 C    0.984
    57   1 H    0.995 --    45 C    0.980
    58   1 H    0.996 --    45 C    0.980
    59   1 H    0.997 --    46 C    0.981
    60   1 H    0.997 --    46 C    0.982
    61   1 H    0.994 --    46 C    0.978
    62   1 H    0.998 --    47 C    0.984
    63   1 H    0.995 --    47 C    0.980
    64   1 H    0.996 --    47 C    0.981
 ---------------------------------------------------------------------------

Topologies differ in bond orders
Writing corrected topology to xtbtopo.mol

molecular dipole:
                 x           y           z       tot (Debye)
 q only:       -0.968      -0.636      -0.055
   full:       -0.999      -0.652      -0.027       3.032
molecular quadrupole (traceless):
                xx          xy          yy          xz          yz          zz
 q only:       13.247      22.067      -5.984       2.337      -1.563      -7.262
  q+dip:       13.387      24.691      -1.741      11.257      -3.379     -11.645
   full:       13.086      24.284      -6.477       4.857      -1.962      -6.609


           -------------------------------------------------
          | TOTAL ENERGY              -98.357262320676 Eh   |
          | GRADIENT NORM               0.069616892696 Eh/α |
          | HOMO-LUMO GAP               1.288631132832 eV   |
           -------------------------------------------------
########################################################################
[WARNING] Runtime exception occurred
-2- restart_readRestart: Multiplicity missmatch in restart file.
-1- restart_readRestart: Number of electron missmatch in restart file.
########################################################################

------------------------------------------------------------------------
 * finished run on 2024/11/14 at 10:51:54.388     
------------------------------------------------------------------------
 total:
 * wall-time:     0 d,  0 h,  0 min,  0.568 sec
 *  cpu-time:     0 d,  0 h,  0 min,  2.149 sec
 * ratio c/w:     3.785 speedup
 SCF:
 * wall-time:     0 d,  0 h,  0 min,  0.554 sec
 *  cpu-time:     0 d,  0 h,  0 min,  2.134 sec
 * ratio c/w:     3.851 speedup

