      -----------------------------------------------------------      
     |                   =====================                   |     
     |                           x T B                           |     
     |                   =====================                   |     
     |                         S. Grimme                         |     
     |          Mulliken Center for Theoretical Chemistry        |     
     |                    University of Bonn                     |     
      -----------------------------------------------------------      

   * xtb version 6.6.1 (8d0f1dd) compiled by 'runner@Mac-1690902418499.local' on 2023-08-01

   xtb is free software: you can redistribute it and/or modify it under
   the terms of the GNU Lesser General Public License as published by
   the Free Software Foundation, either version 3 of the License, or
   (at your option) any later version.
   
   xtb is distributed in the hope that it will be useful,
   but WITHOUT ANY WARRANTY; without even the implied warranty of
   MERCHANTABILITY or FITNESS FOR A PARTICULAR PURPOSE.  See the
   GNU Lesser General Public License for more details.
   
   Cite this work as:
   * C. Bannwarth, E. Caldeweyher, S. Ehlert, A. Hansen, P. Pracht,
     J. Seibert, S. Spicher, S. Grimme, WIREs Comput. Mol. Sci., 2020, 11,
     e01493. DOI: 10.1002/wcms.1493
   
   for GFN2-xTB:
   * C. Bannwarth, S. Ehlert and S. Grimme., J. Chem. Theory Comput., 2019,
     15, 1652-1671. DOI: 10.1021/acs.jctc.8b01176
   for GFN1-xTB:
   * S. Grimme, C. Bannwarth, P. Shushkov, J. Chem. Theory Comput., 2017,
     13, 1989-2009. DOI: 10.1021/acs.jctc.7b00118
   for GFN0-xTB:
   * P. Pracht, E. Caldeweyher, S. Ehlert, S. Grimme, ChemRxiv, 2019, preprint.
     DOI: 10.26434/chemrxiv.8326202.v1
   for GFN-FF:
   * S. Spicher and S. Grimme, Angew. Chem. Int. Ed., 2020, 59, 15665-15673.
     DOI: 10.1002/anie.202004239
   
   for ALPB and GBSA implicit solvation:
   * S. Ehlert, M. Stahn, S. Spicher, S. Grimme, J. Chem. Theory Comput.,
     2021, 17, 4250-4261. DOI: 10.1021/acs.jctc.1c00471
   
   for DFT-D4:
   * E. Caldeweyher, C. Bannwarth and S. Grimme, J. Chem. Phys., 2017,
     147, 034112. DOI: 10.1063/1.4993215
   * E. Caldeweyher, S. Ehlert, A. Hansen, H. Neugebauer, S. Spicher,
     C. Bannwarth and S. Grimme, J. Chem. Phys., 2019, 150, 154122.
     DOI: 10.1063/1.5090222
   * E. Caldeweyher, J.-M. Mewes, S. Ehlert and S. Grimme, Phys. Chem. Chem. Phys.
     2020, 22, 8499-8512. DOI: 10.1039/D0CP00502A
   
   for sTDA-xTB:
   * S. Grimme and C. Bannwarth, J. Chem. Phys., 2016, 145, 054103.
     DOI: 10.1063/1.4959605
   
   in the mass-spec context:
   * V. Asgeirsson, C. Bauer and S. Grimme, Chem. Sci., 2017, 8, 4879.
     DOI: 10.1039/c7sc00601b
   * J. Koopman and S. Grimme, ACS Omega 2019, 4, 12, 15120-15133.
     DOI: 10.1021/acsomega.9b02011
   
   for metadynamics refer to:
   * S. Grimme, J. Chem. Theory Comput., 2019, 155, 2847-2862
     DOI: 10.1021/acs.jctc.9b00143
   
   for SPH calculations refer to:
   * S. Spicher and S. Grimme, J. Chem. Theory Comput., 2021, 17, 1701-1714
     DOI: 10.1021/acs.jctc.0c01306
   
   with help from (in alphabetical order)
   P. Atkinson, C. Bannwarth, F. Bohle, G. Brandenburg, E. Caldeweyher
   M. Checinski, S. Dohm, S. Ehlert, S. Ehrlich, I. Gerasimov, C. Hölzer
   A. Katbashev, J. Koopman, C. Lavigne, S. Lehtola, F. März, M. Müller,
   F. Musil, H. Neugebauer, J. Pisarek, C. Plett, P. Pracht, F. Pultar,
   J. Seibert, P. Shushkov, S. Spicher, M. Stahn, M. Steiner, T. Strunk,
   J. Stückrath, T. Rose, and J. Unsleber
   
 * started run on 2024/11/14 at 10:51:50.954     

           -------------------------------------------------
          |                Calculation Setup                |
           -------------------------------------------------

          program call               : xtb opt_radical_Nitro2.mol --gfn2 --sp --chrg 0 --uhf 1
          coordinate file            : opt_radical_Nitro2.mol
          omp threads                :                     8

   ID    Z sym.   atoms
    1    6 C      1-26, 41, 43-48
    2    1 H      27-40, 42, 53-64
    3    7 N      49, 51
    4    8 O      50, 52

           -------------------------------------------------
          |                 G F N 2 - x T B                 |
           -------------------------------------------------

        Reference                      10.1021/acs.jctc.8b01176
      * Hamiltonian:
        H0-scaling (s, p, d)           1.850000    2.230000    2.230000
        zeta-weighting                 0.500000
      * Dispersion:
        s8                             2.700000
        a1                             0.520000
        a2                             5.000000
        s9                             5.000000
      * Repulsion:
        kExp                           1.500000    1.000000
        rExp                           1.000000
      * Coulomb:
        alpha                          2.000000
        third order                    shell-resolved
        anisotropic                    true
        a3                             3.000000
        a5                             4.000000
        cn-shift                       1.200000
        cn-exp                         4.000000
        max-rad                        5.000000


          ...................................................
          :                      SETUP                      :
          :.................................................:
          :  # basis functions                 175          :
          :  # atomic orbitals                 175          :
          :  # shells                          101          :
          :  # electrons                       181          :
          :  max. iterations                   250          :
          :  Hamiltonian                  GFN2-xTB          :
          :  restarted?                      false          :
          :  GBSA solvation                  false          :
          :  PC potential                    false          :
          :  electronic temp.          300.0000000     K    :
          :  accuracy                    1.0000000          :
          :  -> integral cutoff          0.2500000E+02      :
          :  -> integral neglect         0.1000000E-07      :
          :  -> SCF convergence          0.1000000E-05 Eh   :
          :  -> wf. convergence          0.1000000E-03 e    :
          :  Broyden damping             0.4000000          :
          ...................................................

 iter      E             dE          RMSdq      gap      omega  full diag
   1    -99.7853084 -0.997853E+02  0.407E+00    0.33       0.0  T
   2    -99.9780615 -0.192753E+00  0.229E+00    1.43       1.0  T
   3    -99.9756325  0.242898E-02  0.112E+00    1.31       1.0  T
   4    -99.9691239  0.650860E-02  0.498E-01    1.57       1.0  T
   5    -99.9903733 -0.212494E-01  0.140E-01    1.50       1.0  T
   6    -99.9916398 -0.126645E-02  0.626E-02    1.52       1.0  T
   7    -99.9917394 -0.996651E-04  0.294E-02    1.52       1.0  T
   8    -99.9917582 -0.187832E-04  0.158E-02    1.52       1.0  T
   9    -99.9917624 -0.419784E-05  0.796E-03    1.52       1.6  T
  10    -99.9917669 -0.448200E-05  0.218E-03    1.52       5.7  T
  11    -99.9917670 -0.110443E-06  0.119E-03    1.52      10.5  T
  12    -99.9917671 -0.467256E-07  0.458E-04    1.52      27.3  T
  13    -99.9917671 -0.347725E-08  0.174E-04    1.52      71.7  T

   *** convergence criteria satisfied after 13 iterations ***

         #    Occupation            Energy/Eh            Energy/eV
      -------------------------------------------------------------
         1        2.0000           -0.7168539             -19.5066
       ...           ...                  ...                  ...
        85        2.0000           -0.3963272             -10.7846
        86        2.0000           -0.3886800             -10.5765
        87        2.0000           -0.3843159             -10.4578
        88        2.0000           -0.3773977             -10.2695
        89        2.0000           -0.3674932             -10.0000
        90        2.0000           -0.3631115              -9.8808
        91        1.0000           -0.3283641              -8.9352 (HOMO)
        92                         -0.2726081              -7.4180 (LUMO)
        93                         -0.2629329              -7.1548
        94                         -0.2548990              -6.9362
        95                         -0.2404096              -6.5419
        96                         -0.2238463              -6.0912
       ...                                ...                  ...
       175                          0.7248452              19.7240
      -------------------------------------------------------------
                  HL-Gap            0.0557559 Eh            1.5172 eV
             Fermi-level           -0.3231096 Eh           -8.7923 eV

 SCC (total)                   0 d,  0 h,  0 min,  0.233 sec
 SCC setup                      ...        0 min,  0.001 sec (  0.251%)
 Dispersion                     ...        0 min,  0.001 sec (  0.438%)
 classical contributions        ...        0 min,  0.000 sec (  0.115%)
 integral evaluation            ...        0 min,  0.002 sec (  1.063%)
 iterations                     ...        0 min,  0.203 sec ( 87.169%)
 molecular gradient             ...        0 min,  0.022 sec (  9.243%)
 printout                       ...        0 min,  0.004 sec (  1.716%)

         :::::::::::::::::::::::::::::::::::::::::::::::::::::
         ::                     SUMMARY                     ::
         :::::::::::::::::::::::::::::::::::::::::::::::::::::
         :: total energy             -98.360181636979 Eh    ::
         :: gradient norm              0.000671539833 Eh/a0 ::
         :: HOMO-LUMO gap              1.517196047452 eV    ::
         ::.................................................::
         :: SCC energy               -99.991767064830 Eh    ::
         :: -> isotropic ES            0.067316758045 Eh    ::
         :: -> anisotropic ES          0.007334219740 Eh    ::
         :: -> anisotropic XC          0.041455797108 Eh    ::
         :: -> dispersion             -0.090329773413 Eh    ::
         :: repulsion energy           1.629977734780 Eh    ::
         :: add. restraining           0.000000000000 Eh    ::
         :: total charge               0.000000000113 e     ::
         :::::::::::::::::::::::::::::::::::::::::::::::::::::

           -------------------------------------------------
          |                Property Printout                |
           -------------------------------------------------

    * Orbital Energies and Occupations

         #    Occupation            Energy/Eh            Energy/eV
      -------------------------------------------------------------
         1        2.0000           -0.7168539             -19.5066
       ...           ...                  ...                  ...
        79        2.0000           -0.4210268             -11.4567
        80        2.0000           -0.4170654             -11.3489
        81        2.0000           -0.4082045             -11.1078
        82        2.0000           -0.4068549             -11.0711
        83        2.0000           -0.4055842             -11.0365
        84        2.0000           -0.3997145             -10.8768
        85        2.0000           -0.3963272             -10.7846
        86        2.0000           -0.3886800             -10.5765
        87        2.0000           -0.3843159             -10.4578
        88        2.0000           -0.3773977             -10.2695
        89        2.0000           -0.3674932             -10.0000
        90        2.0000           -0.3631115              -9.8808
        91        1.0000           -0.3283641              -8.9352 (HOMO)
        92                         -0.2726081              -7.4180 (LUMO)
        93                         -0.2629329              -7.1548
        94                         -0.2548990              -6.9362
        95                         -0.2404096              -6.5419
        96                         -0.2238463              -6.0912
        97                         -0.2034852              -5.5371
        98                         -0.1857277              -5.0539
        99                         -0.1790133              -4.8712
       100                         -0.1709984              -4.6531
       101                         -0.1455531              -3.9607
       102                         -0.1175326              -3.1982
       ...                                ...                  ...
       175                          0.7248452              19.7240
      -------------------------------------------------------------
                  HL-Gap            0.0557559 Eh            1.5172 eV
             Fermi-level           -0.3231096 Eh           -8.7923 eV

     #   Z          covCN         q      C6AA      α(0)
     1   6 C        2.981     0.004    27.931     8.669
     2   6 C        2.980     0.003    27.942     8.671
     3   6 C        2.980     0.003    27.947     8.672
     4   6 C        2.990     0.009    27.807     8.650
     5   6 C        2.988     0.009    27.798     8.649
     6   6 C        2.988     0.009    27.816     8.651
     7   6 C        2.982     0.012    27.737     8.639
     8   6 C        2.983     0.011    27.773     8.645
     9   6 C        2.988     0.011    27.756     8.642
    10   6 C        2.989     0.012    27.737     8.639
    11   6 C        2.918    -0.037    28.929     8.820
    12   6 C        2.918    -0.038    28.950     8.823
    13   6 C        2.917    -0.038    28.944     8.822
    14   6 C        2.917    -0.038    28.935     8.821
    15   6 C        2.917    -0.037    28.929     8.820
    16   6 C        2.917    -0.038    28.941     8.822
    17   6 C        2.916    -0.037    28.910     8.817
    18   6 C        2.915    -0.036    28.902     8.816
    19   6 C        2.918    -0.033    28.814     8.803
    20   6 C        2.920    -0.033    28.816     8.803
    21   6 C        2.927    -0.043    29.062     8.841
    22   6 C        2.922    -0.034    28.846     8.808
    23   6 C        2.920    -0.039    28.973     8.827
    24   6 C        2.918    -0.031    28.781     8.797
    25   6 C        2.967     0.013    27.732     8.638
    26   6 C        2.916    -0.029    28.730     8.790
    27   1 H        0.926     0.031     2.568     2.506
    28   1 H        0.926     0.031     2.575     2.510
    29   1 H        0.926     0.031     2.571     2.507
    30   1 H        0.926     0.031     2.576     2.510
    31   1 H        0.926     0.032     2.560     2.502
    32   1 H        0.926     0.030     2.581     2.512
    33   1 H        0.926     0.038     2.481     2.463
    34   1 H        0.926     0.031     2.566     2.505
    35   1 H        0.926     0.038     2.472     2.459
    36   1 H        0.926     0.033     2.549     2.496
    37   1 H        0.926     0.077     2.006     2.215
    38   1 H        0.926     0.032     2.552     2.498
    39   1 H        0.926     0.072     2.063     2.246
    40   1 H        0.926     0.027     2.627     2.535
    41   6 C        2.889     0.043    27.026     8.523
    42   1 H        0.926     0.029     2.601     2.522
    43   6 C        3.885     0.046    19.759     6.320
    44   6 C        3.884     0.046    19.753     6.319
    45   6 C        3.758    -0.113    22.720     6.796
    46   6 C        3.760    -0.114    22.720     6.795
    47   6 C        3.758    -0.113    22.721     6.796
    48   6 C        3.760    -0.113    22.715     6.794
    49   7 N        2.807     0.191    18.073     6.314
    50   8 O        0.925    -0.438    22.428     6.351
    51   7 N        2.807     0.189    18.104     6.319
    52   8 O        0.925    -0.441    22.477     6.358
    53   1 H        0.925     0.045     2.388     2.417
    54   1 H        0.925     0.056     2.245     2.343
    55   1 H        0.925     0.069     2.094     2.263
    56   1 H        0.925     0.055     2.264     2.353
    57   1 H        0.925     0.076     2.025     2.225
    58   1 H        0.925     0.049     2.333     2.389
    59   1 H        0.925     0.044     2.391     2.418
    60   1 H        0.925     0.056     2.245     2.343
    61   1 H        0.925     0.069     2.096     2.264
    62   1 H        0.925     0.055     2.261     2.352
    63   1 H        0.925     0.076     2.022     2.224
    64   1 H        0.925     0.049     2.333     2.389

 Mol. C6AA /au·bohr⁶  :      53364.844313
 Mol. C8AA /au·bohr⁸  :    1321109.100423
 Mol. α(0) /au        :        366.043521


Wiberg/Mayer (AO) data.
largest (>0.10) Wiberg bond orders for each atom

 ---------------------------------------------------------------------------
     #   Z sym  total        # sym  WBO       # sym  WBO       # sym  WBO
 ---------------------------------------------------------------------------
     1   6 C    3.985 --     4 C    1.298     3 C    1.218     2 C    1.215
     2   6 C    3.986 --     5 C    1.323     1 C    1.215     7 C    1.184
     3   6 C    3.987 --     6 C    1.325     1 C    1.218     8 C    1.177
     4   6 C    3.982 --     1 C    1.298    11 C    1.248    12 C    1.247
     5   6 C    3.980 --     2 C    1.323    13 C    1.248    15 C    1.221
     6   6 C    3.986 --     3 C    1.325    14 C    1.247    16 C    1.222
     7   6 C    3.988 --    19 C    1.304     9 C    1.270     2 C    1.184
     8   6 C    3.989 --    20 C    1.316    10 C    1.278     3 C    1.177
     9   6 C    3.987 --    21 C    1.325     7 C    1.270    17 C    1.213
    10   6 C    3.987 --    22 C    1.307     8 C    1.278    18 C    1.219
    11   6 C    3.977 --    13 C    1.592     4 C    1.248    27 H    0.967
    12   6 C    3.980 --    14 C    1.594     4 C    1.247    28 H    0.967
    13   6 C    3.976 --    11 C    1.592     5 C    1.248    29 H    0.967
    14   6 C    3.976 --    12 C    1.594     6 C    1.247    30 H    0.967
    15   6 C    3.988 --    17 C    1.631     5 C    1.221    31 H    0.967
    16   6 C    3.988 --    18 C    1.627     6 C    1.222    32 H    0.967
    17   6 C    3.978 --    15 C    1.631     9 C    1.213    33 H    0.967
    18   6 C    3.981 --    16 C    1.627    10 C    1.219    34 H    0.967
    19   6 C    3.991 --    23 C    1.542     7 C    1.304    35 H    0.962
                            21 C    0.101
    20   6 C    3.992 --    24 C    1.521     8 C    1.316    36 H    0.963
                            22 C    0.112
    21   6 C    3.977 --    25 C    1.436     9 C    1.325    37 H    0.954
                            19 C    0.101
    22   6 C    3.985 --    26 C    1.526    10 C    1.307    38 H    0.968
                            20 C    0.112
    23   6 C    3.981 --    19 C    1.542    25 C    1.283    39 H    0.958
    24   6 C    3.988 --    20 C    1.521    26 C    1.349    40 H    0.971
    25   6 C    3.972 --    21 C    1.436    23 C    1.283    41 C    1.085
    26   6 C    3.983 --    22 C    1.526    24 C    1.349    42 H    0.971
    27   1 H    0.998 --    11 C    0.967
    28   1 H    0.998 --    12 C    0.967
    29   1 H    0.998 --    13 C    0.967
    30   1 H    0.998 --    14 C    0.967
    31   1 H    0.998 --    15 C    0.967
    32   1 H    0.998 --    16 C    0.967
    33   1 H    0.997 --    17 C    0.967
    34   1 H    0.998 --    18 C    0.967
    35   1 H    0.998 --    19 C    0.962
    36   1 H    0.998 --    20 C    0.963
    37   1 H    0.993 --    21 C    0.954
    38   1 H    0.998 --    22 C    0.968
    39   1 H    0.994 --    23 C    0.958
    40   1 H    0.999 --    24 C    0.971
    41   6 C    3.943 --    49 N    1.249    51 N    1.249    25 C    1.085
                            50 O    0.140    52 O    0.139
    42   1 H    0.998 --    26 C    0.971
    43   6 C    3.967 --    45 C    0.997    48 C    0.981    44 C    0.960
                            49 N    0.914
    44   6 C    3.967 --    47 C    0.997    46 C    0.980    43 C    0.960
                            51 N    0.915
    45   6 C    3.988 --    43 C    0.997    58 H    0.982    56 H    0.981
                            57 H    0.977
    46   6 C    3.989 --    59 H    0.984    60 H    0.981    44 C    0.980
                            61 H    0.979
    47   6 C    3.988 --    44 C    0.997    64 H    0.982    62 H    0.981
                            63 H    0.977
Note: The following floating-point exceptions are signalling: IEEE_UNDERFLOW_FLAG
normal termination of xtb
    48   6 C    3.988 --    53 H    0.983    43 C    0.981    54 H    0.981
                            55 H    0.979
    49   7 N    3.709 --    50 O    1.309    41 C    1.249    43 C    0.914
    50   8 O    1.747 --    49 N    1.309    41 C    0.140
    51   7 N    3.708 --    52 O    1.306    41 C    1.249    44 C    0.915
    52   8 O    1.745 --    51 N    1.306    41 C    0.139
    53   1 H    0.998 --    48 C    0.983
    54   1 H    0.996 --    48 C    0.981
    55   1 H    0.995 --    48 C    0.979
    56   1 H    0.997 --    45 C    0.981
    57   1 H    0.994 --    45 C    0.977
    58   1 H    0.997 --    45 C    0.982
    59   1 H    0.998 --    46 C    0.984
    60   1 H    0.996 --    46 C    0.981
    61   1 H    0.995 --    46 C    0.979
    62   1 H    0.997 --    47 C    0.981
    63   1 H    0.994 --    47 C    0.977
    64   1 H    0.997 --    47 C    0.982
 ---------------------------------------------------------------------------

Topologies differ in bond orders
Writing corrected topology to xtbtopo.mol

molecular dipole:
                 x           y           z       tot (Debye)
 q only:       -0.933      -0.618      -0.080
   full:       -0.926      -0.612      -0.060       2.827
molecular quadrupole (traceless):
                xx          xy          yy          xz          yz          zz
 q only:       14.598      20.980      -3.967      -0.481       5.058     -10.631
  q+dip:       15.373      23.558       0.782       7.248       4.576     -16.155
   full:       14.771      22.606      -3.843       0.826       6.525     -10.927


           -------------------------------------------------
          | TOTAL ENERGY              -98.360181636979 Eh   |
          | GRADIENT NORM               0.000671539833 Eh/α |
          | HOMO-LUMO GAP               1.517196047452 eV   |
           -------------------------------------------------
########################################################################
[WARNING] Runtime exception occurred
-2- restart_readRestart: Dimension missmatch in restart file.
-1- restart_readRestart: Number of electron missmatch in restart file.
########################################################################

------------------------------------------------------------------------
 * finished run on 2024/11/14 at 10:51:51.211     
------------------------------------------------------------------------
 total:
 * wall-time:     0 d,  0 h,  0 min,  0.257 sec
 *  cpu-time:     0 d,  0 h,  0 min,  0.568 sec
 * ratio c/w:     2.212 speedup
 SCF:
 * wall-time:     0 d,  0 h,  0 min,  0.234 sec
 *  cpu-time:     0 d,  0 h,  0 min,  0.550 sec
 * ratio c/w:     2.355 speedup

