      -----------------------------------------------------------      
     |                   =====================                   |     
     |                           x T B                           |     
     |                   =====================                   |     
     |                         S. Grimme                         |     
     |          Mulliken Center for Theoretical Chemistry        |     
     |                    University of Bonn                     |     
      -----------------------------------------------------------      

   * xtb version 6.6.1 (8d0f1dd) compiled by 'runner@Mac-1690902418499.local' on 2023-08-01

   xtb is free software: you can redistribute it and/or modify it under
   the terms of the GNU Lesser General Public License as published by
   the Free Software Foundation, either version 3 of the License, or
   (at your option) any later version.
   
   xtb is distributed in the hope that it will be useful,
   but WITHOUT ANY WARRANTY; without even the implied warranty of
   MERCHANTABILITY or FITNESS FOR A PARTICULAR PURPOSE.  See the
   GNU Lesser General Public License for more details.
   
   Cite this work as:
   * C. Bannwarth, E. Caldeweyher, S. Ehlert, A. Hansen, P. Pracht,
     J. Seibert, S. Spicher, S. Grimme, WIREs Comput. Mol. Sci., 2020, 11,
     e01493. DOI: 10.1002/wcms.1493
   
   for GFN2-xTB:
   * C. Bannwarth, S. Ehlert and S. Grimme., J. Chem. Theory Comput., 2019,
     15, 1652-1671. DOI: 10.1021/acs.jctc.8b01176
   for GFN1-xTB:
   * S. Grimme, C. Bannwarth, P. Shushkov, J. Chem. Theory Comput., 2017,
     13, 1989-2009. DOI: 10.1021/acs.jctc.7b00118
   for GFN0-xTB:
   * P. Pracht, E. Caldeweyher, S. Ehlert, S. Grimme, ChemRxiv, 2019, preprint.
     DOI: 10.26434/chemrxiv.8326202.v1
   for GFN-FF:
   * S. Spicher and S. Grimme, Angew. Chem. Int. Ed., 2020, 59, 15665-15673.
     DOI: 10.1002/anie.202004239
   
   for ALPB and GBSA implicit solvation:
   * S. Ehlert, M. Stahn, S. Spicher, S. Grimme, J. Chem. Theory Comput.,
     2021, 17, 4250-4261. DOI: 10.1021/acs.jctc.1c00471
   
   for DFT-D4:
   * E. Caldeweyher, C. Bannwarth and S. Grimme, J. Chem. Phys., 2017,
     147, 034112. DOI: 10.1063/1.4993215
   * E. Caldeweyher, S. Ehlert, A. Hansen, H. Neugebauer, S. Spicher,
     C. Bannwarth and S. Grimme, J. Chem. Phys., 2019, 150, 154122.
     DOI: 10.1063/1.5090222
   * E. Caldeweyher, J.-M. Mewes, S. Ehlert and S. Grimme, Phys. Chem. Chem. Phys.
     2020, 22, 8499-8512. DOI: 10.1039/D0CP00502A
   
   for sTDA-xTB:
   * S. Grimme and C. Bannwarth, J. Chem. Phys., 2016, 145, 054103.
     DOI: 10.1063/1.4959605
   
   in the mass-spec context:
   * V. Asgeirsson, C. Bauer and S. Grimme, Chem. Sci., 2017, 8, 4879.
     DOI: 10.1039/c7sc00601b
   * J. Koopman and S. Grimme, ACS Omega 2019, 4, 12, 15120-15133.
     DOI: 10.1021/acsomega.9b02011
   
   for metadynamics refer to:
   * S. Grimme, J. Chem. Theory Comput., 2019, 155, 2847-2862
     DOI: 10.1021/acs.jctc.9b00143
   
   for SPH calculations refer to:
   * S. Spicher and S. Grimme, J. Chem. Theory Comput., 2021, 17, 1701-1714
     DOI: 10.1021/acs.jctc.0c01306
   
   with help from (in alphabetical order)
   P. Atkinson, C. Bannwarth, F. Bohle, G. Brandenburg, E. Caldeweyher
   M. Checinski, S. Dohm, S. Ehlert, S. Ehrlich, I. Gerasimov, C. Hölzer
   A. Katbashev, J. Koopman, C. Lavigne, S. Lehtola, F. März, M. Müller,
   F. Musil, H. Neugebauer, J. Pisarek, C. Plett, P. Pracht, F. Pultar,
   J. Seibert, P. Shushkov, S. Spicher, M. Stahn, M. Steiner, T. Strunk,
   J. Stückrath, T. Rose, and J. Unsleber
   
 * started run on 2024/11/14 at 10:41:09.766     

           -------------------------------------------------
          |                Calculation Setup                |
           -------------------------------------------------

          program call               : xtb stacked_dimer_Nitro2.mol --opt --gfn2 --chrg 0 --uhf 2 --tight
          coordinate file            : stacked_dimer_Nitro2.mol
          omp threads                :                     8

   ID    Z sym.   atoms
    1    6 C      1-26, 41, 43-48, 65-90, 105, 107-112
    2    1 H      27-40, 42, 53-64, 91-104, 106, 117-128
    3    7 N      49, 51, 113, 115
    4    8 O      50, 52, 114, 116
########################################################################
[WARNING] Please study the warnings concerning your input carefully
-1- prog_main_parseArguments: Unknown option '--tight' provided
########################################################################

           -------------------------------------------------
          |                 G F N 2 - x T B                 |
           -------------------------------------------------

        Reference                      10.1021/acs.jctc.8b01176
      * Hamiltonian:
        H0-scaling (s, p, d)           1.850000    2.230000    2.230000
        zeta-weighting                 0.500000
      * Dispersion:
        s8                             2.700000
        a1                             0.520000
        a2                             5.000000
        s9                             5.000000
      * Repulsion:
        kExp                           1.500000    1.000000
        rExp                           1.000000
      * Coulomb:
        alpha                          2.000000
        third order                    shell-resolved
        anisotropic                    true
        a3                             3.000000
        a5                             4.000000
        cn-shift                       1.200000
        cn-exp                         4.000000
        max-rad                        5.000000


          ...................................................
          :                      SETUP                      :
          :.................................................:
          :  # basis functions                 350          :
          :  # atomic orbitals                 350          :
          :  # shells                          202          :
          :  # electrons                       362          :
          :  max. iterations                   250          :
          :  Hamiltonian                  GFN2-xTB          :
          :  restarted?                      false          :
          :  GBSA solvation                  false          :
          :  PC potential                    false          :
          :  electronic temp.          300.0000000     K    :
          :  accuracy                    1.0000000          :
          :  -> integral cutoff          0.2500000E+02      :
          :  -> integral neglect         0.1000000E-07      :
          :  -> SCF convergence          0.1000000E-05 Eh   :
          :  -> wf. convergence          0.1000000E-03 e    :
          :  Broyden damping             0.4000000          :
          ...................................................

 iter      E             dE          RMSdq      gap      omega  full diag
   1   -199.3173696 -0.199317E+03  0.410E+00    0.27       0.0  T
   2   -199.5284662 -0.211097E+00  0.248E+00    1.00       1.0  T
   3   -198.5582866  0.970180E+00  0.195E+00    0.18       1.0  T
   4   -199.1627795 -0.604493E+00  0.154E+00    0.61       1.0  T
   5   -199.7085367 -0.545757E+00  0.461E-01    0.61       1.0  T
   6   -199.6092715  0.992652E-01  0.661E-01    0.88       1.0  T
   7   -199.7216797 -0.112408E+00  0.302E-01    0.90       1.0  T
   8   -199.7261834 -0.450369E-02  0.248E-01    0.89       1.0  T
   9   -199.7279213 -0.173794E-02  0.210E-01    0.95       1.0  T
  10   -199.7252072  0.271409E-02  0.212E-01    1.00       1.0  T
  11   -199.7283105 -0.310326E-02  0.170E-01    1.04       1.0  T
  12   -199.7295399 -0.122944E-02  0.152E-01    1.07       1.0  T
  13   -199.7300697 -0.529758E-03  0.139E-01    1.11       1.0  T
  14   -199.7342741 -0.420448E-02  0.468E-02    1.21       1.0  T
  15   -199.7331188  0.115539E-02  0.749E-02    1.21       1.0  T
  16   -199.7326845  0.434207E-03  0.935E-02    1.17       1.0  T
  17   -199.7334571 -0.772515E-03  0.706E-02    1.19       1.0  T
  18   -199.7341892 -0.732185E-03  0.470E-02    1.20       1.0  T
  19   -199.7347444 -0.555179E-03  0.150E-02    1.20       1.0  T
  20   -199.7347964 -0.519689E-04  0.622E-03    1.20       1.4  T
  21   -199.7348020 -0.556278E-05  0.418E-03    1.20       2.1  T
  22   -199.7348059 -0.396979E-05  0.183E-03    1.20       4.8  T
  23   -199.7348068 -0.902164E-06  0.319E-04    1.20      27.7  T
  24   -199.7348068 -0.103157E-07  0.258E-04    1.20      34.2  T

   *** convergence criteria satisfied after 24 iterations ***

         #    Occupation            Energy/Eh            Energy/eV
      -------------------------------------------------------------
         1        2.0000           -0.7108805             -19.3440
       ...           ...                  ...                  ...
       176        2.0000           -0.3718849             -10.1195
       177        2.0000           -0.3676321             -10.0038
       178        2.0000           -0.3664273              -9.9710
       179        2.0000           -0.3615178              -9.8374
       180        1.8224           -0.3238331              -8.8119
       181        1.1136           -0.3204254              -8.7192
       182        1.0639           -0.3198269              -8.7029 (HOMO)
       183                         -0.2756687              -7.5013 (LUMO)
       184                         -0.2700572              -7.3486
       185                         -0.2676418              -7.2829
       186                         -0.2616879              -7.1209
       187                         -0.2575023              -7.0070
       ...                                ...                  ...
       350                          1.2005353              32.6682
      -------------------------------------------------------------
                  HL-Gap            0.0441582 Eh            1.2016 eV
             Fermi-level           -0.3099609 Eh           -8.4345 eV

 transition dipole moment (au) for excitation:         181         182
     X       Y       Z   
  -0.0059  -0.0049   2.2948  total (au/Debye):    2.295   5.833
 dE (eV)             :    0.016
 oscillator strength :  0.29712E-02

 SCC (total)                   0 d,  0 h,  0 min,  2.833 sec
 SCC setup                      ...        0 min,  0.001 sec (  0.019%)
 Dispersion                     ...        0 min,  0.002 sec (  0.073%)
 classical contributions        ...        0 min,  0.001 sec (  0.019%)
 integral evaluation            ...        0 min,  0.009 sec (  0.330%)
 iterations                     ...        0 min,  2.726 sec ( 96.217%)
 molecular gradient             ...        0 min,  0.053 sec (  1.868%)
 printout                       ...        0 min,  0.042 sec (  1.474%)

         :::::::::::::::::::::::::::::::::::::::::::::::::::::
         ::                     SUMMARY                     ::
         :::::::::::::::::::::::::::::::::::::::::::::::::::::
         :: total energy            -196.383639018114 Eh    ::
         :: gradient norm              0.437410740896 Eh/a0 ::
         :: HOMO-LUMO gap              1.201606210073 eV    ::
         ::.................................................::
         :: SCC energy              -199.734806837464 Eh    ::
         :: -> isotropic ES            0.160506850633 Eh    ::
         :: -> anisotropic ES          0.012329110357 Eh    ::
         :: -> anisotropic XC          0.084290215530 Eh    ::
         :: -> dispersion             -0.211691220756 Eh    ::
         :: repulsion energy           3.334952324633 Eh    ::
         :: add. restraining           0.000000000000 Eh    ::
         :: total charge               0.000000000043 e     ::
         :::::::::::::::::::::::::::::::::::::::::::::::::::::

      ----------------------------------------------------------- 
     |                   =====================                   |
     |                        A N C O P T                        |
     |                   =====================                   |
     |               Approximate Normal Coordinate               |
     |                Rational Function Optimizer                |
      ----------------------------------------------------------- 

          ...................................................
          :                      SETUP                      :
          :.................................................:
          :   optimization level            normal          :
          :   max. optcycles                   384          :
          :   ANC micro-cycles                  20          :
          :   degrees of freedom               378          :
          :.................................................:
          :   RF solver                   davidson          :
          :   write xtbopt.log                true          :
          :   linear?                        false          :
          :   energy convergence         0.5000000E-05 Eh   :
          :   grad. convergence          0.1000000E-02 Eh/α :
          :   maxmium RF displ.          1.0000000          :
          :   Hlow (freq-cutoff)         0.1000000E-01      :
          :   Hmax (freq-cutoff)         5.0000000          :
          :   S6 in model hess.         20.0000000          :
          ...................................................

generating ANC from model Hessian ...
Using Lindh-Hessian (1995)
 Shifting diagonal of input Hessian by    9.9597534021600830E-003
 Lowest  eigenvalues of input Hessian
    0.000000    0.000000    0.000000    0.000000    0.000000    0.000000
    0.010000    0.010125    0.010220    0.010277    0.010429    0.010531
    0.010631    0.010775    0.010845    0.011129    0.011327    0.011478
 Highest eigenvalues
    2.141565    2.148006    2.198386    2.215827    2.381661    2.382028


........................................................................
.............................. CYCLE    1 ..............................
........................................................................

 iter      E             dE          RMSdq      gap      omega  full diag
   1   -199.7348069 -0.199735E+03  0.315E-05    1.20       0.0  T
   2   -199.7348068  0.258865E-07  0.288E-04    1.20      30.7  T
   3   -199.7348069 -0.259691E-07  0.251E-05    1.20     352.3  T
     SCC iter.                  ...        0 min,  0.169 sec
     gradient                   ...        0 min,  0.072 sec
 * total energy  :  -196.3836390 Eh     change       -0.1712274E-07 Eh
   gradient norm :     0.4373930 Eh/α   predicted     0.0000000E+00 (-100.00%)
   displ. norm   :     0.5435607 α      lambda       -0.1818424E+00
   maximum displ.:     0.1582522 α      in ANC's #320, #189, #135, ...

........................................................................
.............................. CYCLE    2 ..............................
........................................................................

 iter      E             dE          RMSdq      gap      omega  full diag
   1   -199.8522097 -0.199852E+03  0.287E-01    1.23       0.0  T
   2   -199.8538905 -0.168085E-02  0.183E-01    1.45       1.0  T
   3   -199.8523725  0.151803E-02  0.126E-01    1.50       1.0  T
   4   -199.8539329 -0.156037E-02  0.592E-02    1.52       1.0  T
   5   -199.8543202 -0.387339E-03  0.474E-02    1.51       1.0  T
   6   -199.8546621 -0.341857E-03  0.219E-02    1.51       1.0  T
   7   -199.8547018 -0.397153E-04  0.102E-02    1.52       1.0  T
   8   -199.8547164 -0.146673E-04  0.466E-03    1.51       1.9  T
   9   -199.8547192 -0.272823E-05  0.174E-03    1.51       5.1  T
  10   -199.8547193 -0.139818E-06  0.106E-03    1.51       8.4  T
  11   -199.8547194 -0.138744E-06  0.403E-04    1.51      21.9  T
  12   -199.8547195 -0.983661E-08  0.197E-04    1.51      44.8  T
     SCC iter.                  ...        0 min,  0.928 sec
     gradient                   ...        0 min,  0.058 sec
 * total energy  :  -196.5194019 Eh     change       -0.1357628E+00 Eh
   gradient norm :     0.2362809 Eh/α   predicted    -0.1178032E+00 ( -13.23%)
   displ. norm   :     0.5220892 α      lambda       -0.9753501E-01
   maximum displ.:     0.1436012 α      in ANC's #320, #318, #77, ...

........................................................................
.............................. CYCLE    3 ..............................
........................................................................

 iter      E             dE          RMSdq      gap      omega  full diag
   1   -199.9299228 -0.199930E+03  0.190E-01    1.50       0.0  T
   2   -199.9306485 -0.725612E-03  0.103E-01    1.51       1.0  T
   3   -199.9306365  0.119247E-04  0.746E-02    1.52       1.0  T
   4   -199.9309422 -0.305636E-03  0.289E-02    1.52       1.0  T
   5   -199.9309862 -0.440755E-04  0.153E-02    1.52       1.0  T
   6   -199.9310073 -0.210731E-04  0.492E-03    1.52       1.8  T
   7   -199.9310094 -0.204904E-05  0.213E-03    1.52       4.2  T
   8   -199.9310099 -0.575930E-06  0.972E-04    1.52       9.1  T
   9   -199.9310101 -0.120679E-06  0.402E-04    1.52      22.0  T
     SCC iter.                  ...        0 min,  0.429 sec
     gradient                   ...        0 min,  0.052 sec
 * total energy  :  -196.5924530 Eh     change       -0.7305114E-01 Eh
   gradient norm :     0.1181129 Eh/α   predicted    -0.6206051E-01 ( -15.05%)
   displ. norm   :     0.6135287 α      lambda       -0.5278575E-01
   maximum displ.:     0.1428309 α      in ANC's #77, #64, #51, ...

........................................................................
.............................. CYCLE    4 ..............................
........................................................................

 iter      E             dE          RMSdq      gap      omega  full diag
   1   -199.9669322 -0.199967E+03  0.131E-01    1.51       0.0  T
   2   -199.9671873 -0.255044E-03  0.728E-02    1.51       1.0  T
   3   -199.9671285  0.587411E-04  0.460E-02    1.52       1.0  T
   4   -199.9672531 -0.124602E-03  0.168E-02    1.52       1.0  T
   5   -199.9672697 -0.165695E-04  0.930E-03    1.52       1.0  T
   6   -199.9672788 -0.911238E-05  0.283E-03    1.52       3.1  T
   7   -199.9672793 -0.539710E-06  0.126E-03    1.52       7.0  T
   8   -199.9672795 -0.184372E-06  0.595E-04    1.52      14.9  T
   9   -199.9672796 -0.434015E-07  0.261E-04    1.52      33.9  T
     SCC iter.                  ...        0 min,  0.629 sec
     gradient                   ...        0 min,  0.051 sec
 * total energy  :  -196.6338735 Eh     change       -0.4142055E-01 Eh
   gradient norm :     0.0603423 Eh/α   predicted    -0.3632768E-01 ( -12.30%)
   displ. norm   :     0.7097369 α      lambda       -0.3296451E-01
   maximum displ.:     0.1771419 α      in ANC's #64, #51, #77, ...

........................................................................
.............................. CYCLE    5 ..............................
........................................................................

 iter      E             dE          RMSdq      gap      omega  full diag
   1   -199.9820969 -0.199982E+03  0.108E-01    1.51       0.0  T
   2   -199.9822056 -0.108715E-03  0.611E-02    1.51       1.0  T
   3   -199.9821825  0.231596E-04  0.279E-02    1.51       1.0  T
   4   -199.9822256 -0.430853E-04  0.954E-03    1.51       1.0  T
   5   -199.9822279 -0.230824E-05  0.654E-03    1.51       1.4  T
   6   -199.9822338 -0.589047E-05  0.213E-03    1.51       4.1  T
   7   -199.9822342 -0.478661E-06  0.799E-04    1.51      11.1  T
   8   -199.9822343 -0.648544E-07  0.336E-04    1.51      26.3  T
     SCC iter.                  ...        0 min,  0.519 sec
     gradient                   ...        0 min,  0.052 sec
 * total energy  :  -196.6610079 Eh     change       -0.2713437E-01 Eh
   gradient norm :     0.0368140 Eh/α   predicted    -0.2478500E-01 (  -8.66%)
   displ. norm   :     0.7699264 α      lambda       -0.2318250E-01
   maximum displ.:     0.1959468 α      in ANC's #64, #51, #16, ...

........................................................................
.............................. CYCLE    6 ..............................
........................................................................

 iter      E             dE          RMSdq      gap      omega  full diag
   1   -199.9873093 -0.199987E+03  0.102E-01    1.50       0.0  T
   2   -199.9873651 -0.558311E-04  0.589E-02    1.50       1.0  T
   3   -199.9873317  0.333829E-04  0.225E-02    1.50       1.0  T
   4   -199.9873705 -0.387930E-04  0.857E-03    1.50       1.0  T
   5   -199.9873775 -0.700264E-05  0.471E-03    1.50       1.9  T
   6   -199.9873804 -0.285245E-05  0.152E-03    1.50       5.8  T
   7   -199.9873806 -0.176500E-06  0.701E-04    1.50      12.6  T
   8   -199.9873806 -0.596693E-07  0.292E-04    1.50      30.3  T
     SCC iter.                  ...        0 min,  0.547 sec
     gradient                   ...        0 min,  0.053 sec
 * total energy  :  -196.6807173 Eh     change       -0.1970937E-01 Eh
   gradient norm :     0.0260921 Eh/α   predicted    -0.1846239E-01 (  -6.33%)
   displ. norm   :     0.8010434 α      lambda       -0.1725926E-01
   maximum displ.:     0.1983162 α      in ANC's #16, #51, #26, ...

........................................................................
.............................. CYCLE    7 ..............................
........................................................................

 iter      E             dE          RMSdq      gap      omega  full diag
   1   -199.9891746 -0.199989E+03  0.103E-01    1.49       0.0  T
   2   -199.9892086 -0.339769E-04  0.599E-02    1.49       1.0  T
   3   -199.9891593  0.492823E-04  0.219E-02    1.49       1.0  T
   4   -199.9892118 -0.524329E-04  0.764E-03    1.49       1.2  T
   5   -199.9892191 -0.737472E-05  0.337E-03    1.49       2.6  T
   6   -199.9892203 -0.116560E-05  0.134E-03    1.49       6.6  T
   7   -199.9892204 -0.131477E-06  0.687E-04    1.49      12.9  T
   8   -199.9892205 -0.618429E-07  0.251E-04    1.49      35.1  T
     SCC iter.                  ...        0 min,  0.520 sec
     gradient                   ...        0 min,  0.050 sec
 * total energy  :  -196.6955642 Eh     change       -0.1484691E-01 Eh
   gradient norm :     0.0195452 Eh/α   predicted    -0.1416701E-01 (  -4.58%)
   displ. norm   :     0.8117624 α      lambda       -0.1292670E-01
   maximum displ.:     0.2134712 α      in ANC's #16, #25, #26, ...

........................................................................
.............................. CYCLE    8 ..............................
........................................................................

 iter      E             dE          RMSdq      gap      omega  full diag
   1   -199.9902375 -0.199990E+03  0.105E-01    1.48       0.0  T
   2   -199.9902612 -0.236970E-04  0.611E-02    1.48       1.0  T
   3   -199.9902066  0.546068E-04  0.212E-02    1.48       1.0  T
   4   -199.9902655 -0.589095E-04  0.629E-03    1.48       1.4  T
   5   -199.9902707 -0.516522E-05  0.257E-03    1.48       3.4  T
   6   -199.9902713 -0.577049E-06  0.113E-03    1.48       7.8  T
   7   -199.9902713 -0.761777E-07  0.572E-04    1.48      15.5  T
   8   -199.9902714 -0.391802E-07  0.234E-04    1.48      37.8  T
     SCC iter.                  ...        0 min,  0.497 sec
     gradient                   ...        0 min,  0.050 sec
 * total energy  :  -196.7066873 Eh     change       -0.1112312E-01 Eh
   gradient norm :     0.0146689 Eh/α   predicted    -0.1072243E-01 (  -3.60%)
   displ. norm   :     0.8079344 α      lambda       -0.9530864E-02
   maximum displ.:     0.2258525 α      in ANC's #16, #25, #33, ...

........................................................................
.............................. CYCLE    9 ..............................
........................................................................

 iter      E             dE          RMSdq      gap      omega  full diag
   1   -199.9912716 -0.199991E+03  0.103E-01    1.47       0.0  T
   2   -199.9912888 -0.171713E-04  0.606E-02    1.47       1.0  T
   3   -199.9912244  0.643407E-04  0.214E-02    1.48       1.0  T
   4   -199.9912933 -0.688932E-04  0.573E-03    1.47       1.5  T
   5   -199.9912979 -0.457112E-05  0.210E-03    1.47       4.2  T
   6   -199.9912982 -0.315571E-06  0.986E-04    1.47       9.0  T
   7   -199.9912983 -0.473273E-07  0.438E-04    1.47      20.2  T
     SCC iter.                  ...        0 min,  0.368 sec
     gradient                   ...        0 min,  0.053 sec
 * total energy  :  -196.7148271 Eh     change       -0.8139816E-02 Eh
   gradient norm :     0.0115728 Eh/α   predicted    -0.7876107E-02 (  -3.24%)
   displ. norm   :     0.7930774 α      lambda       -0.6853926E-02
   maximum displ.:     0.2355308 α      in ANC's #16, #25, #33, ...

........................................................................
.............................. CYCLE   10 ..............................
........................................................................

 iter      E             dE          RMSdq      gap      omega  full diag
   1   -199.9927229 -0.199993E+03  0.976E-02    1.47       0.0  T
   2   -199.9927346 -0.116944E-04  0.573E-02    1.47       1.0  T
   3   -199.9926631  0.715092E-04  0.212E-02    1.47       1.0  T
   4   -199.9927394 -0.763031E-04  0.505E-03    1.47       1.7  T
   5   -199.9927430 -0.358879E-05  0.183E-03    1.47       4.8  T
   6   -199.9927431 -0.186015E-06  0.933E-04    1.47       9.5  T
   7   -199.9927432 -0.328984E-07  0.447E-04    1.47      19.8  T
     SCC iter.                  ...        0 min,  0.476 sec
     gradient                   ...        0 min,  0.054 sec
 * total energy  :  -196.7206233 Eh     change       -0.5796150E-02 Eh
   gradient norm :     0.0101985 Eh/α   predicted    -0.5582430E-02 (  -3.69%)
   displ. norm   :     0.7726733 α      lambda       -0.4854422E-02
   maximum displ.:     0.2415535 α      in ANC's #16, #25, #11, ...

........................................................................
.............................. CYCLE   11 ..............................
........................................................................

 iter      E             dE          RMSdq      gap      omega  full diag
   1   -199.9949494 -0.199995E+03  0.892E-02    1.46       0.0  T
   2   -199.9949568 -0.741164E-05  0.524E-02    1.46       1.0  T
   3   -199.9948913  0.655636E-04  0.195E-02    1.46       1.0  T
   4   -199.9949614 -0.701699E-04  0.403E-03    1.46       2.2  T
   5   -199.9949635 -0.211038E-05  0.159E-03    1.46       5.5  T
   6   -199.9949637 -0.111222E-06  0.876E-04    1.46      10.1  T
   7   -199.9949637 -0.280818E-07  0.441E-04    1.46      20.0  T
     SCC iter.                  ...        0 min,  0.439 sec
     gradient                   ...        0 min,  0.053 sec
 * total energy  :  -196.7247010 Eh     change       -0.4077659E-02 Eh
   gradient norm :     0.0094271 Eh/α   predicted    -0.3876322E-02 (  -4.94%)
   displ. norm   :     0.7543642 α      lambda       -0.3474540E-02
   maximum displ.:     0.2429445 α      in ANC's #16, #11, #25, ...

........................................................................
.............................. CYCLE   12 ..............................
........................................................................

 iter      E             dE          RMSdq      gap      omega  full diag
   1   -199.9979186 -0.199998E+03  0.816E-02    1.45       0.0  T
   2   -199.9979233 -0.472177E-05  0.480E-02    1.45       1.0  T
   3   -199.9978693  0.539905E-04  0.172E-02    1.46       1.0  T
   4   -199.9979274 -0.580299E-04  0.308E-03    1.46       2.9  T
   5   -199.9979284 -0.104717E-05  0.139E-03    1.45       6.4  T
   6   -199.9979285 -0.661525E-07  0.805E-04    1.46      11.0  T
   7   -199.9979285 -0.296160E-07  0.391E-04    1.45      22.6  T
     SCC iter.                  ...        0 min,  1.026 sec
     gradient                   ...        0 min,  0.057 sec
 * total energy  :  -196.7276206 Eh     change       -0.2919688E-02 Eh
   gradient norm :     0.0084310 Eh/α   predicted    -0.2725899E-02 (  -6.64%)
   displ. norm   :     0.7453834 α      lambda       -0.2593167E-02
   maximum displ.:     0.2577529 α      in ANC's #11, #16, #4, ...

........................................................................
.............................. CYCLE   13 ..............................
........................................................................

 iter      E             dE          RMSdq      gap      omega  full diag
   1   -200.0012036 -0.200001E+03  0.777E-02    1.45       0.0  T
   2   -200.0012069 -0.335204E-05  0.458E-02    1.45       1.0  T
   3   -200.0011585  0.484049E-04  0.162E-02    1.45       1.0  T
   4   -200.0012106 -0.521423E-04  0.252E-03    1.45       3.5  T
   5   -200.0012112 -0.586219E-06  0.126E-03    1.45       7.0  T
   6   -200.0012113 -0.492718E-07  0.734E-04    1.45      12.0  T
   7   -200.0012113 -0.254454E-07  0.343E-04    1.45      25.8  T
     SCC iter.                  ...        0 min,  0.393 sec
     gradient                   ...        0 min,  0.054 sec
 * total energy  :  -196.7298182 Eh     change       -0.2197609E-02 Eh
   gradient norm :     0.0071997 Eh/α   predicted    -0.2016968E-02 (  -8.22%)
   displ. norm   :     0.7469368 α      lambda       -0.2059537E-02
   maximum displ.:     0.2760901 α      in ANC's #11, #4, #16, ...

........................................................................
.............................. CYCLE   14 ..............................
........................................................................

 iter      E             dE          RMSdq      gap      omega  full diag
   1   -200.0043151 -0.200004E+03  0.779E-02    1.44       0.0  T
   2   -200.0043177 -0.259549E-05  0.460E-02    1.44       1.0  T
   3   -200.0042651  0.526069E-04  0.170E-02    1.44       1.0  T
   4   -200.0043218 -0.566649E-04  0.224E-03    1.44       3.9  T
   5   -200.0043222 -0.410599E-06  0.118E-03    1.44       7.5  T
   6   -200.0043222 -0.474107E-07  0.660E-04    1.44      13.4  T
   7   -200.0043223 -0.188004E-07  0.278E-04    1.44      31.8  T
     SCC iter.                  ...        0 min,  0.796 sec
     gradient                   ...        0 min,  0.057 sec
 * total energy  :  -196.7315905 Eh     change       -0.1772273E-02 Eh
   gradient norm :     0.0061879 Eh/α   predicted    -0.1604302E-02 (  -9.48%)
   displ. norm   :     0.7587986 α      lambda       -0.1760278E-02
   maximum displ.:     0.2856253 α      in ANC's #11, #4, #8, ...

........................................................................
.............................. CYCLE   15 ..............................
........................................................................

 iter      E             dE          RMSdq      gap      omega  full diag
   1   -200.0069564 -0.200007E+03  0.809E-02    1.43       0.0  T
   2   -200.0069582 -0.185688E-05  0.478E-02    1.43       1.0  T
   3   -200.0068861  0.721416E-04  0.200E-02    1.43       1.0  T
   4   -200.0069636 -0.775247E-04  0.212E-03    1.43       4.2  T
   5   -200.0069639 -0.351561E-06  0.116E-03    1.43       7.6  T
   6   -200.0069640 -0.505766E-07  0.647E-04    1.43      13.7  T
   7   -200.0069640 -0.187267E-07  0.285E-04    1.43      31.0  T
     SCC iter.                  ...        0 min,  0.557 sec
     gradient                   ...        0 min,  0.053 sec
 * total energy  :  -196.7331358 Eh     change       -0.1545310E-02 Eh
   gradient norm :     0.0057807 Eh/α   predicted    -0.1386924E-02 ( -10.25%)
   displ. norm   :     0.7766416 α      lambda       -0.1614386E-02
   maximum displ.:     0.3329228 α      in ANC's #4, #11, #8, ...

........................................................................
.............................. CYCLE   16 ..............................
........................................................................

 iter      E             dE          RMSdq      gap      omega  full diag
   1   -200.0090637 -0.200009E+03  0.848E-02    1.41       0.0  T
   2   -200.0090647 -0.917881E-06  0.502E-02    1.42       1.0  T
   3   -200.0089615  0.103156E-03  0.238E-02    1.42       1.0  T
   4   -200.0090722 -0.110658E-03  0.211E-03    1.42       4.2  T
   5   -200.0090725 -0.374884E-06  0.115E-03    1.42       7.7  T
   6   -200.0090726 -0.581884E-07  0.655E-04    1.42      13.5  T
   7   -200.0090726 -0.209581E-07  0.307E-04    1.42      28.8  T
     SCC iter.                  ...        0 min,  0.383 sec
     gradient                   ...        0 min,  0.053 sec
 * total energy  :  -196.7345849 Eh     change       -0.1449116E-02 Eh
   gradient norm :     0.0058845 Eh/α   predicted    -0.1294070E-02 ( -10.70%)
   displ. norm   :     0.7964697 α      lambda       -0.1570491E-02
   maximum displ.:     0.3807949 α      in ANC's #4, #11, #8, ...

........................................................................
.............................. CYCLE   17 ..............................
........................................................................

 iter      E             dE          RMSdq      gap      omega  full diag
   1   -200.0108134 -0.200011E+03  0.881E-02    1.40       0.0  T
   2   -200.0108131  0.331064E-06  0.522E-02    1.41       1.0  T
   3   -200.0106718  0.141262E-03  0.280E-02    1.41       1.0  T
   4   -200.0108236 -0.151757E-03  0.209E-03    1.41       4.2  T
   5   -200.0108240 -0.415632E-06  0.110E-03    1.41       8.0  T
   6   -200.0108240 -0.566874E-07  0.619E-04    1.41      14.3  T
   7   -200.0108241 -0.185022E-07  0.285E-04    1.41      31.0  T
     SCC iter.                  ...        0 min,  0.467 sec
     gradient                   ...        0 min,  0.052 sec
 * total energy  :  -196.7360222 Eh     change       -0.1437225E-02 Eh
   gradient norm :     0.0060631 Eh/α   predicted    -0.1283383E-02 ( -10.70%)
   displ. norm   :     0.8153407 α      lambda       -0.1579675E-02
   maximum displ.:     0.4249313 α      in ANC's #4, #9, #11, ...

........................................................................
.............................. CYCLE   18 ..............................
........................................................................

 iter      E             dE          RMSdq      gap      omega  full diag
   1   -200.0121926 -0.200012E+03  0.895E-02    1.39       0.0  T
   2   -200.0121910  0.158826E-05  0.532E-02    1.39       1.0  T
   3   -200.0120186  0.172438E-03  0.308E-02    1.40       1.0  T
   4   -200.0122041 -0.185462E-03  0.212E-03    1.39       4.2  T
   5   -200.0122046 -0.495541E-06  0.104E-03    1.39       8.5  T
   6   -200.0122046 -0.541480E-07  0.584E-04    1.39      15.1  T
   7   -200.0122046 -0.155691E-07  0.279E-04    1.39      31.7  T
     SCC iter.                  ...        0 min,  0.513 sec
     gradient                   ...        0 min,  0.054 sec
 * total energy  :  -196.7374856 Eh     change       -0.1463406E-02 Eh
   gradient norm :     0.0062737 Eh/α   predicted    -0.1314907E-02 ( -10.15%)
   displ. norm   :     0.8287767 α      lambda       -0.1597363E-02
   maximum displ.:     0.4610578 α      in ANC's #4, #9, #8, ...

........................................................................
.............................. CYCLE   19 ..............................
........................................................................

 iter      E             dE          RMSdq      gap      omega  full diag
   1   -200.0134316 -0.200013E+03  0.884E-02    1.39       0.0  T
   2   -200.0134288  0.277062E-05  0.526E-02    1.39       1.0  T
   3   -200.0132367  0.192134E-03  0.329E-02    1.39       1.0  T
   4   -200.0134444 -0.207745E-03  0.203E-03    1.39       4.3  T
   5   -200.0134449 -0.510156E-06  0.910E-04    1.39       9.7  T
   6   -200.0134449 -0.327011E-07  0.498E-04    1.39      17.7  T
     SCC iter.                  ...        0 min,  0.514 sec
     gradient                   ...        0 min,  0.086 sec
 * total energy  :  -196.7389719 Eh     change       -0.1486368E-02 Eh
   gradient norm :     0.0072226 Eh/α   predicted    -0.1347275E-02 (  -9.36%)
   displ. norm   :     0.8323385 α      lambda       -0.1594660E-02
   maximum displ.:     0.4823179 α      in ANC's #4, #9, #7, ...

........................................................................
.............................. CYCLE   20 ..............................
........................................................................

 iter      E             dE          RMSdq      gap      omega  full diag
   1   -200.0140664 -0.200014E+03  0.847E-02    1.38       0.0  T
   2   -200.0140642  0.217172E-05  0.504E-02    1.38       1.0  T
   3   -200.0138805  0.183700E-03  0.319E-02    1.38       1.0  T
   4   -200.0140786 -0.198084E-03  0.249E-03    1.38       3.6  T
   5   -200.0140795 -0.944763E-06  0.929E-04    1.38       9.5  T
   6   -200.0140796 -0.565833E-07  0.505E-04    1.38      17.5  T
     SCC iter.                  ...        0 min,  0.699 sec
     gradient                   ...        0 min,  0.054 sec
 * total energy  :  -196.7404493 Eh     change       -0.1477366E-02 Eh
   gradient norm :     0.0079222 Eh/α   predicted    -0.1349722E-02 (  -8.64%)
   displ. norm   :     0.8235060 α      lambda       -0.1574107E-02
   maximum displ.:     0.4955998 α      in ANC's #4, #9, #14, ...
 * RMSD in coord.:     1.0704644 α      energy gain  -0.3568103E+00 Eh

generating ANC from model Hessian ...
Using Lindh-Hessian (1995)
 Shifting diagonal of input Hessian by    1.0022476958107145E-002
 Lowest  eigenvalues of input Hessian
    0.010000    0.000000    0.000000    0.000000    0.000000    0.000000
    0.000000    0.010044    0.010128    0.010170    0.010210    0.010262
    0.010275    0.010426    0.010441    0.010562    0.010632    0.010736
 Highest eigenvalues
    2.142696    2.148988    2.197649    2.202555    2.381094    2.386080


........................................................................
.............................. CYCLE   21 ..............................
........................................................................

 iter      E             dE          RMSdq      gap      omega  full diag
   1   -200.0164128 -0.200016E+03  0.816E-02    1.38       0.0  T
   2   -200.0163970  0.158148E-04  0.508E-02    1.39       1.0  T
   3   -200.0161287  0.268270E-03  0.433E-02    1.37       1.0  T
   4   -200.0164546 -0.325947E-03  0.330E-03    1.38       2.7  T
   5   -200.0164563 -0.168975E-05  0.125E-03    1.38       7.1  T
   6   -200.0164565 -0.175431E-06  0.594E-04    1.38      14.9  T
   7   -200.0164565 -0.243574E-08  0.360E-04    1.38      24.6  T
     SCC iter.                  ...        0 min,  0.355 sec
     gradient                   ...        0 min,  0.052 sec
 * total energy  :  -196.7418576 Eh     change       -0.1408274E-02 Eh
   gradient norm :     0.0112080 Eh/α   predicted     0.0000000E+00 (-100.00%)
   displ. norm   :     0.1937601 α      lambda       -0.7045062E-03
   maximum displ.:     0.0935844 α      in ANC's #11, #3, #15, ...

........................................................................
.............................. CYCLE   22 ..............................
........................................................................

 iter      E             dE          RMSdq      gap      omega  full diag
   1   -200.0184724 -0.200018E+03  0.294E-02    1.38       0.0  T
   2   -200.0184674  0.500720E-05  0.202E-02    1.38       1.0  T
   3   -200.0184602  0.715154E-05  0.152E-02    1.38       1.0  T
   4   -200.0184879 -0.277084E-04  0.241E-03    1.38       3.7  T
   5   -200.0184889 -0.973418E-06  0.742E-04    1.38      11.9  T
   6   -200.0184890 -0.528521E-07  0.366E-04    1.38      24.2  T
     SCC iter.                  ...        0 min,  0.379 sec
     gradient                   ...        0 min,  0.053 sec
 * total energy  :  -196.7424438 Eh     change       -0.5861959E-03 Eh
   gradient norm :     0.0051952 Eh/α   predicted    -0.3654857E-03 ( -37.65%)
   displ. norm   :     0.4977417 α      lambda       -0.1193607E-02
   maximum displ.:     0.2365955 α      in ANC's #11, #3, #15, ...

........................................................................
.............................. CYCLE   23 ..............................
........................................................................

 iter      E             dE          RMSdq      gap      omega  full diag
   1   -200.0199520 -0.200020E+03  0.581E-02    1.38       0.0  T
   2   -200.0199382  0.138046E-04  0.381E-02    1.38       1.0  T
   3   -200.0198588  0.794104E-04  0.309E-02    1.38       1.0  T
   4   -200.0199938 -0.134991E-03  0.407E-03    1.38       2.2  T
   5   -200.0199965 -0.275319E-05  0.116E-03    1.38       7.6  T
   6   -200.0199966 -0.104675E-06  0.634E-04    1.38      13.9  T
   7   -200.0199966 -0.166852E-07  0.356E-04    1.38      24.9  T
     SCC iter.                  ...        0 min,  0.445 sec
     gradient                   ...        0 min,  0.054 sec
 * total energy  :  -196.7433568 Eh     change       -0.9130132E-03 Eh
   gradient norm :     0.0071987 Eh/α   predicted    -0.7446600E-03 ( -18.44%)
   displ. norm   :     0.5583358 α      lambda       -0.9062592E-03
   maximum displ.:     0.2687642 α      in ANC's #11, #3, #12, ...

........................................................................
.............................. CYCLE   24 ..............................
........................................................................

 iter      E             dE          RMSdq      gap      omega  full diag
   1   -200.0200567 -0.200020E+03  0.568E-02    1.38       0.0  T
   2   -200.0200556  0.111274E-05  0.341E-02    1.38       1.0  T
   3   -200.0199590  0.966411E-04  0.240E-02    1.38       1.0  T
   4   -200.0200651 -0.106102E-03  0.232E-03    1.38       3.8  T
   5   -200.0200659 -0.868475E-06  0.718E-04    1.38      12.3  T
   6   -200.0200660 -0.176384E-07  0.421E-04    1.38      21.0  T
     SCC iter.                  ...        0 min,  0.369 sec
     gradient                   ...        0 min,  0.053 sec
 * total energy  :  -196.7441272 Eh     change       -0.7703782E-03 Eh
   gradient norm :     0.0105981 Eh/α   predicted    -0.5944161E-03 ( -22.84%)
   displ. norm   :     0.6472058 α      lambda       -0.1008864E-02
   maximum displ.:     0.3099412 α      in ANC's #11, #3, #12, ...

........................................................................
.............................. CYCLE   25 ..............................
........................................................................

 iter      E             dE          RMSdq      gap      omega  full diag
   1   -200.0201620 -0.200020E+03  0.666E-02    1.38       0.0  T
   2   -200.0201631 -0.114183E-05  0.392E-02    1.38       1.0  T
   3   -200.0201334  0.297133E-04  0.128E-02    1.37       1.0  T
   4   -200.0201651 -0.317242E-04  0.176E-03    1.38       5.0  T
   5   -200.0201655 -0.407022E-06  0.783E-04    1.38      11.3  T
   6   -200.0201656 -0.472399E-07  0.392E-04    1.38      22.6  T
     SCC iter.                  ...        0 min,  0.316 sec
     gradient                   ...        0 min,  0.051 sec
 * total energy  :  -196.7450198 Eh     change       -0.8926489E-03 Eh
   gradient norm :     0.0099880 Eh/α   predicted    -0.7157263E-03 ( -19.82%)
   displ. norm   :     0.6902082 α      lambda       -0.1115722E-02
   maximum displ.:     0.3338367 α      in ANC's #11, #3, #12, ...

........................................................................
.............................. CYCLE   26 ..............................
........................................................................

 iter      E             dE          RMSdq      gap      omega  full diag
   1   -200.0211601 -0.200021E+03  0.762E-02    1.37       0.0  T
   2   -200.0211544  0.562146E-05  0.461E-02    1.37       1.0  T
   3   -200.0209438  0.210679E-03  0.361E-02    1.36       1.0  T
   4   -200.0211809 -0.237107E-03  0.281E-03    1.37       3.1  T
   5   -200.0211821 -0.119153E-05  0.107E-03    1.37       8.2  T
   6   -200.0211822 -0.106236E-06  0.539E-04    1.37      16.4  T
   7   -200.0211822 -0.291368E-08  0.306E-04    1.37      28.9  T
     SCC iter.                  ...        0 min,  0.362 sec
     gradient                   ...        0 min,  0.053 sec
 * total energy  :  -196.7459691 Eh     change       -0.9493002E-03 Eh
   gradient norm :     0.0066034 Eh/α   predicted    -0.8236195E-03 ( -13.24%)
   displ. norm   :     0.6727605 α      lambda       -0.9443052E-03
   maximum displ.:     0.3267597 α      in ANC's #11, #3, #5, ...

........................................................................
.............................. CYCLE   27 ..............................
........................................................................

 iter      E             dE          RMSdq      gap      omega  full diag
   1   -200.0224272 -0.200022E+03  0.778E-02    1.36       0.0  T
   2   -200.0224212  0.600430E-05  0.470E-02    1.36       1.0  T
   3   -200.0222050  0.216172E-03  0.366E-02    1.36       1.0  T
   4   -200.0224482 -0.243184E-03  0.275E-03    1.36       3.2  T
   5   -200.0224493 -0.117161E-05  0.993E-04    1.36       8.9  T
   6   -200.0224494 -0.713453E-07  0.532E-04    1.36      16.6  T
   7   -200.0224494 -0.803891E-08  0.269E-04    1.36      32.9  T
     SCC iter.                  ...        0 min,  0.541 sec
     gradient                   ...        0 min,  0.053 sec
 * total energy  :  -196.7467277 Eh     change       -0.7586282E-03 Eh
   gradient norm :     0.0056484 Eh/α   predicted    -0.6858556E-03 (  -9.59%)
   displ. norm   :     0.6065829 α      lambda       -0.6557372E-03
   maximum displ.:     0.2899525 α      in ANC's #11, #3, #5, ...

........................................................................
.............................. CYCLE   28 ..............................
........................................................................

 iter      E             dE          RMSdq      gap      omega  full diag
   1   -200.0231028 -0.200023E+03  0.700E-02    1.35       0.0  T
   2   -200.0231029 -0.120788E-06  0.413E-02    1.35       1.0  T
   3   -200.0230380  0.648987E-04  0.189E-02    1.35       1.0  T
   4   -200.0231075 -0.695360E-04  0.168E-03    1.35       5.3  T
   5   -200.0231079 -0.356299E-06  0.723E-04    1.35      12.2  T
   6   -200.0231079 -0.205024E-07  0.356E-04    1.35      24.8  T
     SCC iter.                  ...        0 min,  0.317 sec
     gradient                   ...        0 min,  0.051 sec
 * total energy  :  -196.7472591 Eh     change       -0.5313146E-03 Eh
   gradient norm :     0.0061486 Eh/α   predicted    -0.4485147E-03 ( -15.58%)
   displ. norm   :     0.5483478 α      lambda       -0.5516019E-03
   maximum displ.:     0.2695001 α      in ANC's #3, #11, #5, ...

........................................................................
.............................. CYCLE   29 ..............................
........................................................................

 iter      E             dE          RMSdq      gap      omega  full diag
   1   -200.0243918 -0.200024E+03  0.649E-02    1.34       0.0  T
   2   -200.0243927 -0.840390E-06  0.382E-02    1.34       1.0  T
   3   -200.0243486  0.440487E-04  0.153E-02    1.35       1.0  T
   4   -200.0243954 -0.467956E-04  0.188E-03    1.34       4.7  T
   5   -200.0243960 -0.542576E-06  0.719E-04    1.34      12.3  T
   6   -200.0243960 -0.323880E-07  0.356E-04    1.34      24.8  T
     SCC iter.                  ...        0 min,  0.335 sec
     gradient                   ...        0 min,  0.052 sec
 * total energy  :  -196.7477220 Eh     change       -0.4629243E-03 Eh
   gradient norm :     0.0056210 Eh/α   predicted    -0.3587306E-03 ( -22.51%)
   displ. norm   :     0.5602506 α      lambda       -0.5822487E-03
   maximum displ.:     0.2735004 α      in ANC's #3, #5, #11, ...

........................................................................
.............................. CYCLE   30 ..............................
........................................................................

 iter      E             dE          RMSdq      gap      omega  full diag
   1   -200.0255383 -0.200026E+03  0.682E-02    1.33       0.0  T
   2   -200.0255376  0.707877E-06  0.407E-02    1.33       1.0  T
   3   -200.0254123  0.125289E-03  0.266E-02    1.34       1.0  T
   4   -200.0255482 -0.135837E-03  0.262E-03    1.33       3.4  T
   5   -200.0255493 -0.117159E-05  0.875E-04    1.33      10.1  T
   6   -200.0255494 -0.571677E-07  0.454E-04    1.33      19.5  T
   7   -200.0255494 -0.410984E-08  0.251E-04    1.33      35.2  T
     SCC iter.                  ...        0 min,  0.541 sec
     gradient                   ...        0 min,  0.062 sec
 * total energy  :  -196.7482099 Eh     change       -0.4879160E-03 Eh
   gradient norm :     0.0049929 Eh/α   predicted    -0.3825072E-03 ( -21.60%)
   displ. norm   :     0.5741468 α      lambda       -0.5611926E-03
   maximum displ.:     0.2735316 α      in ANC's #3, #5, #11, ...

........................................................................
.............................. CYCLE   31 ..............................
........................................................................

 iter      E             dE          RMSdq      gap      omega  full diag
   1   -200.0253673 -0.200025E+03  0.690E-02    1.32       0.0  T
   2   -200.0253667  0.597536E-06  0.412E-02    1.32       1.0  T
   3   -200.0252415  0.125182E-03  0.268E-02    1.33       1.0  T
   4   -200.0253772 -0.135738E-03  0.274E-03    1.32       3.2  T
   5   -200.0253785 -0.132241E-05  0.860E-04    1.32      10.3  T
   6   -200.0253786 -0.483218E-07  0.463E-04    1.32      19.1  T
   7   -200.0253786 -0.729275E-08  0.235E-04    1.32      37.6  T
     SCC iter.                  ...        0 min,  0.431 sec
     gradient                   ...        0 min,  0.057 sec
 * total energy  :  -196.7486679 Eh     change       -0.4579574E-03 Eh
   gradient norm :     0.0052156 Eh/α   predicted    -0.3730937E-03 ( -18.53%)
   displ. norm   :     0.5471183 α      lambda       -0.4612751E-03
   maximum displ.:     0.2522357 α      in ANC's #5, #3, #15, ...

........................................................................
.............................. CYCLE   32 ..............................
........................................................................

 iter      E             dE          RMSdq      gap      omega  full diag
   1   -200.0253244 -0.200025E+03  0.634E-02    1.31       0.0  T
   2   -200.0253256 -0.114499E-05  0.373E-02    1.31       1.0  T
   3   -200.0252873  0.383107E-04  0.145E-02    1.31       1.0  T
   4   -200.0253281 -0.408101E-04  0.195E-03    1.31       4.5  T
   5   -200.0253287 -0.620854E-06  0.700E-04    1.31      12.6  T
   6   -200.0253287 -0.281485E-07  0.369E-04    1.31      23.9  T
     SCC iter.                  ...        0 min,  0.501 sec
     gradient                   ...        0 min,  0.050 sec
 * total energy  :  -196.7490411 Eh     change       -0.3732243E-03 Eh
   gradient norm :     0.0049801 Eh/α   predicted    -0.2996771E-03 ( -19.71%)
   displ. norm   :     0.5214442 α      lambda       -0.3857876E-03
   maximum displ.:     0.2369105 α      in ANC's #5, #3, #15, ...

........................................................................
.............................. CYCLE   33 ..............................
........................................................................

 iter      E             dE          RMSdq      gap      omega  full diag
   1   -200.0259308 -0.200026E+03  0.588E-02    1.30       0.0  T
   2   -200.0259312 -0.440868E-06  0.347E-02    1.30       1.0  T
   3   -200.0258824  0.487591E-04  0.162E-02    1.30       1.0  T
   4   -200.0259347 -0.522111E-04  0.144E-03    1.30       6.1  T
   5   -200.0259349 -0.259977E-06  0.621E-04    1.30      14.2  T
   6   -200.0259349 -0.258972E-07  0.302E-04    1.30      29.3  T
     SCC iter.                  ...        0 min,  0.440 sec
     gradient                   ...        0 min,  0.052 sec
 * total energy  :  -196.7493564 Eh     change       -0.3152866E-03 Eh
   gradient norm :     0.0041754 Eh/α   predicted    -0.2453447E-03 ( -22.18%)
   displ. norm   :     0.5337973 α      lambda       -0.3574849E-03
   maximum displ.:     0.2365509 α      in ANC's #5, #3, #15, ...

........................................................................
.............................. CYCLE   34 ..............................
........................................................................

 iter      E             dE          RMSdq      gap      omega  full diag
   1   -200.0268398 -0.200027E+03  0.610E-02    1.29       0.0  T
   2   -200.0268388  0.979328E-06  0.363E-02    1.29       1.0  T
   3   -200.0267422  0.966115E-04  0.232E-02    1.29       1.0  T
   4   -200.0268469 -0.104692E-03  0.152E-03    1.29       5.8  T
   5   -200.0268471 -0.279654E-06  0.665E-04    1.29      13.3  T
   6   -200.0268472 -0.346384E-07  0.333E-04    1.29      26.5  T
     SCC iter.                  ...        0 min,  0.300 sec
     gradient                   ...        0 min,  0.053 sec
 * total energy  :  -196.7496466 Eh     change       -0.2902411E-03 Eh
   gradient norm :     0.0040315 Eh/α   predicted    -0.2296750E-03 ( -20.87%)
   displ. norm   :     0.5496254 α      lambda       -0.3164680E-03
   maximum displ.:     0.2416238 α      in ANC's #5, #3, #15, ...

........................................................................
.............................. CYCLE   35 ..............................
........................................................................

 iter      E             dE          RMSdq      gap      omega  full diag
   1   -200.0271262 -0.200027E+03  0.644E-02    1.28       0.0  T
   2   -200.0271252  0.983123E-06  0.383E-02    1.28       1.0  T
   3   -200.0270247  0.100529E-03  0.237E-02    1.28       1.0  T
   4   -200.0271334 -0.108732E-03  0.158E-03    1.28       5.6  T
   5   -200.0271337 -0.321503E-06  0.649E-04    1.28      13.6  T
   6   -200.0271338 -0.284406E-07  0.330E-04    1.28      26.8  T
     SCC iter.                  ...        0 min,  0.329 sec
     gradient                   ...        0 min,  0.053 sec
 * total energy  :  -196.7498979 Eh     change       -0.2512380E-03 Eh
   gradient norm :     0.0042485 Eh/α   predicted    -0.2060397E-03 ( -17.99%)
   displ. norm   :     0.5114263 α      lambda       -0.2440034E-03
   maximum displ.:     0.2267808 α      in ANC's #5, #3, #4, ...

........................................................................
.............................. CYCLE   36 ..............................
........................................................................

 iter      E             dE          RMSdq      gap      omega  full diag
   1   -200.0271034 -0.200027E+03  0.611E-02    1.27       0.0  T
   2   -200.0271034  0.561365E-07  0.361E-02    1.27       1.0  T
   3   -200.0270377  0.656648E-04  0.190E-02    1.27       1.0  T
   4   -200.0271082 -0.705170E-04  0.153E-03    1.27       5.8  T
   5   -200.0271085 -0.327678E-06  0.569E-04    1.27      15.5  T
   6   -200.0271086 -0.167697E-07  0.295E-04    1.27      29.9  T
     SCC iter.                  ...        0 min,  0.452 sec
     gradient                   ...        0 min,  0.053 sec
 * total energy  :  -196.7500864 Eh     change       -0.1885075E-03 Eh
   gradient norm :     0.0038834 Eh/α   predicted    -0.1539123E-03 ( -18.35%)
   displ. norm   :     0.4413254 α      lambda       -0.1726596E-03
   maximum displ.:     0.1984515 α      in ANC's #5, #3, #4, ...

........................................................................
.............................. CYCLE   37 ..............................
........................................................................

 iter      E             dE          RMSdq      gap      omega  full diag
   1   -200.0274406 -0.200027E+03  0.528E-02    1.26       0.0  T
   2   -200.0274411 -0.482691E-06  0.311E-02    1.26       1.0  T
   3   -200.0274069  0.341691E-04  0.136E-02    1.27       1.0  T
   4   -200.0274434 -0.364975E-04  0.146E-03    1.26       6.1  T
   5   -200.0274437 -0.327713E-06  0.496E-04    1.26      17.8  T
   6   -200.0274437 -0.119787E-07  0.266E-04    1.26      33.2  T
     SCC iter.                  ...        0 min,  0.413 sec
     gradient                   ...        0 min,  0.052 sec
 * total energy  :  -196.7502156 Eh     change       -0.1292093E-03 Eh
   gradient norm :     0.0028125 Eh/α   predicted    -0.1031446E-03 ( -20.17%)
   displ. norm   :     0.3496512 α      lambda       -0.1118870E-03
   maximum displ.:     0.1589716 α      in ANC's #5, #3, #4, ...

........................................................................
.............................. CYCLE   38 ..............................
........................................................................

 iter      E             dE          RMSdq      gap      omega  full diag
   1   -200.0277818 -0.200028E+03  0.412E-02    1.26       0.0  T
   2   -200.0277823 -0.470024E-06  0.242E-02    1.26       1.0  T
   3   -200.0277685  0.137698E-04  0.860E-03    1.26       1.0  T
   4   -200.0277831 -0.146384E-04  0.119E-03    1.26       7.4  T
   5   -200.0277834 -0.227565E-06  0.390E-04    1.26      22.7  T
   6   -200.0277834 -0.744396E-08  0.207E-04    1.26      42.6  T
     SCC iter.                  ...        0 min,  0.383 sec
     gradient                   ...        0 min,  0.055 sec
 * total energy  :  -196.7502975 Eh     change       -0.8195813E-04 Eh
   gradient norm :     0.0021243 Eh/α   predicted    -0.6278414E-04 ( -23.39%)
   displ. norm   :     0.2632716 α      lambda       -0.7562999E-04
   maximum displ.:     0.1166771 α      in ANC's #5, #3, #4, ...

........................................................................
.............................. CYCLE   39 ..............................
........................................................................

 iter      E             dE          RMSdq      gap      omega  full diag
   1   -200.0286968 -0.200029E+03  0.301E-02    1.26       0.0  T
   2   -200.0286971 -0.334669E-06  0.177E-02    1.26       1.0  T
   3   -200.0286948  0.235366E-05  0.368E-03    1.26       2.4  T
   4   -200.0286973 -0.250494E-05  0.790E-04    1.26      11.2  T
   5   -200.0286974 -0.961439E-07  0.299E-04    1.26      29.6  T
   6   -200.0286974 -0.597817E-08  0.147E-04    1.26      60.0  T
     SCC iter.                  ...        0 min,  0.423 sec
     gradient                   ...        0 min,  0.051 sec
 * total energy  :  -196.7503533 Eh     change       -0.5578483E-04 Eh
   gradient norm :     0.0022771 Eh/α   predicted    -0.4043677E-04 ( -27.51%)
   displ. norm   :     0.2403316 α      lambda       -0.6625414E-04
   maximum displ.:     0.1010990 α      in ANC's #5, #4, #1, ...

........................................................................
.............................. CYCLE   40 ..............................
........................................................................

 iter      E             dE          RMSdq      gap      omega  full diag
   1   -200.0285545 -0.200029E+03  0.268E-02    1.26       0.0  T
   2   -200.0285547 -0.205177E-06  0.157E-02    1.26       1.0  T
   3   -200.0285539  0.818335E-06  0.223E-03    1.26       4.0  T
   4   -200.0285548 -0.889383E-06  0.559E-04    1.26      15.8  T
   5   -200.0285548 -0.450663E-07  0.263E-04    1.26      33.6  T
     SCC iter.                  ...        0 min,  0.353 sec
     gradient                   ...        0 min,  0.050 sec
 * total energy  :  -196.7504036 Eh     change       -0.5025214E-04 Eh
   gradient norm :     0.0022591 Eh/α   predicted    -0.3504181E-04 ( -30.27%)
   displ. norm   :     0.2504496 α      lambda       -0.7484850E-04
   maximum displ.:     0.0937552 α      in ANC's #2, #1, #4, ...

........................................................................
.............................. CYCLE   41 ..............................
........................................................................

 iter      E             dE          RMSdq      gap      omega  full diag
   1   -200.0293764 -0.200029E+03  0.273E-02    1.26       0.0  T
   2   -200.0293765 -0.780407E-07  0.161E-02    1.26       1.0  T
   3   -200.0293702  0.629211E-05  0.564E-03    1.26       1.6  T
   4   -200.0293769 -0.669385E-05  0.542E-04    1.26      16.3  T
   5   -200.0293769 -0.303210E-07  0.265E-04    1.26      33.3  T
   6   -200.0293769 -0.302967E-08  0.135E-04    1.26      65.4  T
     SCC iter.                  ...        0 min,  0.405 sec
     gradient                   ...        0 min,  0.052 sec
 * total energy  :  -196.7504609 Eh     change       -0.5735122E-04 Eh
   gradient norm :     0.0026599 Eh/α   predicted    -0.3977402E-04 ( -30.65%)
   displ. norm   :     0.2812736 α      lambda       -0.8172797E-04
   maximum displ.:     0.1139208 α      in ANC's #2, #1, #4, ...

........................................................................
.............................. CYCLE   42 ..............................
........................................................................

 iter      E             dE          RMSdq      gap      omega  full diag
   1   -200.0283541 -0.200028E+03  0.298E-02    1.26       0.0  T
   2   -200.0283542 -0.314019E-07  0.176E-02    1.26       1.0  T
   3   -200.0283446  0.956599E-05  0.697E-03    1.26       1.3  T
   4   -200.0283548 -0.101856E-04  0.654E-04    1.26      13.5  T
   5   -200.0283548 -0.530354E-07  0.285E-04    1.26      31.0  T
   6   -200.0283548 -0.163362E-08  0.157E-04    1.26      56.2  T
     SCC iter.                  ...        0 min,  0.395 sec
     gradient                   ...        0 min,  0.053 sec
 * total energy  :  -196.7505243 Eh     change       -0.6339326E-04 Eh
   gradient norm :     0.0026012 Eh/α   predicted    -0.4409726E-04 ( -30.44%)
   displ. norm   :     0.3038315 α      lambda       -0.8767554E-04
   maximum displ.:     0.1328011 α      in ANC's #2, #1, #11, ...
 * RMSD in coord.:     0.7260381 α      energy gain  -0.1007500E-01 Eh

generating ANC from model Hessian ...
Using Lindh-Hessian (1995)
 Shifting diagonal of input Hessian by    1.0038185787005818E-002
 Lowest  eigenvalues of input Hessian
    0.010000    0.010033    0.000000    0.000000    0.000000    0.000000
    0.000000    0.000000    0.010178    0.010197    0.010234    0.010260
    0.010388    0.010447    0.010515    0.010710    0.010733    0.010833
 Highest eigenvalues
    2.140026    2.145808    2.197333    2.203765    2.377967    2.388818


........................................................................
.............................. CYCLE   43 ..............................
........................................................................

 iter      E             dE          RMSdq      gap      omega  full diag
   1   -200.0293367 -0.200029E+03  0.296E-02    1.26       0.0  T
   2   -200.0293368 -0.102003E-06  0.175E-02    1.26       1.0  T
   3   -200.0293254  0.113676E-04  0.771E-03    1.25       1.1  T
   4   -200.0293375 -0.121305E-04  0.835E-04    1.26      10.6  T
   5   -200.0293376 -0.106138E-06  0.317E-04    1.26      27.9  T
   6   -200.0293376 -0.446545E-08  0.175E-04    1.26      50.6  T
     SCC iter.                  ...        0 min,  0.506 sec
     gradient                   ...        0 min,  0.053 sec
 * total energy  :  -196.7505907 Eh     change       -0.6634480E-04 Eh
   gradient norm :     0.0027428 Eh/α   predicted     0.0000000E+00 (-100.00%)
   displ. norm   :     0.0415975 α      lambda       -0.3536568E-04
   maximum displ.:     0.0137028 α      in ANC's #2, #5, #13, ...

........................................................................
.............................. CYCLE   44 ..............................
........................................................................

 iter      E             dE          RMSdq      gap      omega  full diag
   1   -200.0288863 -0.200029E+03  0.772E-03    1.25       0.0  T
   2   -200.0288863  0.124432E-07  0.471E-03    1.25       1.9  T
   3   -200.0288843  0.196567E-05  0.357E-03    1.25       2.5  T
   4   -200.0288865 -0.223079E-05  0.396E-04    1.25      22.3  T
   5   -200.0288865 -0.237497E-07  0.139E-04    1.25      63.6  T
   6   -200.0288865 -0.128125E-08  0.706E-05    1.25     125.3  T
     SCC iter.                  ...        0 min,  0.657 sec
     gradient                   ...        0 min,  0.055 sec
 * total energy  :  -196.7506208 Eh     change       -0.3016140E-04 Eh
   gradient norm :     0.0013055 Eh/α   predicted    -0.1827765E-04 ( -39.40%)
   displ. norm   :     0.1870667 α      lambda       -0.6690763E-04
   maximum displ.:     0.0678079 α      in ANC's #2, #5, #13, ...

........................................................................
.............................. CYCLE   45 ..............................
........................................................................

 iter      E             dE          RMSdq      gap      omega  full diag
   1   -200.0282526 -0.200028E+03  0.294E-02    1.25       0.0  T
   2   -200.0282525  0.907615E-07  0.177E-02    1.25       1.0  T
   3   -200.0282288  0.236928E-04  0.118E-02    1.25       1.0  T
   4   -200.0282547 -0.258797E-04  0.115E-03    1.25       7.7  T
   5   -200.0282549 -0.192823E-06  0.440E-04    1.25      20.1  T
   6   -200.0282549 -0.100341E-07  0.228E-04    1.25      38.7  T
     SCC iter.                  ...        0 min,  0.456 sec
     gradient                   ...        0 min,  0.051 sec
 * total energy  :  -196.7506660 Eh     change       -0.4514975E-04 Eh
   gradient norm :     0.0028877 Eh/α   predicted    -0.3397431E-04 ( -24.75%)
   displ. norm   :     0.0357786 α      lambda       -0.1769872E-04
   maximum displ.:     0.0176701 α      in ANC's #2, #5, #3, ...

........................................................................
.............................. CYCLE   46 ..............................
........................................................................

 iter      E             dE          RMSdq      gap      omega  full diag
   1   -200.0287742 -0.200029E+03  0.396E-03    1.25       0.0  T
   2   -200.0287742 -0.389349E-08  0.237E-03    1.25       3.7  T
   3   -200.0287738  0.426348E-06  0.161E-03    1.25       5.5  T
   4   -200.0287743 -0.469458E-06  0.206E-04    1.25      43.0  T
   5   -200.0287743 -0.628128E-08  0.672E-05    1.25     131.5  T
     SCC iter.                  ...        0 min,  0.353 sec
     gradient                   ...        0 min,  0.053 sec
 * total energy  :  -196.7506819 Eh     change       -0.1597307E-04 Eh
   gradient norm :     0.0020063 Eh/α   predicted    -0.8860914E-05 ( -44.53%)
   displ. norm   :     0.1658535 α      lambda       -0.6118129E-04
   maximum displ.:     0.0801172 α      in ANC's #2, #3, #5, ...

........................................................................
.............................. CYCLE   47 ..............................
........................................................................

 iter      E             dE          RMSdq      gap      omega  full diag
   1   -200.0301415 -0.200030E+03  0.167E-02    1.25       0.0  T
   2   -200.0301416 -0.870288E-07  0.990E-03    1.25       1.0  T
   3   -200.0301365  0.509989E-05  0.541E-03    1.25       1.6  T
   4   -200.0301420 -0.550913E-05  0.704E-04    1.25      12.5  T
   5   -200.0301421 -0.722879E-07  0.249E-04    1.25      35.5  T
   6   -200.0301421 -0.235843E-08  0.142E-04    1.25      62.4  T
     SCC iter.                  ...        0 min,  0.450 sec
     gradient                   ...        0 min,  0.055 sec
 * total energy  :  -196.7507244 Eh     change       -0.4248580E-04 Eh
   gradient norm :     0.0013076 Eh/α   predicted    -0.3143454E-04 ( -26.01%)
   displ. norm   :     0.2471696 α      lambda       -0.3203631E-04
   maximum displ.:     0.1225303 α      in ANC's #2, #3, #5, ...

........................................................................
.............................. CYCLE   48 ..............................
........................................................................

 iter      E             dE          RMSdq      gap      omega  full diag
   1   -200.0307264 -0.200031E+03  0.220E-02    1.25       0.0  T
   2   -200.0307265 -0.143037E-06  0.130E-02    1.25       1.0  T
   3   -200.0307218  0.465557E-05  0.487E-03    1.25       1.8  T
   4   -200.0307269 -0.500869E-05  0.643E-04    1.25      13.7  T
   5   -200.0307269 -0.483366E-07  0.307E-04    1.25      28.8  T
   6   -200.0307269 -0.273101E-08  0.168E-04    1.25      52.6  T
     SCC iter.                  ...        0 min,  0.460 sec
     gradient                   ...        0 min,  0.053 sec
 * total energy  :  -196.7507594 Eh     change       -0.3498717E-04 Eh
   gradient norm :     0.0029424 Eh/α   predicted    -0.1645335E-04 ( -52.97%)
   displ. norm   :     0.1643807 α      lambda       -0.3436645E-04
   maximum displ.:     0.0834472 α      in ANC's #2, #3, #5, ...

........................................................................
.............................. CYCLE   49 ..............................
........................................................................

 iter      E             dE          RMSdq      gap      omega  full diag
   1   -200.0305838 -0.200031E+03  0.135E-02    1.25       0.0  T
   2   -200.0305838 -0.379334E-07  0.799E-03    1.24       1.1  T
   3   -200.0305810  0.280117E-05  0.388E-03    1.25       2.3  T
   4   -200.0305841 -0.301638E-05  0.402E-04    1.24      22.0  T
   5   -200.0305841 -0.190757E-07  0.198E-04    1.25      44.7  T
   6   -200.0305841 -0.185472E-08  0.108E-04    1.25      82.0  T
     SCC iter.                  ...        0 min,  0.349 sec
     gradient                   ...        0 min,  0.051 sec
 * total energy  :  -196.7507912 Eh     change       -0.3174184E-04 Eh
   gradient norm :     0.0025535 Eh/α   predicted    -0.1764797E-04 ( -44.40%)
   displ. norm   :     0.3511876 α      lambda       -0.7962777E-04
   maximum displ.:     0.1798016 α      in ANC's #2, #3, #5, ...

........................................................................
.............................. CYCLE   50 ..............................
........................................................................

 iter      E             dE          RMSdq      gap      omega  full diag
   1   -200.0298119 -0.200030E+03  0.280E-02    1.24       0.0  T
   2   -200.0298121 -0.111353E-06  0.166E-02    1.24       1.0  T
   3   -200.0297968  0.152600E-04  0.919E-03    1.24       1.0  T
   4   -200.0298133 -0.165022E-04  0.897E-04    1.24       9.9  T
   5   -200.0298134 -0.101481E-06  0.418E-04    1.24      21.1  T
   6   -200.0298134 -0.840294E-08  0.234E-04    1.24      37.9  T
     SCC iter.                  ...        0 min,  0.325 sec
     gradient                   ...        0 min,  0.052 sec
 * total energy  :  -196.7508585 Eh     change       -0.6735100E-04 Eh
   gradient norm :     0.0012557 Eh/α   predicted    -0.4472447E-04 ( -33.59%)
   displ. norm   :     0.6758752 α      lambda       -0.8331585E-04
   maximum displ.:     0.3520772 α      in ANC's #2, #3, #5, ...

........................................................................
.............................. CYCLE   51 ..............................
........................................................................

 iter      E             dE          RMSdq      gap      omega  full diag
   1   -200.0278583 -0.200028E+03  0.521E-02    1.24       0.0  T
   2   -200.0278588 -0.491215E-06  0.309E-02    1.23       1.0  T
   3   -200.0278123  0.464985E-04  0.160E-02    1.24       1.0  T
   4   -200.0278625 -0.501616E-04  0.163E-03    1.23       5.4  T
   5   -200.0278628 -0.329398E-06  0.774E-04    1.24      11.4  T
   6   -200.0278628 -0.258620E-07  0.429E-04    1.23      20.6  T
     SCC iter.                  ...        0 min,  0.430 sec
     gradient                   ...        0 min,  0.051 sec
 * total energy  :  -196.7509487 Eh     change       -0.9020393E-04 Eh
   gradient norm :     0.0024437 Eh/α   predicted    -0.5011966E-04 ( -44.44%)
   displ. norm   :     0.2916398 α      lambda       -0.4895255E-04
   maximum displ.:     0.1571774 α      in ANC's #2, #3, #1, ...

........................................................................
.............................. CYCLE   52 ..............................
........................................................................

 iter      E             dE          RMSdq      gap      omega  full diag
   1   -200.0283025 -0.200028E+03  0.209E-02    1.23       0.0  T
   2   -200.0283026 -0.980683E-07  0.123E-02    1.23       1.0  T
   3   -200.0282970  0.562033E-05  0.559E-03    1.23       1.6  T
   4   -200.0283031 -0.604854E-05  0.662E-04    1.23      13.4  T
   5   -200.0283031 -0.546576E-07  0.316E-04    1.23      28.0  T
   6   -200.0283031 -0.230494E-08  0.161E-04    1.23      54.9  T
     SCC iter.                  ...        0 min,  0.397 sec
     gradient                   ...        0 min,  0.053 sec
 * total energy  :  -196.7509936 Eh     change       -0.4488168E-04 Eh
   gradient norm :     0.0023879 Eh/α   predicted    -0.2655866E-04 ( -40.83%)
   displ. norm   :     0.3821662 α      lambda       -0.8316006E-04
   maximum displ.:     0.2097962 α      in ANC's #2, #3, #1, ...

........................................................................
.............................. CYCLE   53 ..............................
........................................................................

 iter      E             dE          RMSdq      gap      omega  full diag
   1   -200.0296804 -0.200030E+03  0.262E-02    1.23       0.0  T
   2   -200.0296806 -0.223110E-06  0.154E-02    1.23       1.0  T
   3   -200.0296731  0.752069E-05  0.654E-03    1.23       1.4  T
   4   -200.0296812 -0.810673E-05  0.870E-04    1.23      10.2  T
   5   -200.0296813 -0.942871E-07  0.426E-04    1.23      20.8  T
   6   -200.0296813 -0.681658E-08  0.210E-04    1.23      42.2  T
     SCC iter.                  ...        0 min,  0.384 sec
     gradient                   ...        0 min,  0.051 sec
 * total energy  :  -196.7510668 Eh     change       -0.7316265E-04 Eh
   gradient norm :     0.0015728 Eh/α   predicted    -0.4765625E-04 ( -34.86%)
   displ. norm   :     0.7290007 α      lambda       -0.9863036E-04
   maximum displ.:     0.4066882 α      in ANC's #2, #3, #1, ...

........................................................................
.............................. CYCLE   54 ..............................
........................................................................

 iter      E             dE          RMSdq      gap      omega  full diag
   1   -200.0301465 -0.200030E+03  0.481E-02    1.22       0.0  T
   2   -200.0301473 -0.865952E-06  0.284E-02    1.22       1.0  T
   3   -200.0301265  0.208353E-04  0.108E-02    1.22       1.0  T
   4   -200.0301490 -0.224791E-04  0.155E-03    1.22       5.7  T
   5   -200.0301492 -0.266561E-06  0.821E-04    1.22      10.8  T
   6   -200.0301493 -0.303624E-07  0.386E-04    1.22      22.9  T
     SCC iter.                  ...        0 min,  0.378 sec
     gradient                   ...        0 min,  0.051 sec
 * total energy  :  -196.7511788 Eh     change       -0.1120040E-03 Eh
   gradient norm :     0.0015567 Eh/α   predicted    -0.6096528E-04 ( -45.57%)
   displ. norm   :     0.5406110 α      lambda       -0.5743676E-04
   maximum displ.:     0.3084856 α      in ANC's #2, #3, #1, ...

........................................................................
.............................. CYCLE   55 ..............................
........................................................................

 iter      E             dE          RMSdq      gap      omega  full diag
   1   -200.0300654 -0.200030E+03  0.338E-02    1.22       0.0  T
   2   -200.0300656 -0.126304E-06  0.201E-02    1.21       1.0  T
   3   -200.0300423  0.232994E-04  0.118E-02    1.22       1.0  T
   4   -200.0300676 -0.252984E-04  0.119E-03    1.21       7.4  T
   5   -200.0300677 -0.164071E-06  0.576E-04    1.21      15.4  T
   6   -200.0300677 -0.127824E-07  0.276E-04    1.21      32.0  T
     SCC iter.                  ...        0 min,  0.345 sec
     gradient                   ...        0 min,  0.054 sec
 * total energy  :  -196.7512535 Eh     change       -0.7479394E-04 Eh
   gradient norm :     0.0017307 Eh/α   predicted    -0.3244986E-04 ( -56.61%)
   displ. norm   :     0.5019060 α      lambda       -0.6645106E-04
   maximum displ.:     0.2921272 α      in ANC's #2, #3, #1, ...

........................................................................
.............................. CYCLE   56 ..............................
........................................................................

 iter      E             dE          RMSdq      gap      omega  full diag
   1   -200.0310408 -0.200031E+03  0.309E-02    1.21       0.0  T
   2   -200.0310402  0.567357E-06  0.188E-02    1.21       1.0  T
   3   -200.0310083  0.318932E-04  0.145E-02    1.21       1.0  T
   4   -200.0310446 -0.362845E-04  0.126E-03    1.21       7.0  T
   5   -200.0310448 -0.199098E-06  0.552E-04    1.21      16.0  T
   6   -200.0310448 -0.148627E-07  0.279E-04    1.21      31.7  T
     SCC iter.                  ...        0 min,  0.435 sec
     gradient                   ...        0 min,  0.049 sec
 * total energy  :  -196.7513430 Eh     change       -0.8948631E-04 Eh
   gradient norm :     0.0014380 Eh/α   predicted    -0.3694661E-04 ( -58.71%)
   displ. norm   :     0.6584784 α      lambda       -0.9354550E-04
   maximum displ.:     0.3848504 α      in ANC's #2, #3, #1, ...

........................................................................
.............................. CYCLE   57 ..............................
........................................................................

 iter      E             dE          RMSdq      gap      omega  full diag
   1   -200.0303638 -0.200030E+03  0.409E-02    1.20       0.0  T
   2   -200.0303632  0.644903E-06  0.246E-02    1.19       1.0  T
   3   -200.0303113  0.518490E-04  0.180E-02    1.20       1.0  T
   4   -200.0303689 -0.576201E-04  0.146E-03    1.19       6.1  T
   5   -200.0303692 -0.234698E-06  0.689E-04    1.20      12.8  T
   6   -200.0303692 -0.162421E-07  0.346E-04    1.20      25.6  T
     SCC iter.                  ...        0 min,  0.484 sec
     gradient                   ...        0 min,  0.053 sec
 * total energy  :  -196.7514668 Eh     change       -0.1237768E-03 Eh
   gradient norm :     0.0014980 Eh/α   predicted    -0.5579069E-04 ( -54.93%)
   displ. norm   :     0.7433154 α      lambda       -0.1071789E-03
   maximum displ.:     0.4383836 α      in ANC's #2, #3, #1, ...

........................................................................
.............................. CYCLE   58 ..............................
........................................................................

 iter      E             dE          RMSdq      gap      omega  full diag
[...]
                            20 C    0.112
    23   6 C    3.982 --    19 C    1.543    25 C    1.281    39 H    0.960
    24   6 C    3.987 --    20 C    1.520    26 C    1.349    40 H    0.971
    25   6 C    3.972 --    21 C    1.435    23 C    1.281    41 C    1.085
    26   6 C    3.983 --    22 C    1.525    24 C    1.349    42 H    0.971
    27   1 H    0.998 --    11 C    0.966
    28   1 H    0.998 --    12 C    0.966
    29   1 H    0.998 --    13 C    0.967
    30   1 H    0.998 --    14 C    0.967
    31   1 H    0.998 --    15 C    0.967
    32   1 H    0.998 --    16 C    0.967
    33   1 H    0.997 --    17 C    0.967
    34   1 H    0.998 --    18 C    0.967
    35   1 H    0.997 --    19 C    0.953
    36   1 H    0.998 --    20 C    0.963
    37   1 H    0.994 --    21 C    0.957
    38   1 H    0.999 --    22 C    0.968
    39   1 H    0.996 --    23 C    0.960
    40   1 H    0.999 --    24 C    0.971
    41   6 C    3.944 --    49 N    1.251    51 N    1.250    25 C    1.085
                            52 O    0.142    50 O    0.135
    42   1 H    0.998 --    26 C    0.971
    43   6 C    3.967 --    45 C    1.001    48 C    0.979    44 C    0.958
                            49 N    0.916
    44   6 C    3.966 --    47 C    0.999    46 C    0.980    43 C    0.958
                            51 N    0.914
    45   6 C    3.988 --    43 C    1.001    58 H    0.981    56 H    0.978
                            57 H    0.978
    46   6 C    3.988 --    59 H    0.983    60 H    0.980    61 H    0.980
                            44 C    0.980
    47   6 C    3.988 --    44 C    0.999    64 H    0.982    62 H    0.981
                            63 H    0.977
    48   6 C    3.989 --    53 H    0.984    55 H    0.981    54 H    0.980
                            43 C    0.979
    49   7 N    3.698 --    50 O    1.288    41 C    1.251    43 C    0.916
    50   8 O    1.718 --    49 N    1.288    41 C    0.135
    51   7 N    3.714 --    52 O    1.314    41 C    1.250    44 C    0.914
    52   8 O    1.752 --    51 N    1.314    41 C    0.142
    53   1 H    0.998 --    48 C    0.984
    54   1 H    0.996 --    48 C    0.980
    55   1 H    0.995 --    48 C    0.981
    56   1 H    0.996 --    45 C    0.978
    57   1 H    0.994 --    45 C    0.978
    58   1 H    0.997 --    45 C    0.981
    59   1 H    0.997 --    46 C    0.983
    60   1 H    0.996 --    46 C    0.980
    61   1 H    0.995 --    46 C    0.980
    62   1 H    0.997 --    47 C    0.981
    63   1 H    0.994 --    47 C    0.977
    64   1 H    0.997 --    47 C    0.982
    65   6 C    3.984 --    68 C    1.297    66 C    1.217    67 C    1.216
    66   6 C    3.985 --    69 C    1.323    65 C    1.217    71 C    1.182
    67   6 C    3.986 --    70 C    1.326    65 C    1.216    72 C    1.178
    68   6 C    3.982 --    65 C    1.297    75 C    1.248    76 C    1.248
    69   6 C    3.981 --    66 C    1.323    77 C    1.248    79 C    1.221
    70   6 C    3.986 --    67 C    1.326    78 C    1.247    80 C    1.222
    71   6 C    3.987 --    83 C    1.303    73 C    1.270    66 C    1.182
    72   6 C    3.987 --    84 C    1.314    74 C    1.277    67 C    1.178
    73   6 C    3.987 --    85 C    1.322    71 C    1.270    81 C    1.215
    74   6 C    3.987 --    86 C    1.306    72 C    1.277    82 C    1.221
    75   6 C    3.977 --    77 C    1.590    68 C    1.248    91 H    0.967
    76   6 C    3.980 --    78 C    1.594    68 C    1.248    92 H    0.967
    77   6 C    3.976 --    75 C    1.590    69 C    1.248    93 H    0.967
    78   6 C    3.976 --    76 C    1.594    70 C    1.247    94 H    0.967
    79   6 C    3.987 --    81 C    1.628    69 C    1.221    95 H    0.966
    80   6 C    3.987 --    82 C    1.627    70 C    1.222    96 H    0.967
    81   6 C    3.979 --    79 C    1.628    73 C    1.215    97 H    0.967
    82   6 C    3.981 --    80 C    1.627    74 C    1.221    98 H    0.967
    83   6 C    3.991 --    87 C    1.538    71 C    1.303    99 H    0.963
                            85 C    0.102
    84   6 C    3.991 --    88 C    1.517    72 C    1.314   100 H    0.956
                            86 C    0.112
    85   6 C    3.979 --    89 C    1.443    73 C    1.322   101 H    0.958
                            83 C    0.102
    86   6 C    3.984 --    90 C    1.525    74 C    1.306   102 H    0.968
                            84 C    0.112
    87   6 C    3.982 --    83 C    1.538    89 C    1.287   103 H    0.963
    88   6 C    3.987 --    84 C    1.517    90 C    1.350   104 H    0.966
    89   6 C    3.973 --    85 C    1.443    87 C    1.287   105 C    1.074
    90   6 C    3.983 --    86 C    1.525    88 C    1.350   106 H    0.971
    91   1 H    0.998 --    75 C    0.967
    92   1 H    0.998 --    76 C    0.967
    93   1 H    0.998 --    77 C    0.967
    94   1 H    0.998 --    78 C    0.967
    95   1 H    0.998 --    79 C    0.966
    96   1 H    0.998 --    80 C    0.967
    97   1 H    0.997 --    81 C    0.967
    98   1 H    0.998 --    82 C    0.967
    99   1 H    0.998 --    83 C    0.963
   100   1 H    0.999 --    84 C    0.956
   101   1 H    0.995 --    85 C    0.958
   102   1 H    0.998 --    86 C    0.968
   103   1 H    0.995 --    87 C    0.963
   104   1 H    0.999 --    88 C    0.966
   105   6 C    3.946 --   115 N    1.259   113 N    1.253    89 C    1.074
                           116 O    0.141   114 O    0.140
   106   1 H    0.998 --    90 C    0.971
   107   6 C    3.965 --   109 C    0.997   112 C    0.979   108 C    0.960
                           113 N    0.914
   108   6 C    3.966 --   111 C    0.995   110 C    0.982   107 C    0.960
                           115 N    0.915
   109   6 C    3.989 --   107 C    0.997   122 H    0.983   120 H    0.981
                           121 H    0.978
   110   6 C    3.990 --   123 H    0.984   108 C    0.982   124 H    0.981
                           125 H    0.980
   111   6 C    3.984 --   108 C    0.995   128 H    0.983   127 H    0.980
                           126 H    0.967
   112   6 C    3.986 --   118 H    0.981   119 H    0.980   107 C    0.979
                           117 H    0.976
   113   7 N    3.711 --   114 O    1.309   105 C    1.253   107 C    0.914
   114   8 O    1.739 --   113 N    1.309   105 C    0.140
   115   7 N    3.715 --   116 O    1.306   105 C    1.259   108 C    0.915
   116   8 O    1.737 --   115 N    1.306   105 C    0.141
   117   1 H    0.994 --   112 C    0.976
   118   1 H    0.997 --   112 C    0.981
   119   1 H    0.996 --   112 C    0.980
   120   1 H    0.997 --   109 C    0.981
   121   1 H    0.994 --   109 C    0.978
   122   1 H    0.997 --   109 C    0.983
   123   1 H    0.998 --   110 C    0.984
   124   1 H    0.997 --   110 C    0.981
   125   1 H    0.995 --   110 C    0.980
   126   1 H    0.993 --   111 C    0.967
   127   1 H    0.995 --   111 C    0.980
   128   1 H    0.998 --   111 C    0.983
 ---------------------------------------------------------------------------

Topologies differ in bond orders
Writing corrected topology to xtbtopo.mol

molecular dipole:
                 x           y           z       tot (Debye)
 q only:       -1.574      -1.299      -0.830
   full:       -1.571      -1.294      -0.795       5.553
molecular quadrupole (traceless):
                xx          xy          yy          xz          yz          zz
 q only:       28.726      35.681       3.185      -5.490       2.956     -31.911
  q+dip:       31.415      42.397      11.847       9.413      -1.692     -43.262
   full:       29.845      38.193       4.325      -3.235       4.932     -34.170

           -------------------------------------------------
          |                Geometry Summary                 |
           -------------------------------------------------

      molecular mass/u    :      967.1618024
   center of mass at/Å    :        0.8930483      -0.7825391       3.0208844
  moments of inertia/u·Å² :        0.1087015E+05   0.1712416E+05   0.2106041E+05
rotational constants/cm⁻¹ :        0.1550818E-02   0.9844356E-03   0.8004417E-03

 * 130 selected distances

     #   Z          #   Z                                           value/Å
     1   6 C        2   6 C                                       1.4349284
     1   6 C        3   6 C                                       1.4338207
     1   6 C        4   6 C                                       1.4143548
     2   6 C        5   6 C                                       1.4085415
     3   6 C        6   6 C                                       1.4087474
     7   6 C        9   6 C                                       1.4158807
     8   6 C       10   6 C                                       1.4162683
     4   6 C       11   6 C                                       1.4146006
     4   6 C       12   6 C                                       1.4144765
     5   6 C       13   6 C                                       1.4148189
    11   6 C       13   6 C                                       1.3579272
     6   6 C       14   6 C                                       1.4150451
    12   6 C       14   6 C                                       1.3577232
     5   6 C       15   6 C                                       1.4215211
     6   6 C       16   6 C                                       1.4204515
     9   6 C       17   6 C                                       1.4213206
    15   6 C       17   6 C                                       1.3537876
    10   6 C       18   6 C                                       1.4208504
    16   6 C       18   6 C                                       1.3537320
     7   6 C       19   6 C                                       1.4060465
     8   6 C       20   6 C                                       1.4062289
     9   6 C       21   6 C                                       1.4007158
    10   6 C       22   6 C                                       1.4054183
    19   6 C       23   6 C                                       1.3666104
    20   6 C       24   6 C                                       1.3709473
    21   6 C       25   6 C                                       1.3836083
    23   6 C       25   6 C                                       1.4102437
    22   6 C       26   6 C                                       1.3697284
    24   6 C       26   6 C                                       1.3971738
    11   6 C       27   1 H                                       1.0800685
    12   6 C       28   1 H                                       1.0801051
    13   6 C       29   1 H                                       1.0807432
    14   6 C       30   1 H                                       1.0802149
    15   6 C       31   1 H                                       1.0809861
    16   6 C       32   1 H                                       1.0804108
    17   6 C       33   1 H                                       1.0800172
    18   6 C       34   1 H                                       1.0803194
    19   6 C       35   1 H                                       1.0755472 (min)
    20   6 C       36   1 H                                       1.0786284
    21   6 C       37   1 H                                       1.0781413
    22   6 C       38   1 H                                       1.0810066
    23   6 C       39   1 H                                       1.0778232
    24   6 C       40   1 H                                       1.0801490
    26   6 C       42   1 H                                       1.0804837
    43   6 C       44   6 C                                       1.5380926
    43   6 C       45   6 C                                       1.5208568
    44   6 C       46   6 C                                       1.5336355
    44   6 C       47   6 C                                       1.5215789
    43   6 C       48   6 C                                       1.5349293
    41   6 C       49   7 N                                       1.3443314
    43   6 C       49   7 N                                       1.4802043
    41   6 C       51   7 N                                       1.3446525
    44   6 C       51   7 N                                       1.4789065
    51   7 N       52   8 O                                       1.2594547
    48   6 C       53   1 H                                       1.0881699
    48   6 C       54   1 H                                       1.0861099
    48   6 C       55   1 H                                       1.0884156
    45   6 C       56   1 H                                       1.0847699
    45   6 C       57   1 H                                       1.0872312
    45   6 C       58   1 H                                       1.0865489
    46   6 C       59   1 H                                       1.0882294
    46   6 C       60   1 H                                       1.0861266
    46   6 C       61   1 H                                       1.0881632
    47   6 C       62   1 H                                       1.0855417
    47   6 C       63   1 H                                       1.0871320
    47   6 C       64   1 H                                       1.0863821
    65   6 C       68   6 C                                       1.4166710
    66   6 C       69   6 C                                       1.4095526
    67   6 C       70   6 C                                       1.4103794
    71   6 C       73   6 C                                       1.4163208
    72   6 C       74   6 C                                       1.4170094
    68   6 C       75   6 C                                       1.4144448
    68   6 C       76   6 C                                       1.4142743
    69   6 C       77   6 C                                       1.4130027
    75   6 C       77   6 C                                       1.3563741
    70   6 C       78   6 C                                       1.4142525
    76   6 C       78   6 C                                       1.3557846
    69   6 C       79   6 C                                       1.4209758
    70   6 C       80   6 C                                       1.4209142
    73   6 C       81   6 C                                       1.4204227
    79   6 C       81   6 C                                       1.3529303
    74   6 C       82   6 C                                       1.4195727
    80   6 C       82   6 C                                       1.3527652
    71   6 C       83   6 C                                       1.4071709
    72   6 C       84   6 C                                       1.4051569
    73   6 C       85   6 C                                       1.3998458
    74   6 C       86   6 C                                       1.4051500
    83   6 C       87   6 C                                       1.3674142
    84   6 C       88   6 C                                       1.3711122
    85   6 C       89   6 C                                       1.3808467
    87   6 C       89   6 C                                       1.4088769
    86   6 C       90   6 C                                       1.3680704
    88   6 C       90   6 C                                       1.3953744
    75   6 C       91   1 H                                       1.0809151
    76   6 C       92   1 H                                       1.0807056
    77   6 C       93   1 H                                       1.0800125
    78   6 C       94   1 H                                       1.0805727
    79   6 C       95   1 H                                       1.0802868
    80   6 C       96   1 H                                       1.0809451
    81   6 C       97   1 H                                       1.0797029
    82   6 C       98   1 H                                       1.0805209
    83   6 C       99   1 H                                       1.0789233
Note: The following floating-point exceptions are signalling: IEEE_UNDERFLOW_FLAG
normal termination of xtb
    84   6 C      100   1 H                                       1.0776245
    85   6 C      101   1 H                                       1.0781296
    86   6 C      102   1 H                                       1.0807286
    87   6 C      103   1 H                                       1.0773635
    88   6 C      104   1 H                                       1.0796708
    90   6 C      106   1 H                                       1.0792194
   107   6 C      108   6 C                                       1.5410095 (max)
   107   6 C      109   6 C                                       1.5240429
   108   6 C      110   6 C                                       1.5326293
   108   6 C      111   6 C                                       1.5226056
   107   6 C      112   6 C                                       1.5335993
   105   6 C      113   7 N                                       1.3413606
   107   6 C      113   7 N                                       1.4785111
   113   7 N      114   8 O                                       1.2616212
   105   6 C      115   7 N                                       1.3399385
   108   6 C      115   7 N                                       1.4783590
   112   6 C      117   1 H                                       1.0872974
   112   6 C      118   1 H                                       1.0862809
   112   6 C      119   1 H                                       1.0882024
   109   6 C      120   1 H                                       1.0856713
   109   6 C      121   1 H                                       1.0874288
   109   6 C      122   1 H                                       1.0863853
   110   6 C      123   1 H                                       1.0878352
   110   6 C      124   1 H                                       1.0861161
   110   6 C      125   1 H                                       1.0883641
   111   6 C      126   1 H                                       1.0854733
   111   6 C      127   1 H                                       1.0875150
   111   6 C      128   1 H                                       1.0862139

 * 4 distinct bonds (by element types)

   Z      Z             #   av. dist./Å        max./Å        min./Å
   1 H    6 C          54     1.0828809     1.0884156     1.0755472
   6 C    6 C          66     1.4189873     1.5410095     1.3527652
   6 C    7 N           8     1.4107830     1.4802043     1.3399385
   7 N    8 O           2     1.2605380     1.2616212     1.2594547


optimized geometry written to: xtbopt.mol


           -------------------------------------------------
          | TOTAL ENERGY             -196.752148389983 Eh   |
          | GRADIENT NORM               0.000143846660 Eh/α |
          | HOMO-LUMO GAP               1.169300024576 eV   |
           -------------------------------------------------
########################################################################
[WARNING] Runtime exception occurred
-3- restart_readRestart: Dimension missmatch in restart file.
-2- restart_readRestart: Multiplicity missmatch in restart file.
-1- restart_readRestart: Number of electron missmatch in restart file.
########################################################################

------------------------------------------------------------------------
 * finished run on 2024/11/14 at 10:42:00.235     
------------------------------------------------------------------------
 total:
 * wall-time:     0 d,  0 h,  0 min, 50.468 sec
 *  cpu-time:     0 d,  0 h,  2 min, 57.283 sec
 * ratio c/w:     3.513 speedup
 SCF:
 * wall-time:     0 d,  0 h,  0 min,  2.834 sec
 *  cpu-time:     0 d,  0 h,  0 min, 10.325 sec
 * ratio c/w:     3.643 speedup
 ANC optimizer:
 * wall-time:     0 d,  0 h,  0 min, 47.602 sec
 *  cpu-time:     0 d,  0 h,  2 min, 46.917 sec
 * ratio c/w:     3.507 speedup

