      -----------------------------------------------------------      
     |                   =====================                   |     
     |                           x T B                           |     
     |                   =====================                   |     
     |                         S. Grimme                         |     
     |          Mulliken Center for Theoretical Chemistry        |     
     |                    University of Bonn                     |     
      -----------------------------------------------------------      

   * xtb version 6.6.1 (8d0f1dd) compiled by 'runner@Mac-1690902418499.local' on 2023-08-01

   xtb is free software: you can redistribute it and/or modify it under
   the terms of the GNU Lesser General Public License as published by
   the Free Software Foundation, either version 3 of the License, or
   (at your option) any later version.
   
   xtb is distributed in the hope that it will be useful,
   but WITHOUT ANY WARRANTY; without even the implied warranty of
   MERCHANTABILITY or FITNESS FOR A PARTICULAR PURPOSE.  See the
   GNU Lesser General Public License for more details.
   
   Cite this work as:
   * C. Bannwarth, E. Caldeweyher, S. Ehlert, A. Hansen, P. Pracht,
     J. Seibert, S. Spicher, S. Grimme, WIREs Comput. Mol. Sci., 2020, 11,
     e01493. DOI: 10.1002/wcms.1493
   
   for GFN2-xTB:
   * C. Bannwarth, S. Ehlert and S. Grimme., J. Chem. Theory Comput., 2019,
     15, 1652-1671. DOI: 10.1021/acs.jctc.8b01176
   for GFN1-xTB:
   * S. Grimme, C. Bannwarth, P. Shushkov, J. Chem. Theory Comput., 2017,
     13, 1989-2009. DOI: 10.1021/acs.jctc.7b00118
   for GFN0-xTB:
   * P. Pracht, E. Caldeweyher, S. Ehlert, S. Grimme, ChemRxiv, 2019, preprint.
     DOI: 10.26434/chemrxiv.8326202.v1
   for GFN-FF:
   * S. Spicher and S. Grimme, Angew. Chem. Int. Ed., 2020, 59, 15665-15673.
     DOI: 10.1002/anie.202004239
   
   for ALPB and GBSA implicit solvation:
   * S. Ehlert, M. Stahn, S. Spicher, S. Grimme, J. Chem. Theory Comput.,
     2021, 17, 4250-4261. DOI: 10.1021/acs.jctc.1c00471
   
   for DFT-D4:
   * E. Caldeweyher, C. Bannwarth and S. Grimme, J. Chem. Phys., 2017,
     147, 034112. DOI: 10.1063/1.4993215
   * E. Caldeweyher, S. Ehlert, A. Hansen, H. Neugebauer, S. Spicher,
     C. Bannwarth and S. Grimme, J. Chem. Phys., 2019, 150, 154122.
     DOI: 10.1063/1.5090222
   * E. Caldeweyher, J.-M. Mewes, S. Ehlert and S. Grimme, Phys. Chem. Chem. Phys.
     2020, 22, 8499-8512. DOI: 10.1039/D0CP00502A
   
   for sTDA-xTB:
   * S. Grimme and C. Bannwarth, J. Chem. Phys., 2016, 145, 054103.
     DOI: 10.1063/1.4959605
   
   in the mass-spec context:
   * V. Asgeirsson, C. Bauer and S. Grimme, Chem. Sci., 2017, 8, 4879.
     DOI: 10.1039/c7sc00601b
   * J. Koopman and S. Grimme, ACS Omega 2019, 4, 12, 15120-15133.
     DOI: 10.1021/acsomega.9b02011
   
   for metadynamics refer to:
   * S. Grimme, J. Chem. Theory Comput., 2019, 155, 2847-2862
     DOI: 10.1021/acs.jctc.9b00143
   
   for SPH calculations refer to:
   * S. Spicher and S. Grimme, J. Chem. Theory Comput., 2021, 17, 1701-1714
     DOI: 10.1021/acs.jctc.0c01306
   
   with help from (in alphabetical order)
   P. Atkinson, C. Bannwarth, F. Bohle, G. Brandenburg, E. Caldeweyher
   M. Checinski, S. Dohm, S. Ehlert, S. Ehrlich, I. Gerasimov, C. Hölzer
   A. Katbashev, J. Koopman, C. Lavigne, S. Lehtola, F. März, M. Müller,
   F. Musil, H. Neugebauer, J. Pisarek, C. Plett, P. Pracht, F. Pultar,
   J. Seibert, P. Shushkov, S. Spicher, M. Stahn, M. Steiner, T. Strunk,
   J. Stückrath, T. Rose, and J. Unsleber
   
 * started run on 2024/11/14 at 10:37:30.152     

           -------------------------------------------------
          |                Calculation Setup                |
           -------------------------------------------------

          program call               : xtb Nitro2.mol --opt --gfn2 --chrg 0 --uhf 1 --tight
          coordinate file            : Nitro2.mol
          omp threads                :                     8

   ID    Z sym.   atoms
    1    6 C      1-26, 41, 43-48
    2    1 H      27-40, 42, 53-64
    3    7 N      49, 51
    4    8 O      50, 52
########################################################################
[WARNING] Please study the warnings concerning your input carefully
-2- prog_main: Charge in sdf/mol input was overwritten
-1- prog_main_parseArguments: Unknown option '--tight' provided
########################################################################

           -------------------------------------------------
          |                 G F N 2 - x T B                 |
           -------------------------------------------------

        Reference                      10.1021/acs.jctc.8b01176
      * Hamiltonian:
        H0-scaling (s, p, d)           1.850000    2.230000    2.230000
        zeta-weighting                 0.500000
      * Dispersion:
        s8                             2.700000
        a1                             0.520000
        a2                             5.000000
        s9                             5.000000
      * Repulsion:
        kExp                           1.500000    1.000000
        rExp                           1.000000
      * Coulomb:
        alpha                          2.000000
        third order                    shell-resolved
        anisotropic                    true
        a3                             3.000000
        a5                             4.000000
        cn-shift                       1.200000
        cn-exp                         4.000000
        max-rad                        5.000000


          ...................................................
          :                      SETUP                      :
          :.................................................:
          :  # basis functions                 175          :
          :  # atomic orbitals                 175          :
          :  # shells                          101          :
          :  # electrons                       181          :
          :  max. iterations                   250          :
          :  Hamiltonian                  GFN2-xTB          :
          :  restarted?                      false          :
          :  GBSA solvation                  false          :
          :  PC potential                    false          :
          :  electronic temp.          300.0000000     K    :
          :  accuracy                    1.0000000          :
          :  -> integral cutoff          0.2500000E+02      :
          :  -> integral neglect         0.1000000E-07      :
          :  -> SCF convergence          0.1000000E-05 Eh   :
          :  -> wf. convergence          0.1000000E-03 e    :
          :  Broyden damping             0.4000000          :
          ...................................................

 iter      E             dE          RMSdq      gap      omega  full diag
   1    -99.7024286 -0.997024E+02  0.422E+00    0.37       0.0  T
   2    -99.9008215 -0.198393E+00  0.247E+00    1.35       1.0  T
   3    -99.8807785  0.200430E-01  0.136E+00    1.35       1.0  T
   4    -99.8905104 -0.973194E-02  0.780E-01    1.30       1.0  T
   5    -99.9304488 -0.399384E-01  0.148E-01    1.47       1.0  T
   6    -99.9313384 -0.889643E-03  0.718E-02    1.48       1.0  T
   7    -99.9314179 -0.795103E-04  0.354E-02    1.49       1.0  T
   8    -99.9314517 -0.338072E-04  0.180E-02    1.49       1.0  T
   9    -99.9314600 -0.830245E-05  0.893E-03    1.49       1.4  T
  10    -99.9314638 -0.375883E-05  0.356E-03    1.49       3.5  T
  11    -99.9314644 -0.547333E-06  0.135E-03    1.49       9.2  T
  12    -99.9314644 -0.428628E-07  0.733E-04    1.49      17.0  T
  13    -99.9314644 -0.141559E-07  0.266E-04    1.49      47.0  T

   *** convergence criteria satisfied after 13 iterations ***

         #    Occupation            Energy/Eh            Energy/eV
      -------------------------------------------------------------
         1        2.0000           -0.7340218             -19.9737
       ...           ...                  ...                  ...
        85        2.0000           -0.3956007             -10.7648
        86        2.0000           -0.3889681             -10.5844
        87        2.0000           -0.3824052             -10.4058
        88        2.0000           -0.3776579             -10.2766
        89        2.0000           -0.3645207              -9.9191
        90        2.0000           -0.3607111              -9.8154
        91        1.0000           -0.3289888              -8.9522 (HOMO)
        92                         -0.2742956              -7.4640 (LUMO)
        93                         -0.2663162              -7.2468
        94                         -0.2542262              -6.9178
        95                         -0.2432202              -6.6184
        96                         -0.2269892              -6.1767
       ...                                ...                  ...
       175                          0.7214620              19.6320
      -------------------------------------------------------------
                  HL-Gap            0.0546932 Eh            1.4883 eV
             Fermi-level           -0.3232418 Eh           -8.7959 eV

 SCC (total)                   0 d,  0 h,  0 min,  0.290 sec
 SCC setup                      ...        0 min,  0.001 sec (  0.183%)
 Dispersion                     ...        0 min,  0.001 sec (  0.277%)
 classical contributions        ...        0 min,  0.000 sec (  0.111%)
 integral evaluation            ...        0 min,  0.003 sec (  0.896%)
 iterations                     ...        0 min,  0.262 sec ( 90.351%)
 molecular gradient             ...        0 min,  0.011 sec (  3.852%)
 printout                       ...        0 min,  0.013 sec (  4.327%)

         :::::::::::::::::::::::::::::::::::::::::::::::::::::
         ::                     SUMMARY                     ::
         :::::::::::::::::::::::::::::::::::::::::::::::::::::
         :: total energy             -98.317693633801 Eh    ::
         :: gradient norm              0.207889040670 Eh/a0 ::
         :: HOMO-LUMO gap              1.488278836956 eV    ::
         ::.................................................::
         :: SCC energy               -99.931464407532 Eh    ::
         :: -> isotropic ES            0.069817980698 Eh    ::
         :: -> anisotropic ES          0.008988580174 Eh    ::
         :: -> anisotropic XC          0.041482987045 Eh    ::
         :: -> dispersion             -0.087143792482 Eh    ::
         :: repulsion energy           1.612551612556 Eh    ::
         :: add. restraining           0.000000000000 Eh    ::
         :: total charge               0.000000000079 e     ::
         :::::::::::::::::::::::::::::::::::::::::::::::::::::

      ----------------------------------------------------------- 
     |                   =====================                   |
     |                        A N C O P T                        |
     |                   =====================                   |
     |               Approximate Normal Coordinate               |
     |                Rational Function Optimizer                |
      ----------------------------------------------------------- 

          ...................................................
          :                      SETUP                      :
          :.................................................:
          :   optimization level            normal          :
          :   max. optcycles                   200          :
          :   ANC micro-cycles                  20          :
          :   degrees of freedom               186          :
          :.................................................:
          :   RF solver                   davidson          :
          :   write xtbopt.log                true          :
          :   linear?                        false          :
          :   energy convergence         0.5000000E-05 Eh   :
          :   grad. convergence          0.1000000E-02 Eh/α :
          :   maxmium RF displ.          1.0000000          :
          :   Hlow (freq-cutoff)         0.1000000E-01      :
          :   Hmax (freq-cutoff)         5.0000000          :
          :   S6 in model hess.         20.0000000          :
          ...................................................

generating ANC from model Hessian ...
Using Lindh-Hessian (1995)
 Shifting diagonal of input Hessian by    9.9085208605691512E-003
 Lowest  eigenvalues of input Hessian
    0.000000    0.000000    0.000000    0.000000    0.000000    0.000000
    0.010000    0.010023    0.010284    0.010583    0.011089    0.011445
    0.011815    0.012012    0.012605    0.012741    0.013291    0.013966
 Highest eigenvalues
    2.004237    2.049036    2.082338    2.092006    2.200415    2.580589


........................................................................
.............................. CYCLE    1 ..............................
........................................................................

 iter      E             dE          RMSdq      gap      omega  full diag
   1    -99.9314644 -0.999315E+02  0.128E-04    1.49       0.0  T
   2    -99.9314644 -0.181231E-09  0.971E-05    1.49     128.8  T
   3    -99.9314644 -0.487020E-09  0.447E-05    1.49     279.9  T
     SCC iter.                  ...        0 min,  0.056 sec
     gradient                   ...        0 min,  0.010 sec
 * total energy  :   -98.3176936 Eh     change       -0.1747310E-08 Eh
   gradient norm :     0.2078872 Eh/α   predicted     0.0000000E+00 (-100.00%)
   displ. norm   :     0.2960840 α      lambda       -0.3884278E-01
   maximum displ.:     0.1128125 α      in ANC's #13, #53, #143, ...

........................................................................
.............................. CYCLE    2 ..............................
........................................................................

 iter      E             dE          RMSdq      gap      omega  full diag
   1    -99.9461791 -0.999462E+02  0.335E-01    1.49       0.0  T
   2    -99.9441623  0.201687E-02  0.438E-01    1.54       1.0  T
   3    -99.9556623 -0.115000E-01  0.124E-01    1.51       1.0  T
   4    -99.9555012  0.161143E-03  0.892E-02    1.51       1.0  T
   5    -99.9557552 -0.254025E-03  0.276E-02    1.51       1.0  T
   6    -99.9557912 -0.360021E-04  0.799E-03    1.50       1.6  T
   7    -99.9557911  0.667058E-07  0.530E-03    1.50       2.4  T
   8    -99.9557921 -0.101756E-05  0.167E-03    1.50       7.5  T
   9    -99.9557922 -0.107760E-06  0.692E-04    1.50      18.1  T
  10    -99.9557923 -0.192020E-07  0.305E-04    1.50      41.0  T
     SCC iter.                  ...        0 min,  0.291 sec
     gradient                   ...        0 min,  0.012 sec
 * total energy  :   -98.3450389 Eh     change       -0.2734525E-01 Eh
   gradient norm :     0.0851942 Eh/α   predicted    -0.2113053E-01 ( -22.73%)
   displ. norm   :     0.3481239 α      lambda       -0.1340491E-01
   maximum displ.:     0.2046867 α      in ANC's #13, #6, #18, ...

........................................................................
.............................. CYCLE    3 ..............................
........................................................................

 iter      E             dE          RMSdq      gap      omega  full diag
   1    -99.9686686 -0.999687E+02  0.245E-01    1.48       0.0  T
   2    -99.9675324  0.113625E-02  0.312E-01    1.49       1.0  T
   3    -99.9733850 -0.585266E-02  0.875E-02    1.49       1.0  T
   4    -99.9733029  0.821295E-04  0.596E-02    1.49       1.0  T
   5    -99.9734144 -0.111455E-03  0.171E-02    1.49       1.0  T
   6    -99.9734293 -0.149577E-04  0.514E-03    1.49       2.4  T
   7    -99.9734293  0.379501E-07  0.340E-03    1.49       3.7  T
   8    -99.9734297 -0.409567E-06  0.113E-03    1.49      11.1  T
   9    -99.9734297 -0.500783E-07  0.469E-04    1.49      26.6  T
  10    -99.9734298 -0.928367E-08  0.187E-04    1.49      66.8  T
     SCC iter.                  ...        0 min,  0.292 sec
     gradient                   ...        0 min,  0.025 sec
 * total energy  :   -98.3528225 Eh     change       -0.7783666E-02 Eh
   gradient norm :     0.0197531 Eh/α   predicted    -0.7518394E-02 (  -3.41%)
   displ. norm   :     0.3028981 α      lambda       -0.2066300E-02
   maximum displ.:     0.1744940 α      in ANC's #13, #6, #18, ...

........................................................................
.............................. CYCLE    4 ..............................
........................................................................

 iter      E             dE          RMSdq      gap      omega  full diag
   1    -99.9765063 -0.999765E+02  0.713E-02    1.51       0.0  T
   2    -99.9765144 -0.809868E-05  0.444E-02    1.51       1.0  T
   3    -99.9764619  0.525143E-04  0.337E-02    1.51       1.0  T
   4    -99.9765345 -0.726324E-04  0.700E-03    1.51       1.8  T
   5    -99.9765371 -0.253840E-05  0.182E-03    1.51       6.9  T
   6    -99.9765372 -0.976196E-07  0.105E-03    1.51      11.9  T
   7    -99.9765372 -0.255542E-07  0.450E-04    1.51      27.8  T
   8    -99.9765372 -0.111405E-07  0.147E-04    1.51      85.0  T
     SCC iter.                  ...        0 min,  0.159 sec
     gradient                   ...        0 min,  0.012 sec
 * total energy  :   -98.3543241 Eh     change       -0.1501581E-02 Eh
   gradient norm :     0.0116166 Eh/α   predicted    -0.1128037E-02 ( -24.88%)
   displ. norm   :     0.3581971 α      lambda       -0.1248441E-02
   maximum displ.:     0.2049851 α      in ANC's #6, #13, #4, ...

........................................................................
.............................. CYCLE    5 ..............................
........................................................................

 iter      E             dE          RMSdq      gap      omega  full diag
   1    -99.9813483 -0.999813E+02  0.668E-02    1.52       0.0  T
   2    -99.9813478  0.501932E-06  0.411E-02    1.52       1.0  T
   3    -99.9812856  0.622420E-04  0.327E-02    1.52       1.0  T
   4    -99.9813615 -0.759848E-04  0.392E-03    1.52       3.2  T
   5    -99.9813626 -0.106590E-05  0.146E-03    1.52       8.6  T
   6    -99.9813627 -0.461013E-07  0.672E-04    1.52      18.6  T
   7    -99.9813627 -0.914773E-08  0.280E-04    1.52      44.6  T
     SCC iter.                  ...        0 min,  0.196 sec
     gradient                   ...        0 min,  0.011 sec
 * total energy  :   -98.3551647 Eh     change       -0.8406092E-03 Eh
   gradient norm :     0.0068672 Eh/α   predicted    -0.7043305E-03 ( -16.21%)
   displ. norm   :     0.2882025 α      lambda       -0.4887615E-03
   maximum displ.:     0.1868100 α      in ANC's #6, #4, #2, ...

........................................................................
.............................. CYCLE    6 ..............................
........................................................................

 iter      E             dE          RMSdq      gap      omega  full diag
   1    -99.9850205 -0.999850E+02  0.466E-02    1.51       0.0  T
   2    -99.9850193  0.120448E-05  0.296E-02    1.52       1.0  T
   3    -99.9849934  0.259238E-04  0.238E-02    1.52       1.0  T
   4    -99.9850303 -0.369358E-04  0.285E-03    1.52       4.4  T
   5    -99.9850309 -0.565730E-06  0.105E-03    1.52      11.9  T
   6    -99.9850309 -0.575335E-07  0.427E-04    1.52      29.2  T
   7    -99.9850309  0.777604E-09  0.221E-04    1.52      56.7  T
     SCC iter.                  ...        0 min,  0.192 sec
     gradient                   ...        0 min,  0.010 sec
 * total energy  :   -98.3555370 Eh     change       -0.3722651E-03 Eh
   gradient norm :     0.0059050 Eh/α   predicted    -0.2646798E-03 ( -28.90%)
   displ. norm   :     0.2942290 α      lambda       -0.3824502E-03
   maximum displ.:     0.1870687 α      in ANC's #6, #4, #2, ...

........................................................................
.............................. CYCLE    7 ..............................
........................................................................

 iter      E             dE          RMSdq      gap      omega  full diag
   1    -99.9875272 -0.999875E+02  0.492E-02    1.51       0.0  T
   2    -99.9875277 -0.543140E-06  0.300E-02    1.52       1.0  T
   3    -99.9874948  0.329206E-04  0.228E-02    1.52       1.0  T
   4    -99.9875334 -0.386440E-04  0.268E-03    1.52       4.7  T
   5    -99.9875339 -0.480534E-06  0.959E-04    1.52      13.0  T
   6    -99.9875340 -0.546315E-07  0.378E-04    1.52      33.1  T
     SCC iter.                  ...        0 min,  0.091 sec
     gradient                   ...        0 min,  0.011 sec
 * total energy  :   -98.3558501 Eh     change       -0.3130598E-03 Eh
   gradient norm :     0.0051231 Eh/α   predicted    -0.2077805E-03 ( -33.63%)
   displ. norm   :     0.3642481 α      lambda       -0.3957599E-03
   maximum displ.:     0.2207447 α      in ANC's #6, #4, #2, ...

........................................................................
.............................. CYCLE    8 ..............................
........................................................................

 iter      E             dE          RMSdq      gap      omega  full diag
   1    -99.9885261 -0.999885E+02  0.646E-02    1.51       0.0  T
   2    -99.9885274 -0.122783E-05  0.382E-02    1.51       1.0  T
   3    -99.9885086  0.187883E-04  0.150E-02    1.51       1.0  T
   4    -99.9885287 -0.201126E-04  0.214E-03    1.51       5.8  T
   5    -99.9885290 -0.321557E-06  0.847E-04    1.51      14.8  T
   6    -99.9885290 -0.398658E-07  0.366E-04    1.51      34.2  T
     SCC iter.                  ...        0 min,  0.167 sec
     gradient                   ...        0 min,  0.011 sec
 * total energy  :   -98.3561795 Eh     change       -0.3294808E-03 Eh
   gradient norm :     0.0052591 Eh/α   predicted    -0.2241344E-03 ( -31.97%)
   displ. norm   :     0.4629463 α      lambda       -0.4225235E-03
   maximum displ.:     0.2675634 α      in ANC's #6, #4, #2, ...

........................................................................
.............................. CYCLE    9 ..............................
........................................................................

 iter      E             dE          RMSdq      gap      omega  full diag
   1    -99.9880469 -0.999880E+02  0.869E-02    1.52       0.0  T
   2    -99.9880483 -0.141819E-05  0.513E-02    1.51       1.0  T
   3    -99.9880251  0.232210E-04  0.167E-02    1.52       1.0  T
   4    -99.9880502 -0.251167E-04  0.194E-03    1.51       6.4  T
   5    -99.9880505 -0.265239E-06  0.802E-04    1.51      15.6  T
   6    -99.9880505 -0.213825E-07  0.420E-04    1.51      29.8  T
     SCC iter.                  ...        0 min,  0.143 sec
     gradient                   ...        0 min,  0.019 sec
 * total energy  :   -98.3565297 Eh     change       -0.3501337E-03 Eh
   gradient norm :     0.0056639 Eh/α   predicted    -0.2565405E-03 ( -26.73%)
   displ. norm   :     0.5560617 α      lambda       -0.4248523E-03
   maximum displ.:     0.3071073 α      in ANC's #6, #4, #2, ...

........................................................................
.............................. CYCLE   10 ..............................
........................................................................

 iter      E             dE          RMSdq      gap      omega  full diag
   1    -99.9867847 -0.999868E+02  0.110E-01    1.52       0.0  T
   2    -99.9867865 -0.184724E-05  0.650E-02    1.51       1.0  T
   3    -99.9867131  0.734327E-04  0.305E-02    1.52       1.0  T
   4    -99.9867923 -0.791750E-04  0.302E-03    1.51       4.1  T
   5    -99.9867929 -0.679081E-06  0.108E-03    1.51      11.5  T
   6    -99.9867930 -0.540348E-07  0.542E-04    1.51      23.0  T
   7    -99.9867930 -0.258764E-08  0.273E-04    1.51      45.8  T
     SCC iter.                  ...        0 min,  0.125 sec
     gradient                   ...        0 min,  0.011 sec
 * total energy  :   -98.3568679 Eh     change       -0.3382498E-03 Eh
   gradient norm :     0.0055312 Eh/α   predicted    -0.2781104E-03 ( -17.78%)
   displ. norm   :     0.5099899 α      lambda       -0.3272638E-03
   maximum displ.:     0.2560757 α      in ANC's #6, #2, #4, ...

........................................................................
.............................. CYCLE   11 ..............................
........................................................................

 iter      E             dE          RMSdq      gap      omega  full diag
   1    -99.9865529 -0.999866E+02  0.104E-01    1.52       0.0  T
   2    -99.9865547 -0.177786E-05  0.620E-02    1.52       1.0  T
   3    -99.9864836  0.711078E-04  0.301E-02    1.52       1.0  T
   4    -99.9865603 -0.766797E-04  0.295E-03    1.52       4.2  T
   5    -99.9865609 -0.631471E-06  0.110E-03    1.52      11.3  T
   6    -99.9865610 -0.671984E-07  0.518E-04    1.52      24.1  T
   7    -99.9865610 -0.137487E-08  0.272E-04    1.52      45.9  T
     SCC iter.                  ...        0 min,  0.123 sec
     gradient                   ...        0 min,  0.012 sec
 * total energy  :   -98.3571228 Eh     change       -0.2548986E-03 Eh
   gradient norm :     0.0045328 Eh/α   predicted    -0.2061922E-03 ( -19.11%)
   displ. norm   :     0.4213495 α      lambda       -0.2392175E-03
   maximum displ.:     0.2064271 α      in ANC's #2, #6, #4, ...

........................................................................
.............................. CYCLE   12 ..............................
........................................................................

 iter      E             dE          RMSdq      gap      omega  full diag
   1    -99.9878562 -0.999879E+02  0.886E-02    1.53       0.0  T
   2    -99.9878576 -0.134798E-05  0.522E-02    1.52       1.0  T
   3    -99.9878312  0.263646E-04  0.180E-02    1.53       1.0  T
   4    -99.9878595 -0.283263E-04  0.208E-03    1.52       6.0  T
   5    -99.9878598 -0.296173E-06  0.840E-04    1.52      14.9  T
   6    -99.9878599 -0.341540E-07  0.422E-04    1.52      29.6  T
     SCC iter.                  ...        0 min,  0.104 sec
     gradient                   ...        0 min,  0.011 sec
 * total energy  :   -98.3573073 Eh     change       -0.1844933E-03 Eh
   gradient norm :     0.0033447 Eh/α   predicted    -0.1408460E-03 ( -23.66%)
   displ. norm   :     0.3574873 α      lambda       -0.1726315E-03
   maximum displ.:     0.1917157 α      in ANC's #2, #3, #1, ...

........................................................................
.............................. CYCLE   13 ..............................
........................................................................

 iter      E             dE          RMSdq      gap      omega  full diag
   1    -99.9892700 -0.999893E+02  0.749E-02    1.53       0.0  T
   2    -99.9892707 -0.664006E-06  0.440E-02    1.53       1.0  T
   3    -99.9892656  0.506067E-05  0.754E-03    1.53       1.7  T
   4    -99.9892712 -0.561580E-05  0.102E-03    1.53      12.3  T
   5    -99.9892713 -0.532719E-07  0.556E-04    1.53      22.5  T
   6    -99.9892713 -0.599999E-08  0.322E-04    1.53      38.8  T
     SCC iter.                  ...        0 min,  0.087 sec
     gradient                   ...        0 min,  0.014 sec
 * total energy  :   -98.3574430 Eh     change       -0.1356784E-03 Eh
   gradient norm :     0.0030920 Eh/α   predicted    -0.9735026E-04 ( -28.25%)
   displ. norm   :     0.3054473 α      lambda       -0.1383198E-03
   maximum displ.:     0.1780944 α      in ANC's #2, #1, #3, ...

........................................................................
.............................. CYCLE   14 ..............................
........................................................................

 iter      E             dE          RMSdq      gap      omega  full diag
   1    -99.9905314 -0.999905E+02  0.617E-02    1.53       0.0  T
   2    -99.9905317 -0.312180E-06  0.364E-02    1.53       1.0  T
   3    -99.9905184  0.132861E-04  0.127E-02    1.53       1.0  T
   4    -99.9905327 -0.142391E-04  0.123E-03    1.53      10.2  T
   5    -99.9905328 -0.865093E-07  0.531E-04    1.53      23.5  T
   6    -99.9905328 -0.796283E-08  0.292E-04    1.53      42.9  T
     SCC iter.                  ...        0 min,  0.088 sec
     gradient                   ...        0 min,  0.010 sec
 * total energy  :   -98.3575558 Eh     change       -0.1127567E-03 Eh
   gradient norm :     0.0032629 Eh/α   predicted    -0.7561793E-04 ( -32.94%)
   displ. norm   :     0.3019276 α      lambda       -0.1298901E-03
   maximum displ.:     0.1858532 α      in ANC's #2, #1, #3, ...

........................................................................
.............................. CYCLE   15 ..............................
........................................................................

 iter      E             dE          RMSdq      gap      omega  full diag
   1    -99.9909187 -0.999909E+02  0.580E-02    1.53       0.0  T
   2    -99.9909190 -0.341994E-06  0.343E-02    1.53       1.0  T
   3    -99.9908987  0.202906E-04  0.160E-02    1.53       1.0  T
   4    -99.9909205 -0.217857E-04  0.148E-03    1.53       8.4  T
   5    -99.9909206 -0.131957E-06  0.580E-04    1.53      21.6  T
   6    -99.9909206 -0.120055E-07  0.312E-04    1.53      40.1  T
     SCC iter.                  ...        0 min,  0.089 sec
     gradient                   ...        0 min,  0.011 sec
 * total energy  :   -98.3576642 Eh     change       -0.1084283E-03 Eh
   gradient norm :     0.0031606 Eh/α   predicted    -0.7086982E-04 ( -34.64%)
   displ. norm   :     0.2977061 α      lambda       -0.1256232E-03
   maximum displ.:     0.1912117 α      in ANC's #2, #1, #3, ...

........................................................................
.............................. CYCLE   16 ..............................
........................................................................

 iter      E             dE          RMSdq      gap      omega  full diag
   1    -99.9911519 -0.999912E+02  0.540E-02    1.53       0.0  T
   2    -99.9911523 -0.467607E-06  0.319E-02    1.53       1.0  T
   3    -99.9911409  0.114603E-04  0.120E-02    1.53       1.0  T
   4    -99.9911532 -0.122641E-04  0.145E-03    1.53       8.6  T
   5    -99.9911533 -0.125025E-06  0.555E-04    1.53      22.5  T
   6    -99.9911533 -0.981251E-08  0.307E-04    1.53      40.8  T
     SCC iter.                  ...        0 min,  0.135 sec
     gradient                   ...        0 min,  0.011 sec
 * total energy  :   -98.3577712 Eh     change       -0.1070187E-03 Eh
   gradient norm :     0.0028206 Eh/α   predicted    -0.6837923E-04 ( -36.11%)
   displ. norm   :     0.3079226 α      lambda       -0.1285487E-03
   maximum displ.:     0.2025580 α      in ANC's #2, #1, #3, ...

........................................................................
.............................. CYCLE   17 ..............................
........................................................................

 iter      E             dE          RMSdq      gap      omega  full diag
   1    -99.9908136 -0.999908E+02  0.542E-02    1.53       0.0  T
   2    -99.9908141 -0.502641E-06  0.319E-02    1.53       1.0  T
   3    -99.9908108  0.330016E-05  0.652E-03    1.53       1.9  T
   4    -99.9908144 -0.358443E-05  0.132E-03    1.53       9.5  T
   5    -99.9908145 -0.959363E-07  0.557E-04    1.53      22.5  T
   6    -99.9908145 -0.776653E-08  0.298E-04    1.53      41.9  T
     SCC iter.                  ...        0 min,  0.094 sec
     gradient                   ...        0 min,  0.011 sec
 * total energy  :   -98.3578829 Eh     change       -0.1116655E-03 Eh
   gradient norm :     0.0025112 Eh/α   predicted    -0.7036966E-04 ( -36.98%)
   displ. norm   :     0.3335597 α      lambda       -0.1415063E-03
   maximum displ.:     0.2203485 α      in ANC's #2, #1, #3, ...

........................................................................
.............................. CYCLE   18 ..............................
........................................................................

 iter      E             dE          RMSdq      gap      omega  full diag
   1    -99.9906700 -0.999907E+02  0.584E-02    1.53       0.0  T
   2    -99.9906706 -0.607647E-06  0.343E-02    1.53       1.0  T
   3    -99.9906694  0.121487E-05  0.440E-03    1.53       2.8  T
   4    -99.9906708 -0.146616E-05  0.102E-03    1.53      12.2  T
   5    -99.9906709 -0.303339E-07  0.652E-04    1.53      19.2  T
   6    -99.9906709 -0.153243E-07  0.297E-04    1.53      42.1  T
     SCC iter.                  ...        0 min,  0.093 sec
     gradient                   ...        0 min,  0.010 sec
 * total energy  :   -98.3580057 Eh     change       -0.1228426E-03 Eh
   gradient norm :     0.0028281 Eh/α   predicted    -0.7862619E-04 ( -35.99%)
   displ. norm   :     0.3904264 α      lambda       -0.1606262E-03
   maximum displ.:     0.2575006 α      in ANC's #2, #1, #3, ...

........................................................................
.............................. CYCLE   19 ..............................
........................................................................

 iter      E             dE          RMSdq      gap      omega  full diag
   1    -99.9894527 -0.999895E+02  0.690E-02    1.53       0.0  T
   2    -99.9894536 -0.896056E-06  0.405E-02    1.53       1.0  T
   3    -99.9894507  0.294889E-05  0.660E-03    1.53       1.9  T
   4    -99.9894540 -0.328902E-05  0.156E-03    1.53       8.0  T
   5    -99.9894541 -0.126095E-06  0.799E-04    1.53      15.6  T
   6    -99.9894541 -0.210060E-07  0.383E-04    1.53      32.7  T
     SCC iter.                  ...        0 min,  0.107 sec
     gradient                   ...        0 min,  0.010 sec
 * total energy  :   -98.3581409 Eh     change       -0.1351800E-03 Eh
   gradient norm :     0.0035674 Eh/α   predicted    -0.9255715E-04 ( -31.53%)
   displ. norm   :     0.4169844 α      lambda       -0.1643782E-03
   maximum displ.:     0.2732970 α      in ANC's #2, #1, #3, ...

........................................................................
.............................. CYCLE   20 ..............................
........................................................................

 iter      E             dE          RMSdq      gap      omega  full diag
   1    -99.9889138 -0.999889E+02  0.732E-02    1.53       0.0  T
   2    -99.9889148 -0.106987E-05  0.430E-02    1.53       1.0  T
   3    -99.9889080  0.680275E-05  0.959E-03    1.53       1.3  T
   4    -99.9889154 -0.732478E-05  0.188E-03    1.53       6.6  T
   5    -99.9889156 -0.209085E-06  0.838E-04    1.53      14.9  T
   6    -99.9889156 -0.207683E-07  0.435E-04    1.53      28.7  T
     SCC iter.                  ...        0 min,  0.097 sec
     gradient                   ...        0 min,  0.013 sec
 * total energy  :   -98.3582721 Eh     change       -0.1312040E-03 Eh
   gradient norm :     0.0040543 Eh/α   predicted    -0.9648157E-04 ( -26.46%)
   displ. norm   :     0.4170944 α      lambda       -0.1485534E-03
   maximum displ.:     0.2768927 α      in ANC's #2, #1, #10, ...
 * RMSD in coord.:     0.7010631 α      energy gain  -0.4057846E-01 Eh

generating ANC from model Hessian ...
Using Lindh-Hessian (1995)
 Shifting diagonal of input Hessian by    9.8748326761415404E-003
 Lowest  eigenvalues of input Hessian
    0.000000    0.000000    0.000000    0.000000    0.000000    0.000000
    0.010000    0.010013    0.010340    0.010572    0.011183    0.011512
    0.012008    0.012547    0.012770    0.013448    0.014082    0.015490
 Highest eigenvalues
    2.081402    2.113295    2.125430    2.137013    2.202410    2.386262


........................................................................
.............................. CYCLE   21 ..............................
........................................................................

 iter      E             dE          RMSdq      gap      omega  full diag
   1    -99.9881819 -0.999882E+02  0.722E-02    1.53       0.0  T
   2    -99.9881829 -0.103901E-05  0.424E-02    1.53       1.0  T
   3    -99.9881794  0.354942E-05  0.725E-03    1.53       1.7  T
   4    -99.9881832 -0.387985E-05  0.182E-03    1.53       6.9  T
   5    -99.9881834 -0.188460E-06  0.838E-04    1.53      14.9  T
   6    -99.9881834 -0.211421E-07  0.432E-04    1.53      29.0  T
     SCC iter.                  ...        0 min,  0.166 sec
     gradient                   ...        0 min,  0.012 sec
 * total energy  :   -98.3583908 Eh     change       -0.1187453E-03 Eh
   gradient norm :     0.0036858 Eh/α   predicted     0.0000000E+00 (-100.00%)
   displ. norm   :     0.0501667 α      lambda       -0.4812162E-04
   maximum displ.:     0.0309734 α      in ANC's #1, #14, #3, ...

........................................................................
.............................. CYCLE   22 ..............................
........................................................................

 iter      E             dE          RMSdq      gap      omega  full diag
   1    -99.9897617 -0.999898E+02  0.149E-02    1.53       0.0  T
   2    -99.9897618 -0.381425E-07  0.915E-03    1.53       1.4  T
   3    -99.9897586  0.318396E-05  0.693E-03    1.53       1.8  T
   4    -99.9897623 -0.367393E-05  0.764E-04    1.53      16.4  T
   5    -99.9897623 -0.389194E-07  0.255E-04    1.53      49.1  T
   6    -99.9897623 -0.250039E-08  0.125E-04    1.53      99.6  T
     SCC iter.                  ...        0 min,  0.127 sec
     gradient                   ...        0 min,  0.011 sec
 * total energy  :   -98.3584328 Eh     change       -0.4191758E-04 Eh
   gradient norm :     0.0018675 Eh/α   predicted    -0.2522581E-04 ( -39.82%)
   displ. norm   :     0.2167158 α      lambda       -0.9225962E-04
   maximum displ.:     0.1301896 α      in ANC's #1, #14, #9, ...

........................................................................
.............................. CYCLE   23 ..............................
........................................................................

 iter      E             dE          RMSdq      gap      omega  full diag
   1    -99.9924783 -0.999925E+02  0.569E-02    1.52       0.0  T
   2    -99.9924790 -0.622719E-06  0.339E-02    1.53       1.0  T
   3    -99.9924526  0.263329E-04  0.183E-02    1.53       1.0  T
   4    -99.9924810 -0.283665E-04  0.200E-03    1.53       6.3  T
   5    -99.9924813 -0.273559E-06  0.710E-04    1.53      17.6  T
   6    -99.9924813 -0.165149E-07  0.370E-04    1.53      33.8  T
     SCC iter.                  ...        0 min,  0.170 sec
     gradient                   ...        0 min,  0.012 sec
 * total energy  :   -98.3585107 Eh     change       -0.7796148E-04 Eh
   gradient norm :     0.0037475 Eh/α   predicted    -0.4709536E-04 ( -39.59%)
   displ. norm   :     0.0815656 α      lambda       -0.3506265E-04
   maximum displ.:     0.0533198 α      in ANC's #1, #9, #3, ...

........................................................................
.............................. CYCLE   24 ..............................
........................................................................

 iter      E             dE          RMSdq      gap      omega  full diag
   1    -99.9918452 -0.999918E+02  0.169E-02    1.53       0.0  T
   2    -99.9918452  0.182550E-08  0.101E-02    1.53       1.2  T
   3    -99.9918426  0.260553E-05  0.579E-03    1.53       2.2  T
   4    -99.9918454 -0.281750E-05  0.409E-04    1.53      30.6  T
   5    -99.9918454 -0.946133E-08  0.195E-04    1.53      64.3  T
   6    -99.9918454 -0.101892E-08  0.105E-04    1.53     119.4  T
     SCC iter.                  ...        0 min,  0.228 sec
     gradient                   ...        0 min,  0.010 sec
 * total energy  :   -98.3585428 Eh     change       -0.3208958E-04 Eh
   gradient norm :     0.0031342 Eh/α   predicted    -0.1764934E-04 ( -45.00%)
   displ. norm   :     0.1834487 α      lambda       -0.8014410E-04
   maximum displ.:     0.1152568 α      in ANC's #1, #9, #3, ...

........................................................................
.............................. CYCLE   25 ..............................
........................................................................

 iter      E             dE          RMSdq      gap      omega  full diag
   1    -99.9901082 -0.999901E+02  0.337E-02    1.54       0.0  T
   2    -99.9901082 -0.114354E-07  0.204E-02    1.53       1.0  T
   3    -99.9900936  0.145571E-04  0.140E-02    1.53       1.0  T
   4    -99.9901097 -0.160825E-04  0.119E-03    1.53      10.5  T
   5    -99.9901098 -0.894221E-07  0.493E-04    1.53      25.4  T
   6    -99.9901098 -0.772154E-08  0.265E-04    1.53      47.2  T
     SCC iter.                  ...        0 min,  0.206 sec
     gradient                   ...        0 min,  0.010 sec
 * total energy  :   -98.3586076 Eh     change       -0.6482928E-04 Eh
   gradient norm :     0.0016749 Eh/α   predicted    -0.4142738E-04 ( -36.10%)
   displ. norm   :     0.3550758 α      lambda       -0.7267153E-04
   maximum displ.:     0.2229274 α      in ANC's #1, #9, #3, ...

........................................................................
.............................. CYCLE   26 ..............................
........................................................................

 iter      E             dE          RMSdq      gap      omega  full diag
   1    -99.9876826 -0.999877E+02  0.583E-02    1.54       0.0  T
   2    -99.9876831 -0.455619E-06  0.348E-02    1.54       1.0  T
   3    -99.9876542  0.288868E-04  0.192E-02    1.54       1.0  T
   4    -99.9876854 -0.311814E-04  0.183E-03    1.54       6.8  T
   5    -99.9876855 -0.185950E-06  0.810E-04    1.54      15.4  T
   6    -99.9876856 -0.142871E-07  0.456E-04    1.54      27.4  T
     SCC iter.                  ...        0 min,  0.141 sec
     gradient                   ...        0 min,  0.021 sec
 * total energy  :   -98.3586821 Eh     change       -0.7447158E-04 Eh
   gradient norm :     0.0037998 Eh/α   predicted    -0.3837509E-04 ( -48.47%)
   displ. norm   :     0.1523733 α      lambda       -0.4556410E-04
   maximum displ.:     0.0969694 α      in ANC's #1, #9, #3, ...

........................................................................
.............................. CYCLE   27 ..............................
........................................................................

 iter      E             dE          RMSdq      gap      omega  full diag
   1    -99.9880132 -0.999880E+02  0.214E-02    1.54       0.0  T
   2    -99.9880132 -0.486856E-07  0.126E-02    1.54       1.0  T
   3    -99.9880119  0.135700E-05  0.414E-03    1.54       3.0  T
   4    -99.9880133 -0.147227E-05  0.462E-04    1.54      27.1  T
   5    -99.9880133 -0.315528E-08  0.273E-04    1.54      45.7  T
   6    -99.9880134 -0.157316E-08  0.827E-05    1.54     151.1  T
     SCC iter.                  ...        0 min,  0.317 sec
     gradient                   ...        0 min,  0.011 sec
 * total energy  :   -98.3587251 Eh     change       -0.4302647E-04 Eh
   gradient norm :     0.0036349 Eh/α   predicted    -0.2331579E-04 ( -45.81%)
   displ. norm   :     0.3469316 α      lambda       -0.1296862E-03
   maximum displ.:     0.2165184 α      in ANC's #1, #2, #9, ...

........................................................................
.............................. CYCLE   28 ..............................
........................................................................

 iter      E             dE          RMSdq      gap      omega  full diag
   1    -99.9894914 -0.999895E+02  0.469E-02    1.53       0.0  T
   2    -99.9894913  0.894899E-07  0.278E-02    1.54       1.0  T
   3    -99.9894679  0.234431E-04  0.175E-02    1.54       1.0  T
   4    -99.9894934 -0.255758E-04  0.131E-03    1.54       9.6  T
   5    -99.9894935 -0.658284E-07  0.709E-04    1.54      17.6  T
   6    -99.9894935 -0.629321E-08  0.297E-04    1.54      42.1  T
     SCC iter.                  ...        0 min,  0.235 sec
     gradient                   ...        0 min,  0.021 sec
 * total energy  :   -98.3588412 Eh     change       -0.1161031E-03 Eh
   gradient norm :     0.0026075 Eh/α   predicted    -0.7264799E-04 ( -37.43%)
   displ. norm   :     0.5808251 α      lambda       -0.1997982E-03
   maximum displ.:     0.3604149 α      in ANC's #1, #2, #9, ...

........................................................................
.............................. CYCLE   29 ..............................
........................................................................

 iter      E             dE          RMSdq      gap      omega  full diag
   1    -99.9899735 -0.999900E+02  0.779E-02    1.53       0.0  T
   2    -99.9899742 -0.628707E-06  0.460E-02    1.53       1.0  T
   3    -99.9899332  0.410041E-04  0.228E-02    1.53       1.0  T
   4    -99.9899775 -0.443536E-04  0.221E-03    1.53       5.7  T
   5    -99.9899777 -0.172953E-06  0.122E-03    1.53      10.2  T
   6    -99.9899777 -0.221506E-07  0.509E-04    1.53      24.6  T
   7    -99.9899777 -0.696689E-08  0.147E-04    1.53      85.0  T
     SCC iter.                  ...        0 min,  0.226 sec
     gradient                   ...        0 min,  0.012 sec
 * total energy  :   -98.3590073 Eh     change       -0.1660312E-03 Eh
   gradient norm :     0.0040431 Eh/α   predicted    -0.1336013E-03 ( -19.53%)
   displ. norm   :     0.5847005 α      lambda       -0.1920548E-03
   maximum displ.:     0.3644591 α      in ANC's #1, #2, #8, ...

........................................................................
.............................. CYCLE   30 ..............................
........................................................................

 iter      E             dE          RMSdq      gap      omega  full diag
   1    -99.9897588 -0.999898E+02  0.792E-02    1.53       0.0  T
   2    -99.9897602 -0.137109E-05  0.467E-02    1.53       1.0  T
   3    -99.9897410  0.191679E-04  0.156E-02    1.53       1.0  T
   4    -99.9897619 -0.208418E-04  0.236E-03    1.53       5.3  T
   5    -99.9897621 -0.211491E-06  0.130E-03    1.53       9.6  T
   6    -99.9897621 -0.351234E-07  0.600E-04    1.53      20.8  T
   7    -99.9897621 -0.828655E-08  0.178E-04    1.53      70.3  T
     SCC iter.                  ...        0 min,  0.153 sec
     gradient                   ...        0 min,  0.012 sec
 * total energy  :   -98.3591601 Eh     change       -0.1527918E-03 Eh
   gradient norm :     0.0058818 Eh/α   predicted    -0.1288623E-03 ( -15.66%)
   displ. norm   :     0.4794429 α      lambda       -0.2233317E-03
   maximum displ.:     0.2930488 α      in ANC's #1, #8, #2, ...

........................................................................
.............................. CYCLE   31 ..............................
........................................................................

 iter      E             dE          RMSdq      gap      omega  full diag
   1    -99.9912876 -0.999913E+02  0.708E-02    1.53       0.0  T
   2    -99.9912889 -0.121407E-05  0.419E-02    1.53       1.0  T
   3    -99.9912645  0.243436E-04  0.174E-02    1.53       1.0  T
   4    -99.9912908 -0.262746E-04  0.239E-03    1.53       5.2  T
   5    -99.9912911 -0.287353E-06  0.117E-03    1.53      10.7  T
   6    -99.9912911 -0.225882E-07  0.586E-04    1.53      21.3  T
   7    -99.9912911 -0.806591E-08  0.155E-04    1.53      80.7  T
     SCC iter.                  ...        0 min,  0.105 sec
     gradient                   ...        0 min,  0.011 sec
 * total energy  :   -98.3593366 Eh     change       -0.1764958E-03 Eh
   gradient norm :     0.0050553 Eh/α   predicted    -0.1373357E-03 ( -22.19%)
   displ. norm   :     0.5889990 α      lambda       -0.2314024E-03
   maximum displ.:     0.3601071 α      in ANC's #1, #2, #8, ...

........................................................................
.............................. CYCLE   32 ..............................
........................................................................

 iter      E             dE          RMSdq      gap      omega  full diag
   1    -99.9895374 -0.999895E+02  0.822E-02    1.53       0.0  T
   2    -99.9895393 -0.190703E-05  0.485E-02    1.53       1.0  T
   3    -99.9895313  0.803024E-05  0.105E-02    1.53       1.2  T
   4    -99.9895403 -0.905338E-05  0.264E-03    1.53       4.7  T
   5    -99.9895406 -0.273460E-06  0.145E-03    1.53       8.6  T
   6    -99.9895407 -0.485118E-07  0.709E-04    1.53      17.6  T
   7    -99.9895407 -0.138898E-07  0.216E-04    1.53      57.8  T
     SCC iter.                  ...        0 min,  0.109 sec
     gradient                   ...        0 min,  0.011 sec
 * total energy  :   -98.3595273 Eh     change       -0.1907550E-03 Eh
   gradient norm :     0.0043295 Eh/α   predicted    -0.1558428E-03 ( -18.30%)
   displ. norm   :     0.5089266 α      lambda       -0.3379259E-03
   maximum displ.:     0.2609904 α      in ANC's #1, #8, #2, ...

........................................................................
.............................. CYCLE   33 ..............................
........................................................................

 iter      E             dE          RMSdq      gap      omega  full diag
   1    -99.9917240 -0.999917E+02  0.861E-02    1.52       0.0  T
   2    -99.9917286 -0.464739E-05  0.509E-02    1.52       1.0  T
   3    -99.9917236  0.505251E-05  0.937E-03    1.52       1.3  T
   4    -99.9917296 -0.605205E-05  0.303E-03    1.52       4.1  T
   5    -99.9917301 -0.454296E-06  0.154E-03    1.52       8.1  T
   6    -99.9917301 -0.562648E-07  0.874E-04    1.52      14.3  T
   7    -99.9917302 -0.239786E-07  0.280E-04    1.52      44.7  T
     SCC iter.                  ...        0 min,  0.172 sec
     gradient                   ...        0 min,  0.021 sec
 * total energy  :   -98.3596882 Eh     change       -0.1609163E-03 Eh
   gradient norm :     0.0065238 Eh/α   predicted    -0.2127285E-03 (  32.20%)
   displ. norm   :     0.6404734 α      lambda       -0.2579165E-03
   maximum displ.:     0.3928912 α      in ANC's #1, #2, #8, ...

........................................................................
.............................. CYCLE   34 ..............................
........................................................................

 iter      E             dE          RMSdq      gap      omega  full diag
   1    -99.9849855 -0.999850E+02  0.883E-02    1.54       0.0  T
   2    -99.9849882 -0.265252E-05  0.538E-02    1.53       1.0  T
   3    -99.9848657  0.122480E-03  0.411E-02    1.53       1.0  T
   4    -99.9850049 -0.139241E-03  0.470E-03    1.53       2.7  T
   5    -99.9850061 -0.120072E-05  0.190E-03    1.53       6.6  T
   6    -99.9850062 -0.931263E-07  0.117E-03    1.53      10.7  T
   7    -99.9850062 -0.198465E-07  0.412E-04    1.53      30.3  T
   8    -99.9850063 -0.105208E-07  0.118E-04    1.53     106.0  T
     SCC iter.                  ...        0 min,  0.165 sec
     gradient                   ...        0 min,  0.012 sec
 * total energy  :   -98.3598020 Eh     change       -0.1137990E-03 Eh
   gradient norm :     0.0074736 Eh/α   predicted    -0.1818622E-03 (  59.81%)
   displ. norm   :     0.0611571 α      lambda       -0.1058832E-03
   maximum displ.:     0.0309992 α      in ANC's #4, #14, #3, ...

........................................................................
.............................. CYCLE   35 ..............................
........................................................................

 iter      E             dE          RMSdq      gap      omega  full diag
   1    -99.9878601 -0.999879E+02  0.190E-02    1.52       0.0  T
   2    -99.9878612 -0.106210E-05  0.116E-02    1.52       1.1  T
   3    -99.9878581  0.307534E-05  0.872E-03    1.52       1.4  T
   4    -99.9878624 -0.431636E-05  0.259E-03    1.52       4.8  T
   5    -99.9878629 -0.431822E-06  0.652E-04    1.52      19.2  T
   6    -99.9878629 -0.162737E-07  0.308E-04    1.52      40.6  T
     SCC iter.                  ...        0 min,  0.141 sec
     gradient                   ...        0 min,  0.013 sec
 * total energy  :   -98.3598788 Eh     change       -0.7682100E-04 Eh
   gradient norm :     0.0038229 Eh/α   predicted    -0.5314093E-04 ( -30.83%)
   displ. norm   :     0.3222065 α      lambda       -0.1310814E-03
   maximum displ.:     0.1784239 α      in ANC's #1, #2, #9, ...

........................................................................
.............................. CYCLE   36 ..............................
........................................................................

 iter      E             dE          RMSdq      gap      omega  full diag
   1    -99.9899256 -0.999899E+02  0.513E-02    1.51       0.0  T
   2    -99.9899266 -0.977505E-06  0.301E-02    1.52       1.0  T
   3    -99.9899240  0.263987E-05  0.654E-03    1.52       1.9  T
   4    -99.9899269 -0.291394E-05  0.180E-03    1.52       6.9  T
   5    -99.9899271 -0.200042E-06  0.856E-04    1.52      14.6  T
   6    -99.9899271 -0.203261E-07  0.440E-04    1.52      28.4  T
     SCC iter.                  ...        0 min,  0.117 sec
     gradient                   ...        0 min,  0.010 sec
 * total energy  :   -98.3599722 Eh     change       -0.9336295E-04 Eh
   gradient norm :     0.0023992 Eh/α   predicted    -0.7234858E-04 ( -22.51%)
   displ. norm   :     0.3986219 α      lambda       -0.8142563E-04
   maximum displ.:     0.2360204 α      in ANC's #1, #2, #9, ...

........................................................................
.............................. CYCLE   37 ..............................
........................................................................

 iter      E             dE          RMSdq      gap      omega  full diag
   1    -99.9897805 -0.999898E+02  0.568E-02    1.52       0.0  T
   2    -99.9897813 -0.753917E-06  0.335E-02    1.52       1.0  T
   3    -99.9897743  0.697038E-05  0.934E-03    1.52       1.3  T
   4    -99.9897819 -0.760193E-05  0.180E-03    1.52       6.9  T
   5    -99.9897820 -0.145458E-06  0.969E-04    1.52      12.9  T
   6    -99.9897821 -0.221375E-07  0.452E-04    1.52      27.7  T
     SCC iter.                  ...        0 min,  0.163 sec
     gradient                   ...        0 min,  0.010 sec
 * total energy  :   -98.3600299 Eh     change       -0.5769488E-04 Eh
   gradient norm :     0.0019282 Eh/α   predicted    -0.4718265E-04 ( -18.22%)
   displ. norm   :     0.4112978 α      lambda       -0.4900775E-04
   maximum displ.:     0.2442730 α      in ANC's #1, #2, #9, ...

........................................................................
.............................. CYCLE   38 ..............................
........................................................................

 iter      E             dE          RMSdq      gap      omega  full diag
   1    -99.9911157 -0.999911E+02  0.580E-02    1.52       0.0  T
   2    -99.9911169 -0.113162E-05  0.342E-02    1.52       1.0  T
   3    -99.9911147  0.214208E-05  0.544E-03    1.52       2.3  T
   4    -99.9911172 -0.247817E-05  0.178E-03    1.52       7.0  T
   5    -99.9911174 -0.182509E-06  0.935E-04    1.52      13.4  T
   6    -99.9911174 -0.152371E-07  0.479E-04    1.52      26.1  T
     SCC iter.                  ...        0 min,  0.152 sec
     gradient                   ...        0 min,  0.012 sec
 * total energy  :   -98.3600623 Eh     change       -0.3234882E-04 Eh
   gradient norm :     0.0032950 Eh/α   predicted    -0.2634949E-04 ( -18.55%)
   displ. norm   :     0.0869314 α      lambda       -0.2763678E-04
   maximum displ.:     0.0536897 α      in ANC's #1, #2, #9, ...

........................................................................
.............................. CYCLE   39 ..............................
........................................................................

 iter      E             dE          RMSdq      gap      omega  full diag
   1    -99.9913400 -0.999913E+02  0.147E-02    1.51       0.0  T
   2    -99.9913399  0.192991E-06  0.916E-03    1.51       1.4  T
   3    -99.9913362  0.367467E-05  0.771E-03    1.51       1.6  T
   4    -99.9913408 -0.458770E-05  0.728E-04    1.52      17.2  T
   5    -99.9913408 -0.361709E-07  0.276E-04    1.52      45.3  T
   6    -99.9913408 -0.140000E-08  0.135E-04    1.52      92.3  T
     SCC iter.                  ...        0 min,  0.171 sec
     gradient                   ...        0 min,  0.012 sec
 * total energy  :   -98.3600809 Eh     change       -0.1860448E-04 Eh
   gradient norm :     0.0022534 Eh/α   predicted    -0.1392339E-04 ( -25.16%)
   displ. norm   :     0.0699074 α      lambda       -0.2695600E-04
   maximum displ.:     0.0312384 α      in ANC's #14, #5, #1, ...

........................................................................
.............................. CYCLE   40 ..............................
........................................................................

 iter      E             dE          RMSdq      gap      omega  full diag
   1    -99.9917950 -0.999918E+02  0.187E-02    1.51       0.0  T
   2    -99.9917948  0.180087E-06  0.117E-02    1.51       1.1  T
   3    -99.9917894  0.539254E-05  0.952E-03    1.51       1.3  T
   4    -99.9917962 -0.682247E-05  0.116E-03    1.51      10.8  T
   5    -99.9917963 -0.103719E-06  0.336E-04    1.51      37.2  T
   6    -99.9917963 -0.400425E-08  0.159E-04    1.51      78.7  T
     SCC iter.                  ...        0 min,  0.107 sec
     gradient                   ...        0 min,  0.013 sec
 * total energy  :   -98.3600986 Eh     change       -0.1772680E-04 Eh
   gradient norm :     0.0018510 Eh/α   predicted    -0.1354419E-04 ( -23.59%)
   displ. norm   :     0.1475788 α      lambda       -0.1571608E-04
   maximum displ.:     0.0962100 α      in ANC's #1, #2, #7, ...

........................................................................
.............................. CYCLE   41 ..............................
........................................................................

 iter      E             dE          RMSdq      gap      omega  full diag
   1    -99.9908895 -0.999909E+02  0.275E-02    1.51       0.0  T
   2    -99.9908886  0.886775E-06  0.177E-02    1.51       1.0  T
   3    -99.9908768  0.117918E-04  0.147E-02    1.51       1.0  T
   4    -99.9908928 -0.160339E-04  0.132E-03    1.51       9.5  T
   5    -99.9908929 -0.108001E-06  0.601E-04    1.51      20.8  T
   6    -99.9908929 -0.195835E-07  0.268E-04    1.51      46.7  T
     SCC iter.                  ...        0 min,  0.195 sec
     gradient                   ...        0 min,  0.010 sec
 * total energy  :   -98.3601074 Eh     change       -0.8774109E-05 Eh
   gradient norm :     0.0017736 Eh/α   predicted    -0.7934261E-05 (  -9.57%)
   displ. norm   :     0.0438738 α      lambda       -0.9348235E-05
   maximum displ.:     0.0184862 α      in ANC's #3, #1, #2, ...

........................................................................
.............................. CYCLE   42 ..............................
........................................................................

 iter      E             dE          RMSdq      gap      omega  full diag
   1    -99.9914214 -0.999914E+02  0.958E-03    1.51       0.0  T
   2    -99.9914206  0.831282E-06  0.859E-03    1.51       1.5  T
   3    -99.9914240 -0.342243E-05  0.398E-03    1.51       3.1  T
   4    -99.9914242 -0.197873E-06  0.127E-03    1.51       9.9  T
   5    -99.9914243 -0.664770E-07  0.446E-04    1.51      28.0  T
   6    -99.9914243 -0.108378E-07  0.185E-04    1.51      67.6  T
     SCC iter.                  ...        0 min,  0.125 sec
     gradient                   ...        0 min,  0.011 sec
 * total energy  :   -98.3601153 Eh     change       -0.7929991E-05 Eh
   gradient norm :     0.0017081 Eh/α   predicted    -0.4679748E-05 ( -40.99%)
   displ. norm   :     0.0507544 α      lambda       -0.8108505E-05
   maximum displ.:     0.0243413 α      in ANC's #1, #3, #14, ...
 * RMSD in coord.:     0.7098336 α      energy gain  -0.1843196E-02 Eh

generating ANC from model Hessian ...
Using Lindh-Hessian (1995)
 Shifting diagonal of input Hessian by    9.8782142211490259E-003
 Lowest  eigenvalues of input Hessian
    0.000000    0.000000    0.000000    0.000000    0.000000    0.000000
    0.010000    0.010031    0.010444    0.010571    0.011154    0.011753
    0.012128    0.012687    0.012919    0.013602    0.014133    0.015503
 Highest eigenvalues
    2.081298    2.113706    2.125664    2.141641    2.198403    2.381470


........................................................................
.............................. CYCLE   43 ..............................
........................................................................

 iter      E             dE          RMSdq      gap      omega  full diag
   1    -99.9919513 -0.999920E+02  0.127E-02    1.51       0.0  T
   2    -99.9919512  0.120650E-06  0.780E-03    1.51       1.6  T
   3    -99.9919484  0.282590E-05  0.646E-03    1.51       1.9  T
   4    -99.9919517 -0.334900E-05  0.524E-04    1.51      23.8  T
   5    -99.9919517 -0.229892E-07  0.133E-04    1.51      93.9  T
   6    -99.9919517 -0.503277E-09  0.777E-05    1.51     160.9  T
     SCC iter.                  ...        0 min,  0.122 sec
     gradient                   ...        0 min,  0.011 sec
 * total energy  :   -98.3601234 Eh     change       -0.8118433E-05 Eh
   gradient norm :     0.0011062 Eh/α   predicted     0.0000000E+00 (-100.00%)
   displ. norm   :     0.0238787 α      lambda       -0.1232035E-05
   maximum displ.:     0.0108314 α      in ANC's #1, #9, #4, ...

........................................................................
.............................. CYCLE   44 ..............................
........................................................................

 iter      E             dE          RMSdq      gap      omega  full diag
   1    -99.9910437 -0.999910E+02  0.529E-03    1.51       0.0  T
   2    -99.9910437 -0.124923E-07  0.357E-03    1.51       3.5  T
   3    -99.9910436  0.674553E-07  0.262E-03    1.51       4.8  T
   4    -99.9910440 -0.361619E-06  0.591E-04    1.51      21.1  T
   5    -99.9910440 -0.192724E-07  0.202E-04    1.51      62.0  T
     SCC iter.                  ...        0 min,  0.158 sec
     gradient                   ...        0 min,  0.013 sec
 * total energy  :   -98.3601295 Eh     change       -0.6101109E-05 Eh
   gradient norm :     0.0003104 Eh/α   predicted    -0.2810839E-05 ( -53.93%)
   displ. norm   :     0.0566546 α      lambda       -0.6798674E-05
   maximum displ.:     0.0259071 α      in ANC's #1, #4, #9, ...

........................................................................
.............................. CYCLE   45 ..............................
........................................................................

 iter      E             dE          RMSdq      gap      omega  full diag
   1    -99.9905120 -0.999905E+02  0.958E-03    1.51       0.0  T
   2    -99.9905120 -0.356310E-07  0.582E-03    1.51       2.1  T
   3    -99.9905107  0.130964E-05  0.436E-03    1.51       2.9  T
   4    -99.9905122 -0.149725E-05  0.603E-04    1.51      20.7  T
   5    -99.9905122 -0.260637E-07  0.240E-04    1.51      52.1  T
   6    -99.9905122 -0.182735E-08  0.128E-04    1.51      97.9  T
     SCC iter.                  ...        0 min,  0.108 sec
     gradient                   ...        0 min,  0.016 sec
 * total energy  :   -98.3601377 Eh     change       -0.8195200E-05 Eh
   gradient norm :     0.0009115 Eh/α   predicted    -0.3404903E-05 ( -58.45%)
   displ. norm   :     0.1157457 α      lambda       -0.1088161E-04
   maximum displ.:     0.0540110 α      in ANC's #1, #4, #9, ...

........................................................................
.............................. CYCLE   46 ..............................
........................................................................

 iter      E             dE          RMSdq      gap      omega  full diag
   1    -99.9902760 -0.999903E+02  0.181E-02    1.52       0.0  T
   2    -99.9902762 -0.168196E-06  0.107E-02    1.52       1.2  T
   3    -99.9902753  0.852786E-06  0.349E-03    1.52       3.6  T
   4    -99.9902763 -0.947610E-06  0.767E-04    1.51      16.3  T
   5    -99.9902763 -0.320571E-07  0.398E-04    1.51      31.4  T
     SCC iter.                  ...        0 min,  0.124 sec
     gradient                   ...        0 min,  0.010 sec
 * total energy  :   -98.3601503 Eh     change       -0.1255742E-04 Eh
   gradient norm :     0.0013604 Eh/α   predicted    -0.5496716E-05 ( -56.23%)
   displ. norm   :     0.1379766 α      lambda       -0.1038877E-04
   maximum displ.:     0.0674563 α      in ANC's #1, #4, #9, ...

........................................................................
.............................. CYCLE   47 ..............................
........................................................................

 iter      E             dE          RMSdq      gap      omega  full diag
   1    -99.9904754 -0.999905E+02  0.202E-02    1.52       0.0  T
   2    -99.9904756 -0.182572E-06  0.120E-02    1.52       1.0  T
   3    -99.9904742  0.141713E-05  0.419E-03    1.52       3.0  T
   4    -99.9904757 -0.155459E-05  0.848E-04    1.52      14.7  T
   5    -99.9904758 -0.346748E-07  0.453E-04    1.52      27.6  T
   6    -99.9904758 -0.505840E-08  0.231E-04    1.52      54.2  T
     SCC iter.                  ...        0 min,  0.145 sec
     gradient                   ...        0 min,  0.013 sec
 * total energy  :   -98.3601620 Eh     change       -0.1178552E-04 Eh
   gradient norm :     0.0011572 Eh/α   predicted    -0.5254764E-05 ( -55.41%)
   displ. norm   :     0.1257699 α      lambda       -0.8164540E-05
   maximum displ.:     0.0656791 α      in ANC's #1, #4, #9, ...

........................................................................
.............................. CYCLE   48 ..............................
........................................................................

 iter      E             dE          RMSdq      gap      omega  full diag
   1    -99.9910335 -0.999910E+02  0.177E-02    1.52       0.0  T
   2    -99.9910336 -0.878277E-07  0.106E-02    1.52       1.2  T
   3    -99.9910299  0.365531E-05  0.663E-03    1.52       1.9  T
   4    -99.9910339 -0.399020E-05  0.734E-04    1.52      17.0  T
   5    -99.9910339 -0.248189E-07  0.380E-04    1.52      32.9  T
   6    -99.9910339 -0.357051E-08  0.216E-04    1.52      57.8  T
     SCC iter.                  ...        0 min,  0.189 sec
     gradient                   ...        0 min,  0.010 sec
 * total energy  :   -98.3601711 Eh     change       -0.9101935E-05 Eh
   gradient norm :     0.0005217 Eh/α   predicted    -0.4112314E-05 ( -54.82%)
   displ. norm   :     0.0995674 α      lambda       -0.5435043E-05
   maximum displ.:     0.0557642 α      in ANC's #1, #4, #10, ...

........................................................................
.............................. CYCLE   49 ..............................
........................................................................

 iter      E             dE          RMSdq      gap      omega  full diag
   1    -99.9914690 -0.999915E+02  0.138E-02    1.52       0.0  T
   2    -99.9914691 -0.620924E-07  0.826E-03    1.52       1.5  T
   3    -99.9914671  0.197884E-05  0.486E-03    1.52       2.6  T
   4    -99.9914693 -0.215177E-05  0.567E-04    1.52      22.1  T
   5    -99.9914693 -0.158591E-07  0.286E-04    1.52      43.7  T
   6    -99.9914693 -0.213406E-08  0.163E-04    1.52      76.8  T
     SCC iter.                  ...        0 min,  0.092 sec
     gradient                   ...        0 min,  0.010 sec
 * total energy  :   -98.3601772 Eh     change       -0.6089172E-05 Eh
   gradient norm :     0.0002984 Eh/α   predicted    -0.2733196E-05 ( -55.11%)
   displ. norm   :     0.0792596 α      lambda       -0.3869420E-05
   maximum displ.:     0.0467312 α      in ANC's #1, #4, #10, ...

........................................................................
.............................. CYCLE   50 ..............................
........................................................................

 iter      E             dE          RMSdq      gap      omega  full diag
   1    -99.9917272 -0.999917E+02  0.116E-02    1.52       0.0  T
   2    -99.9917272 -0.611883E-07  0.683E-03    1.52       1.8  T
   3    -99.9917270  0.242154E-06  0.173E-03    1.52       7.2  T
   4    -99.9917273 -0.270698E-06  0.393E-04    1.52      31.8  T
   5    -99.9917273 -0.728471E-08  0.221E-04    1.52      56.5  T
     SCC iter.                  ...        0 min,  0.192 sec
     gradient                   ...        0 min,  0.011 sec
 * total energy  :   -98.3601817 Eh     change       -0.4511177E-05 Eh
   gradient norm :     0.0004726 Eh/α   predicted    -0.1945360E-05 ( -56.88%)
   displ. norm   :     0.0695305 α      lambda       -0.3368804E-05
   maximum displ.:     0.0422923 α      in ANC's #1, #2, #10, ...

   *** GEOMETRY OPTIMIZATION CONVERGED AFTER 50 ITERATIONS ***

------------------------------------------------------------------------
 total energy gain   :        -0.0424881 Eh      -26.6617 kcal/mol
 total RMSD          :         1.2789349 a0        0.6768 Å
 total power (kW/mol):        -2.2310507 (step)  -12.6972 (real)
------------------------------------------------------------------------

 ANCopt (total)                0 d,  0 h,  0 min,  8.786 sec
 optimizer setup                ...        0 min,  0.000 sec (  0.004%)
 model hessian                  ...        0 min,  0.068 sec (  0.771%)
 ANC generation                 ...        0 min,  0.027 sec (  0.312%)
 coordinate transformation      ...        0 min,  0.001 sec (  0.009%)
 single point calculation       ...        0 min,  8.670 sec ( 98.681%)
 optimization log               ...        0 min,  0.008 sec (  0.086%)
 hessian update                 ...        0 min,  0.003 sec (  0.031%)
 rational function              ...        0 min,  0.008 sec (  0.086%)

================
 final structure:
================
 xtb: 6.6.1 (8d0f1dd)
          11142410373D

 64 70  0     0  0            999 V2000
    4.0349    0.8588    1.0978 C   0  0  0  0  0  0  0  0  0  0  0  0
    2.7723    1.4270    0.7282 C   0  0  0  0  0  0  0  0  0  0  0  0
    4.3689   -0.5293    0.9802 C   0  0  0  0  0  0  0  0  0  0  0  0
    5.0182    1.7308    1.6188 C   0  0  0  0  0  0  0  0  0  0  0  0
    2.7114    2.8065    0.4519 C   0  0  0  0  0  0  0  0  0  0  0  0
    5.4105   -1.0358    1.7804 C   0  0  0  0  0  0  0  0  0  0  0  0
    1.5405    0.6863    0.7101 C   0  0  0  0  0  0  0  0  0  0  0  0
    3.7548   -1.4216    0.0315 C   0  0  0  0  0  0  0  0  0  0  0  0
    0.4006    1.2519    0.0900 C   0  0  0  0  0  0  0  0  0  0  0  0
    3.9480   -2.8170    0.1730 C   0  0  0  0  0  0  0  0  0  0  0  0
    4.8760    3.1287    1.4501 C   0  0  0  0  0  0  0  0  0  0  0  0
    6.1351    1.1976    2.3051 C   0  0  0  0  0  0  0  0  0  0  0  0
    3.8038    3.6398    0.7903 C   0  0  0  0  0  0  0  0  0  0  0  0
    6.2664   -0.1443    2.4702 C   0  0  0  0  0  0  0  0  0  0  0  0
    1.5431    3.3578   -0.1412 C   0  0  0  0  0  0  0  0  0  0  0  0
    5.6084   -2.4397    1.8757 C   0  0  0  0  0  0  0  0  0  0  0  0
    0.4532    2.5918   -0.3843 C   0  0  0  0  0  0  0  0  0  0  0  0
    4.8513   -3.3025    1.1568 C   0  0  0  0  0  0  0  0  0  0  0  0
    1.3738   -0.5484    1.3626 C   0  0  0  0  0  0  0  0  0  0  0  0
    3.0349   -0.9691   -1.0879 C   0  0  0  0  0  0  0  0  0  0  0  0
   -0.7849    0.5122   -0.0063 C   0  0  0  0  0  0  0  0  0  0  0  0
    3.2889   -3.6996   -0.6993 C   0  0  0  0  0  0  0  0  0  0  0  0
    0.2016   -1.2480    1.2917 C   0  0  0  0  0  0  0  0  0  0  0  0
    2.4290   -1.8496   -1.9462 C   0  0  0  0  0  0  0  0  0  0  0  0
   -0.8936   -0.7477    0.5560 C   0  0  0  0  0  0  0  0  0  0  0  0
    2.5191   -3.2267   -1.7284 C   0  0  0  0  0  0  0  0  0  0  0  0
    5.6589    3.7739    1.8217 H   0  0  0  0  0  0  0  0  0  0  0  0
    6.8546    1.8833    2.7288 H   0  0  0  0  0  0  0  0  0  0  0  0
    3.7337    4.6966    0.5771 H   0  0  0  0  0  0  0  0  0  0  0  0
    7.0644   -0.5554    3.0716 H   0  0  0  0  0  0  0  0  0  0  0  0
    1.5558    4.4050   -0.4078 H   0  0  0  0  0  0  0  0  0  0  0  0
    6.3689   -2.8006    2.5536 H   0  0  0  0  0  0  0  0  0  0  0  0
   -0.4170    2.9965   -0.8794 H   0  0  0  0  0  0  0  0  0  0  0  0
    4.9654   -4.3709    1.2701 H   0  0  0  0  0  0  0  0  0  0  0  0
    2.1777   -0.9435    1.9633 H   0  0  0  0  0  0  0  0  0  0  0  0
    2.9843    0.0886   -1.2943 H   0  0  0  0  0  0  0  0  0  0  0  0
   -1.6276    0.9558   -0.5117 H   0  0  0  0  0  0  0  0  0  0  0  0
    3.4191   -4.7627   -0.5547 H   0  0  0  0  0  0  0  0  0  0  0  0
    0.1121   -2.1920    1.8022 H   0  0  0  0  0  0  0  0  0  0  0  0
    1.8831   -1.4771   -2.8007 H   0  0  0  0  0  0  0  0  0  0  0  0
   -2.1229   -1.5183    0.4416 C   0  0  0  0  0  0  0  0  0  0  0  0
    2.0127   -3.9110   -2.3931 H   0  0  0  0  0  0  0  0  0  0  0  0
   -3.5931   -3.3289    0.3967 C   0  0  0  0  0  0  0  0  0  0  0  0
   -4.3830   -2.0275    0.1713 C   0  0  0  0  0  0  0  0  0  0  0  0
   -4.1249   -4.2540    1.4844 C   0  0  0  0  0  0  0  0  0  0  0  0
   -5.1475   -1.5426    1.4094 C   0  0  0  0  0  0  0  0  0  0  0  0
   -5.3163   -2.0098   -1.0327 C   0  0  0  0  0  0  0  0  0  0  0  0
   -3.3520   -4.1401   -0.8818 C   0  0  0  0  0  0  0  0  0  0  0  0
   -2.2672   -2.8069    0.7968 N   0  0  0  0  0  0  0  0  0  0  0  0
   -1.4112   -3.5881    1.2944 O   0  0  0  0  0  0  0  0  0  0  0  0
   -3.2909   -1.0501   -0.0327 N   0  0  0  0  0  0  0  0  0  0  0  0
   -3.5509    0.0968   -0.4910 O   0  0  0  0  0  0  0  0  0  0  0  0
   -2.9463   -3.5138   -1.6731 H   0  0  0  0  0  0  0  0  0  0  0  0
   -4.2710   -4.6062   -1.2242 H   0  0  0  0  0  0  0  0  0  0  0  0
   -2.6245   -4.9185   -0.6605 H   0  0  0  0  0  0  0  0  0  0  0  0
   -4.2062   -3.7465    2.4405 H   0  0  0  0  0  0  0  0  0  0  0  0
   -3.4302   -5.0815    1.6055 H   0  0  0  0  0  0  0  0  0  0  0  0
   -5.0977   -4.6449    1.2006 H   0  0  0  0  0  0  0  0  0  0  0  0
   -4.4992   -1.5092    2.2823 H   0  0  0  0  0  0  0  0  0  0  0  0
   -5.9990   -2.1841    1.6156 H   0  0  0  0  0  0  0  0  0  0  0  0
   -5.5070   -0.5338    1.2168 H   0  0  0  0  0  0  0  0  0  0  0  0
   -4.7927   -2.2507   -1.9525 H   0  0  0  0  0  0  0  0  0  0  0  0
   -5.7279   -1.0088   -1.1369 H   0  0  0  0  0  0  0  0  0  0  0  0
   -6.1295   -2.7149   -0.8864 H   0  0  0  0  0  0  0  0  0  0  0  0
  1  2  1  0  0  0  0
  1  3  1  0  0  0  0
  1  4  2  0  0  0  0
  2  5  2  0  0  0  0
  2  7  1  0  0  0  0
  3  6  2  0  0  0  0
  3  8  1  0  0  0  0
  4 11  1  0  0  0  0
  4 12  1  0  0  0  0
  5 13  1  0  0  0  0
  5 15  1  0  0  0  0
  6 14  1  0  0  0  0
  6 16  1  0  0  0  0
  7  9  1  0  0  0  0
  7 19  2  0  0  0  0
  8 10  1  0  0  0  0
  8 20  2  0  0  0  0
  9 17  1  0  0  0  0
  9 21  2  0  0  0  0
 10 18  1  0  0  0  0
 10 22  2  0  0  0  0
 11 13  2  0  0  0  0
 11 27  1  0  0  0  0
 12 14  2  0  0  0  0
 12 28  1  0  0  0  0
 13 29  1  0  0  0  0
 14 30  1  0  0  0  0
 15 17  2  0  0  0  0
 15 31  1  0  0  0  0
 16 18  2  0  0  0  0
 16 32  1  0  0  0  0
 17 33  1  0  0  0  0
 18 34  1  0  0  0  0
 19 23  1  0  0  0  0
 19 35  1  0  0  0  0
 20 24  1  0  0  0  0
 20 36  1  0  0  0  0
 21 25  1  0  0  0  0
 21 37  1  0  0  0  0
 22 26  1  0  0  0  0
 22 38  1  0  0  0  0
 23 25  2  0  0  0  0
 23 39  1  0  0  0  0
 24 26  2  0  0  0  0
 24 40  1  0  0  0  0
 25 41  1  0  0  0  0
 26 42  1  0  0  0  0
 41 49  2  0  0  0  0
 41 51  1  0  0  0  0
 43 49  1  0  0  0  0
 43 44  1  0  0  0  0
 43 45  1  0  0  0  0
 43 48  1  0  0  0  0
 44 51  1  0  0  0  0
 44 46  1  0  0  0  0
 44 47  1  0  0  0  0
 45 56  1  0  0  0  0
 45 57  1  0  0  0  0
 45 58  1  0  0  0  0
 46 59  1  0  0  0  0
 46 60  1  0  0  0  0
 46 61  1  0  0  0  0
 47 62  1  0  0  0  0
 47 63  1  0  0  0  0
 47 64  1  0  0  0  0
 48 53  1  0  0  0  0
 48 54  1  0  0  0  0
 48 55  1  0  0  0  0
 49 50  2  0  0  0  0
 51 52  1  0  0  0  0
M  CHG  1   1   0
M  END

 Bond Distances (Angstroems)
 ---------------------------
C1-C2=1.4330         C1-C3=1.4325         C1-C4=1.4138         C2-C1=1.4330         C2-C5=1.4082         C2-C7=1.4375         
C3-C1=1.4325         C3-C6=1.4077         C3-C8=1.4399         C4-C1=1.4138         C4-C11=1.4152        C4-C12=1.4151        
C5-C2=1.4082         C5-C13=1.4150        C5-C15=1.4216        C6-C3=1.4077         C6-C14=1.4153        C6-C16=1.4210        
C7-C2=1.4375         C7-C9=1.4155         C7-C19=1.4064        C8-C3=1.4399         C8-C10=1.4157        C8-C20=1.4057        
C9-C7=1.4155         C9-C17=1.4223        C9-C21=1.4007        C10-C8=1.4157        C10-C18=1.4211       C10-C22=1.4051       
C11-C4=1.4152        C11-C13=1.3587       C11-H27=1.0805       C12-C4=1.4151        C12-C14=1.3584       C12-H28=1.0805       
C13-C5=1.4150        C13-C11=1.3587       C13-H29=1.0804       C14-C6=1.4153        C14-C12=1.3584       C14-H30=1.0805       
C15-C5=1.4216        C15-C17=1.3541       C15-H31=1.0807       C16-C6=1.4210        C16-C18=1.3545       C16-H32=1.0808       
C17-C9=1.4223        C17-C15=1.3541       C17-H33=1.0799       C18-C10=1.4211       C18-C16=1.3545       C18-H34=1.0805       
C19-C7=1.4064        C19-C23=1.3669       C19-H35=1.0785       C20-C8=1.4057        C20-C24=1.3708       C20-H36=1.0789       
C21-C9=1.4007        C21-C25=1.3839       C21-H37=1.0781       C22-C10=1.4051       C22-C26=1.3695       C22-H38=1.0807       
C23-C19=1.3669       C23-C25=1.4111       C23-H39=1.0769       C24-C20=1.3708       C24-C26=1.3972       C24-H40=1.0802       
C25-C21=1.3839       C25-C23=1.4111       C25-C41=1.4553       C26-C22=1.3695       C26-C24=1.3972       C26-H42=1.0801       
H27-C11=1.0805       H28-C12=1.0805       H29-C13=1.0804       H30-C14=1.0805       H31-C15=1.0807       H32-C16=1.0808       
H33-C17=1.0799       H34-C18=1.0805       H35-C19=1.0785       H36-C20=1.0789       H37-C21=1.0781       H38-C22=1.0807       
H39-C23=1.0769       H40-C24=1.0802       C41-C25=1.4553       C41-N49=1.3444       C41-N51=1.3448       H42-C26=1.0801       
C43-C44=1.5389       C43-C45=1.5237       C43-C48=1.5332       C43-N49=1.4800       C44-C43=1.5389       C44-C46=1.5337       
C44-C47=1.5235       C44-N51=1.4798       C45-C43=1.5237       C45-H56=1.0854       C45-H57=1.0873       C45-H58=1.0861       
C46-C44=1.5337       C46-H59=1.0879       C46-H60=1.0858       C46-H61=1.0881       C47-C44=1.5235       C47-H62=1.0854       
C47-H63=1.0874       C47-H64=1.0862       C48-C43=1.5332       C48-H53=1.0877       C48-H54=1.0858       C48-H55=1.0882       
N49-C41=1.3444       N49-C43=1.4800       N49-O50=1.2613       O50-N49=1.2613       N51-C41=1.3448       N51-C44=1.4798       
N51-O52=1.2622       O52-N51=1.2622       H53-C48=1.0877       H54-C48=1.0858       H55-C48=1.0882       H56-C45=1.0854       
[...]
         :::::::::::::::::::::::::::::::::::::::::::::::::::::
         :: total energy             -98.360181751579 Eh    ::
         :: gradient norm              0.000480439837 Eh/a0 ::
         :: HOMO-LUMO gap              1.517252647988 eV    ::
         ::.................................................::
         :: SCC energy               -99.991727280306 Eh    ::
         :: -> isotropic ES            0.067319284696 Eh    ::
         :: -> anisotropic ES          0.007332647855 Eh    ::
         :: -> anisotropic XC          0.041458546653 Eh    ::
         :: -> dispersion             -0.090329860405 Eh    ::
         :: repulsion energy           1.629937828254 Eh    ::
         :: add. restraining           0.000000000000 Eh    ::
         :: total charge               0.000000000114 e     ::
         :::::::::::::::::::::::::::::::::::::::::::::::::::::

           -------------------------------------------------
          |                Property Printout                |
           -------------------------------------------------

    * Orbital Energies and Occupations

         #    Occupation            Energy/Eh            Energy/eV
      -------------------------------------------------------------
         1        2.0000           -0.7168513             -19.5065
       ...           ...                  ...                  ...
        79        2.0000           -0.4210268             -11.4567
        80        2.0000           -0.4170681             -11.3490
        81        2.0000           -0.4082048             -11.1078
        82        2.0000           -0.4068544             -11.0711
        83        2.0000           -0.4055877             -11.0366
        84        2.0000           -0.3997121             -10.8767
        85        2.0000           -0.3963253             -10.7846
        86        2.0000           -0.3886749             -10.5764
        87        2.0000           -0.3843175             -10.4578
        88        2.0000           -0.3774000             -10.2696
        89        2.0000           -0.3674932             -10.0000
        90        2.0000           -0.3631149              -9.8809
        91        1.0000           -0.3283670              -8.9353 (HOMO)
        92                         -0.2726090              -7.4181 (LUMO)
        93                         -0.2629374              -7.1549
        94                         -0.2549040              -6.9363
        95                         -0.2404132              -6.5420
        96                         -0.2238474              -6.0912
        97                         -0.2034897              -5.5372
        98                         -0.1857314              -5.0540
        99                         -0.1790126              -4.8712
       100                         -0.1709979              -4.6531
       101                         -0.1455526              -3.9607
       102                         -0.1175443              -3.1985
       ...                                ...                  ...
       175                          0.7248450              19.7240
      -------------------------------------------------------------
                  HL-Gap            0.0557580 Eh            1.5173 eV
             Fermi-level           -0.3231121 Eh           -8.7923 eV

     #   Z          covCN         q      C6AA      α(0)
     1   6 C        2.981     0.004    27.931     8.669
     2   6 C        2.980     0.003    27.942     8.671
     3   6 C        2.980     0.003    27.947     8.672
     4   6 C        2.990     0.009    27.807     8.650
     5   6 C        2.988     0.009    27.798     8.649
     6   6 C        2.988     0.009    27.816     8.651
     7   6 C        2.982     0.012    27.737     8.639
     8   6 C        2.983     0.011    27.773     8.645
     9   6 C        2.988     0.011    27.756     8.642
    10   6 C        2.989     0.012    27.737     8.639
    11   6 C        2.918    -0.037    28.929     8.820
    12   6 C        2.918    -0.038    28.950     8.823
    13   6 C        2.917    -0.038    28.944     8.822
    14   6 C        2.917    -0.038    28.935     8.821
    15   6 C        2.917    -0.037    28.929     8.820
    16   6 C        2.917    -0.038    28.941     8.822
    17   6 C        2.916    -0.037    28.910     8.817
    18   6 C        2.915    -0.036    28.901     8.816
    19   6 C        2.918    -0.033    28.814     8.803
    20   6 C        2.920    -0.033    28.816     8.803
    21   6 C        2.927    -0.043    29.062     8.841
    22   6 C        2.922    -0.034    28.847     8.808
    23   6 C        2.920    -0.039    28.973     8.827
    24   6 C        2.918    -0.031    28.781     8.797
    25   6 C        2.967     0.013    27.732     8.638
    26   6 C        2.916    -0.029    28.730     8.790
    27   1 H        0.926     0.031     2.568     2.506
    28   1 H        0.926     0.031     2.575     2.510
    29   1 H        0.926     0.031     2.571     2.507
    30   1 H        0.926     0.031     2.576     2.510
    31   1 H        0.926     0.032     2.560     2.502
    32   1 H        0.926     0.030     2.581     2.512
    33   1 H        0.926     0.038     2.481     2.463
    34   1 H        0.926     0.031     2.566     2.505
    35   1 H        0.926     0.038     2.472     2.459
    36   1 H        0.926     0.033     2.549     2.497
    37   1 H        0.926     0.077     2.006     2.215
    38   1 H        0.926     0.032     2.552     2.498
    39   1 H        0.926     0.072     2.063     2.246
    40   1 H        0.926     0.027     2.627     2.535
    41   6 C        2.889     0.043    27.025     8.523
    42   1 H        0.926     0.029     2.602     2.522
    43   6 C        3.885     0.046    19.758     6.320
    44   6 C        3.884     0.046    19.753     6.319
    45   6 C        3.758    -0.113    22.720     6.796
    46   6 C        3.760    -0.114    22.720     6.795
    47   6 C        3.758    -0.113    22.721     6.796
    48   6 C        3.760    -0.113    22.715     6.794
    49   7 N        2.807     0.191    18.073     6.314
    50   8 O        0.925    -0.438    22.429     6.351
    51   7 N        2.807     0.189    18.104     6.319
    52   8 O        0.925    -0.441    22.477     6.358
    53   1 H        0.925     0.045     2.388     2.417
    54   1 H        0.925     0.056     2.245     2.343
    55   1 H        0.925     0.069     2.094     2.263
    56   1 H        0.925     0.055     2.264     2.353
    57   1 H        0.925     0.076     2.025     2.225
    58   1 H        0.925     0.049     2.333     2.389
    59   1 H        0.925     0.044     2.391     2.418
    60   1 H        0.925     0.056     2.244     2.343
    61   1 H        0.925     0.069     2.096     2.264
    62   1 H        0.925     0.055     2.261     2.351
    63   1 H        0.925     0.076     2.022     2.224
    64   1 H        0.925     0.049     2.333     2.389

 Mol. C6AA /au·bohr⁶  :      53364.834157
 Mol. C8AA /au·bohr⁸  :    1321108.458281
 Mol. α(0) /au        :        366.043450


Wiberg/Mayer (AO) data.
largest (>0.10) Wiberg bond orders for each atom

 ---------------------------------------------------------------------------
     #   Z sym  total        # sym  WBO       # sym  WBO       # sym  WBO
 ---------------------------------------------------------------------------
     1   6 C    3.985 --     4 C    1.297     3 C    1.218     2 C    1.215
     2   6 C    3.986 --     5 C    1.323     1 C    1.215     7 C    1.184
     3   6 C    3.987 --     6 C    1.325     1 C    1.218     8 C    1.177
     4   6 C    3.982 --     1 C    1.297    11 C    1.248    12 C    1.247
     5   6 C    3.980 --     2 C    1.323    13 C    1.248    15 C    1.221
     6   6 C    3.986 --     3 C    1.325    14 C    1.247    16 C    1.222
     7   6 C    3.988 --    19 C    1.304     9 C    1.270     2 C    1.184
     8   6 C    3.989 --    20 C    1.316    10 C    1.278     3 C    1.177
     9   6 C    3.987 --    21 C    1.325     7 C    1.270    17 C    1.213
    10   6 C    3.987 --    22 C    1.307     8 C    1.278    18 C    1.219
    11   6 C    3.977 --    13 C    1.592     4 C    1.248    27 H    0.967
    12   6 C    3.980 --    14 C    1.594     4 C    1.247    28 H    0.967
    13   6 C    3.976 --    11 C    1.592     5 C    1.248    29 H    0.967
    14   6 C    3.976 --    12 C    1.594     6 C    1.247    30 H    0.967
    15   6 C    3.988 --    17 C    1.631     5 C    1.221    31 H    0.967
    16   6 C    3.988 --    18 C    1.627     6 C    1.222    32 H    0.967
    17   6 C    3.978 --    15 C    1.631     9 C    1.213    33 H    0.967
    18   6 C    3.981 --    16 C    1.627    10 C    1.219    34 H    0.967
    19   6 C    3.991 --    23 C    1.542     7 C    1.304    35 H    0.962
                            21 C    0.101
    20   6 C    3.992 --    24 C    1.521     8 C    1.316    36 H    0.963
                            22 C    0.112
    21   6 C    3.977 --    25 C    1.436     9 C    1.325    37 H    0.954
                            19 C    0.101
    22   6 C    3.985 --    26 C    1.526    10 C    1.307    38 H    0.968
                            20 C    0.112
    23   6 C    3.981 --    19 C    1.542    25 C    1.283    39 H    0.958
    24   6 C    3.988 --    20 C    1.521    26 C    1.349    40 H    0.971
    25   6 C    3.972 --    21 C    1.436    23 C    1.283    41 C    1.085
    26   6 C    3.983 --    22 C    1.526    24 C    1.349    42 H    0.971
    27   1 H    0.998 --    11 C    0.967
    28   1 H    0.998 --    12 C    0.967
    29   1 H    0.998 --    13 C    0.967
    30   1 H    0.998 --    14 C    0.967
    31   1 H    0.998 --    15 C    0.967
    32   1 H    0.998 --    16 C    0.967
    33   1 H    0.997 --    17 C    0.967
    34   1 H    0.998 --    18 C    0.967
    35   1 H    0.998 --    19 C    0.962
    36   1 H    0.998 --    20 C    0.963
    37   1 H    0.993 --    21 C    0.954
    38   1 H    0.998 --    22 C    0.968
    39   1 H    0.994 --    23 C    0.958
    40   1 H    0.999 --    24 C    0.971
    41   6 C    3.943 --    49 N    1.250    51 N    1.249    25 C    1.085
                            50 O    0.140    52 O    0.139
    42   1 H    0.998 --    26 C    0.971
    43   6 C    3.967 --    45 C    0.997    48 C    0.981    44 C    0.960
                            49 N    0.914
    44   6 C    3.967 --    47 C    0.997    46 C    0.981    43 C    0.960
                            51 N    0.915
    45   6 C    3.988 --    43 C    0.997    58 H    0.982    56 H    0.981
                            57 H    0.977
    46   6 C    3.989 --    59 H    0.984    60 H    0.981    44 C    0.981
                            61 H    0.979
    47   6 C    3.988 --    44 C    0.997    64 H    0.982    62 H    0.981
                            63 H    0.977
    48   6 C    3.988 --    53 H    0.983    43 C    0.981    54 H    0.981
                            55 H    0.979
    49   7 N    3.709 --    50 O    1.309    41 C    1.250    43 C    0.914
    50   8 O    1.747 --    49 N    1.309    41 C    0.140
    51   7 N    3.708 --    52 O    1.306    41 C    1.249    44 C    0.915
    52   8 O    1.745 --    51 N    1.306    41 C    0.139
    53   1 H    0.998 --    48 C    0.983
    54   1 H    0.996 --    48 C    0.981
    55   1 H    0.995 --    48 C    0.979
    56   1 H    0.997 --    45 C    0.981
    57   1 H    0.994 --    45 C    0.977
    58   1 H    0.997 --    45 C    0.982
    59   1 H    0.998 --    46 C    0.984
    60   1 H    0.996 --    46 C    0.981
    61   1 H    0.995 --    46 C    0.979
    62   1 H    0.997 --    47 C    0.981
    63   1 H    0.994 --    47 C    0.977
    64   1 H    0.997 --    47 C    0.982
 ---------------------------------------------------------------------------

Topologies differ in bond orders
Writing corrected topology to xtbtopo.mol

molecular dipole:
                 x           y           z       tot (Debye)
 q only:       -0.933      -0.618      -0.080
   full:       -0.926      -0.612      -0.060       2.827
molecular quadrupole (traceless):
                xx          xy          yy          xz          yz          zz
 q only:       14.602      20.978      -3.971      -0.481       5.059     -10.631
  q+dip:       15.376      23.556       0.779       7.248       4.577     -16.154
   full:       14.774      22.604      -3.847       0.825       6.526     -10.927

           -------------------------------------------------
          |                Geometry Summary                 |
           -------------------------------------------------

      molecular mass/u    :      483.5809012
   center of mass at/Å    :        0.9145691      -0.7954537       0.4892277
  moments of inertia/u·Å² :        0.2466138E+04   0.7204368E+04   0.8654535E+04
rotational constants/cm⁻¹ :        0.6835639E-02   0.2339918E-02   0.1947838E-02

 * 66 selected distances

     #   Z          #   Z                                           value/Å
     1   6 C        2   6 C                                       1.4330393
     1   6 C        3   6 C                                       1.4325202
     1   6 C        4   6 C                                       1.4137956
     2   6 C        5   6 C                                       1.4082046
     3   6 C        6   6 C                                       1.4077310
     7   6 C        9   6 C                                       1.4155158
     8   6 C       10   6 C                                       1.4157197
     4   6 C       11   6 C                                       1.4151655
     4   6 C       12   6 C                                       1.4151362
     5   6 C       13   6 C                                       1.4150372
    11   6 C       13   6 C                                       1.3587080
     6   6 C       14   6 C                                       1.4153454
    12   6 C       14   6 C                                       1.3584407
     5   6 C       15   6 C                                       1.4215677
     6   6 C       16   6 C                                       1.4209994
     9   6 C       17   6 C                                       1.4222728
    15   6 C       17   6 C                                       1.3541152
    10   6 C       18   6 C                                       1.4210518
    16   6 C       18   6 C                                       1.3544517
     7   6 C       19   6 C                                       1.4064185
     8   6 C       20   6 C                                       1.4056873
     9   6 C       21   6 C                                       1.4006893
    10   6 C       22   6 C                                       1.4051152
    19   6 C       23   6 C                                       1.3669126
    20   6 C       24   6 C                                       1.3708226
    21   6 C       25   6 C                                       1.3839234
    23   6 C       25   6 C                                       1.4111149
    22   6 C       26   6 C                                       1.3694618
    24   6 C       26   6 C                                       1.3971529
    11   6 C       27   1 H                                       1.0805160
    12   6 C       28   1 H                                       1.0804681
    13   6 C       29   1 H                                       1.0804220
    14   6 C       30   1 H                                       1.0804868
    15   6 C       31   1 H                                       1.0807173
    16   6 C       32   1 H                                       1.0807954
    17   6 C       33   1 H                                       1.0799249
    18   6 C       34   1 H                                       1.0804832
    19   6 C       35   1 H                                       1.0785291
    20   6 C       36   1 H                                       1.0789293
    21   6 C       37   1 H                                       1.0781011
    22   6 C       38   1 H                                       1.0807178
    23   6 C       39   1 H                                       1.0769232 (min)
    24   6 C       40   1 H                                       1.0802119
    26   6 C       42   1 H                                       1.0800772
    43   6 C       44   6 C                                       1.5389377 (max)
    43   6 C       45   6 C                                       1.5236837
    44   6 C       46   6 C                                       1.5336982
    44   6 C       47   6 C                                       1.5235324
    43   6 C       48   6 C                                       1.5332127
    41   6 C       49   7 N                                       1.3444076
    43   6 C       49   7 N                                       1.4800383
    49   7 N       50   8 O                                       1.2612920
    41   6 C       51   7 N                                       1.3447970
    44   6 C       51   7 N                                       1.4797699
    48   6 C       53   1 H                                       1.0876619
    48   6 C       54   1 H                                       1.0858256
    48   6 C       55   1 H                                       1.0882065
    45   6 C       56   1 H                                       1.0853997
    45   6 C       57   1 H                                       1.0872730
    45   6 C       58   1 H                                       1.0861302
    46   6 C       59   1 H                                       1.0878588
    46   6 C       60   1 H                                       1.0858462
    46   6 C       61   1 H                                       1.0881342
    47   6 C       62   1 H                                       1.0854311
    47   6 C       63   1 H                                       1.0873660
    47   6 C       64   1 H                                       1.0862251

 * 4 distinct bonds (by element types)

   Z      Z             #   av. dist./Å        max./Å        min./Å
   1 H    6 C          27     1.0829134     1.0882065     1.0769232
   6 C    6 C          34     1.4196818     1.5389377     1.3541152
   6 C    7 N           4     1.4122532     1.4800383     1.3444076
   7 N    8 O           1     1.2612920     1.2612920     1.2612920


optimized geometry written to: xtbopt.mol


           -------------------------------------------------
          | TOTAL ENERGY              -98.360181751579 Eh   |
          | GRADIENT NORM               0.000480439837 Eh/α |
          | HOMO-LUMO GAP               1.517252647988 eV   |
           -------------------------------------------------
########################################################################
[WARNING] Runtime exception occurred
-3- restart_readRestart: Dimension missmatch in restart file.
-2- restart_readRestart: Multiplicity missmatch in restart file.
-1- restart_readRestart: Number of electron missmatch in restart file.
########################################################################

------------------------------------------------------------------------
 * finished run on 2024/11/14 at 10:37:39.396     
------------------------------------------------------------------------
 total:
 * wall-time:     0 d,  0 h,  0 min,  9.243 sec
 *  cpu-time:     0 d,  0 h,  0 min, 30.194 sec
 * ratio c/w:     3.267 speedup
 SCF:
 * wall-time:     0 d,  0 h,  0 min,  0.290 sec
Note: The following floating-point exceptions are signalling: IEEE_UNDERFLOW_FLAG
normal termination of xtb
 *  cpu-time:     0 d,  0 h,  0 min,  1.052 sec
 * ratio c/w:     3.630 speedup
 ANC optimizer:
 * wall-time:     0 d,  0 h,  0 min,  8.893 sec
 *  cpu-time:     0 d,  0 h,  0 min, 29.125 sec
 * ratio c/w:     3.275 speedup

