128
 energy: -196.008006038170 gnorm: 0.411029361197 xtb: 6.6.1 (8d0f1dd)
C            4.03490000000000        0.85880000000000        1.09780000000000
C            2.77230000000000        1.42700000000000        0.72820000000000
C            4.36890000000000       -0.52930000000000        0.98020000000000
C            5.01820000000000        1.73080000000000        1.61880000000000
C            2.71140000000000        2.80650000000000        0.45190000000000
C            5.41050000000000       -1.03580000000000        1.78040000000000
C            1.54050000000000        0.68630000000000        0.71010000000000
C            3.75480000000000       -1.42160000000000        0.03150000000000
C            0.40060000000000        1.25190000000000        0.09000000000000
C            3.94800000000000       -2.81700000000000        0.17300000000000
C            4.87600000000000        3.12870000000000        1.45010000000000
C            6.13510000000000        1.19760000000000        2.30510000000000
C            3.80380000000000        3.63980000000000        0.79030000000000
C            6.26640000000000       -0.14430000000000        2.47020000000000
C            1.54310000000000        3.35780000000000       -0.14120000000000
C            5.60840000000000       -2.43970000000000        1.87570000000000
C            0.45320000000000        2.59180000000000       -0.38430000000000
C            4.85130000000000       -3.30250000000000        1.15680000000000
C            1.37380000000000       -0.54840000000000        1.36260000000000
C            3.03490000000000       -0.96910000000000       -1.08790000000000
C           -0.78490000000000        0.51220000000000       -0.00630000000000
C            3.28890000000000       -3.69960000000000       -0.69930000000000
C            0.20160000000000       -1.24800000000000        1.29170000000000
C            2.42900000000000       -1.84960000000000       -1.94620000000000
C           -0.89360000000000       -0.74770000000000        0.55600000000000
C            2.51910000000000       -3.22670000000000       -1.72840000000000
H            5.65890000000000        3.77390000000000        1.82170000000000
H            6.85460000000000        1.88330000000000        2.72880000000000
H            3.73370000000000        4.69660000000000        0.57710000000000
H            7.06440000000000       -0.55540000000000        3.07160000000000
H            1.55580000000000        4.40500000000000       -0.40780000000000
H            6.36890000000000       -2.80060000000000        2.55360000000000
H           -0.41700000000000        2.99650000000000       -0.87940000000000
H            4.96540000000000       -4.37090000000000        1.27010000000000
H            2.17770000000000       -0.94350000000000        1.96330000000000
H            2.98430000000000        0.08860000000000       -1.29430000000000
H           -1.62760000000000        0.95580000000000       -0.51170000000000
H            3.41910000000000       -4.76270000000000       -0.55470000000000
H            0.11210000000000       -2.19200000000000        1.80220000000000
H            1.88310000000000       -1.47710000000000       -2.80070000000000
C           -2.12290000000000       -1.51830000000000        0.44160000000000
H            2.01270000000000       -3.91100000000000       -2.39310000000000
C           -3.59310000000000       -3.32890000000000        0.39670000000000
C           -4.38300000000000       -2.02750000000000        0.17130000000000
C           -4.12490000000000       -4.25400000000000        1.48440000000000
C           -5.14750000000000       -1.54260000000000        1.40940000000000
C           -5.31630000000000       -2.00980000000000       -1.03270000000000
C           -3.35200000000000       -4.14010000000000       -0.88180000000000
N           -2.26720000000000       -2.80690000000000        0.79680000000000
O           -1.41120000000000       -3.58810000000000        1.29440000000000
N           -3.29090000000000       -1.05010000000000       -0.03270000000000
O           -3.55090000000000        0.09680000000000       -0.49100000000000
H           -2.94630000000000       -3.51380000000000       -1.67310000000000
H           -4.27100000000000       -4.60620000000000       -1.22420000000000
H           -2.62450000000000       -4.91850000000000       -0.66050000000000
H           -4.20620000000000       -3.74650000000000        2.44050000000000
H           -3.43020000000000       -5.08150000000000        1.60550000000000
H           -5.09770000000000       -4.64490000000000        1.20060000000000
H           -4.49920000000000       -1.50920000000000        2.28230000000000
H           -5.99900000000000       -2.18410000000000        1.61560000000000
H           -5.50700000000000       -0.53380000000000        1.21680000000000
H           -4.79270000000000       -2.25070000000000       -1.95250000000000
H           -5.72790000000000       -1.00880000000000       -1.13690000000000
H           -6.12950000000000       -2.71490000000000       -0.88640000000000
C            4.03490000000000        0.85880000000000        6.09780000000000
C            2.77230000000000        1.42700000000000        5.72820000000000
C            4.36890000000000       -0.52930000000000        5.98020000000000
C            5.01820000000000        1.73080000000000        6.61880000000000
C            2.71140000000000        2.80650000000000        5.45190000000000
C            5.41050000000000       -1.03580000000000        6.78040000000000
C            1.54050000000000        0.68630000000000        5.71010000000000
C            3.75480000000000       -1.42160000000000        5.03150000000000
C            0.40060000000000        1.25190000000000        5.09000000000000
C            3.94800000000000       -2.81700000000000        5.17300000000000
C            4.87600000000000        3.12870000000000        6.45010000000000
C            6.13510000000000        1.19760000000000        7.30510000000000
C            3.80380000000000        3.63980000000000        5.79030000000000
C            6.26640000000000       -0.14430000000000        7.47020000000000
C            1.54310000000000        3.35780000000000        4.85880000000000
C            5.60840000000000       -2.43970000000000        6.87570000000000
C            0.45320000000000        2.59180000000000        4.61570000000000
C            4.85130000000000       -3.30250000000000        6.15680000000000
C            1.37380000000000       -0.54840000000000        6.36260000000000
C            3.03490000000000       -0.96910000000000        3.91210000000000
C           -0.78490000000000        0.51220000000000        4.99370000000000
C            3.28890000000000       -3.69960000000000        4.30070000000000
C            0.20160000000000       -1.24800000000000        6.29170000000000
C            2.42900000000000       -1.84960000000000        3.05380000000000
C           -0.89360000000000       -0.74770000000000        5.55600000000000
C            2.51910000000000       -3.22670000000000        3.27160000000000
H            5.65890000000000        3.77390000000000        6.82170000000000
H            6.85460000000000        1.88330000000000        7.72880000000000
H            3.73370000000000        4.69660000000000        5.57710000000000
H            7.06440000000000       -0.55540000000000        8.07160000000000
H            1.55580000000000        4.40500000000000        4.59220000000000
H            6.36890000000000       -2.80060000000000        7.55360000000000
H           -0.41700000000000        2.99650000000000        4.12060000000000
H            4.96540000000000       -4.37090000000000        6.27010000000000
H            2.17770000000000       -0.94350000000000        6.96330000000000
H            2.98430000000000        0.08860000000000        3.70570000000000
H           -1.62760000000000        0.95580000000000        4.48830000000000
H            3.41910000000000       -4.76270000000000        4.44530000000000
H            0.11210000000000       -2.19200000000000        6.80220000000000
H            1.88310000000000       -1.47710000000000        2.19930000000000
C           -2.12290000000000       -1.51830000000000        5.44160000000000
H            2.01270000000000       -3.91100000000000        2.60690000000000
C           -3.59310000000000       -3.32890000000000        5.39670000000000
C           -4.38300000000000       -2.02750000000000        5.17130000000000
C           -4.12490000000000       -4.25400000000000        6.48440000000000
C           -5.14750000000000       -1.54260000000000        6.40940000000000
C           -5.31630000000000       -2.00980000000000        3.96730000000000
C           -3.35200000000000       -4.14010000000000        4.11820000000000
N           -2.26720000000000       -2.80690000000000        5.79680000000000
O           -1.41120000000000       -3.58810000000000        6.29440000000000
N           -3.29090000000000       -1.05010000000000        4.96730000000000
O           -3.55090000000000        0.09680000000000        4.50900000000000
H           -2.94630000000000       -3.51380000000000        3.32690000000000
H           -4.27100000000000       -4.60620000000000        3.77580000000000
H           -2.62450000000000       -4.91850000000000        4.33950000000000
H           -4.20620000000000       -3.74650000000000        7.44050000000000
H           -3.43020000000000       -5.08150000000000        6.60550000000000
H           -5.09770000000000       -4.64490000000000        6.20060000000000
H           -4.49920000000000       -1.50920000000000        7.28230000000000
H           -5.99900000000000       -2.18410000000000        6.61560000000000
H           -5.50700000000000       -0.53380000000000        6.21680000000000
H           -4.79270000000000       -2.25070000000000        3.04750000000000
H           -5.72790000000000       -1.00880000000000        3.86310000000000
H           -6.12950000000000       -2.71490000000000        4.11360000000000
128
 energy: -196.131621151327 gnorm: 0.222492918913 xtb: 6.6.1 (8d0f1dd)
C            4.03310312757497        0.85906600043072        1.09838401837955
C            2.77266513239380        1.43300182629334        0.72223929594238
C            4.36636543004497       -0.52971138373095        0.98211585107692
C            5.01712262481706        1.73096004146845        1.62009930198830
C            2.71148132381454        2.81123951191542        0.45099426099845
C            5.41003920011181       -1.03608201420086        1.78142664081698
C            1.53394049466890        0.70960545971758        0.68303919578259
C            3.75251603217779       -1.42163450748585        0.03283033552819
C            0.38926334943967        1.26504843720340        0.08082334785206
C            3.94753645746767       -2.81728840290527        0.17387426697522
C            4.87538309448253        3.12910779202023        1.45129352897869
C            6.13405374253352        1.19761715117586        2.30673731271362
C            3.80385860778402        3.64209069956762        0.79125811466766
C            6.26548531727947       -0.14446278411211        2.47164261871457
C            1.54216427085447        3.36151943614673       -0.14207999357591
C            5.60885871672598       -2.43956922662161        1.87609748578587
C            0.44888772274466        2.60072322676054       -0.38777846211731
C            4.85100954805473       -3.30241042068462        1.15777138215975
C            1.35773765050709       -0.51739979344184        1.30455581148715
C            3.03343975537600       -0.96889679340885       -1.08759328411113
C           -0.79057596630607        0.51694604790710       -0.00974122923659
C            3.28810921642604       -3.69998730062768       -0.69860791477534
C            0.19535746815914       -1.23690725953472        1.27826432545221
C            2.42800846216072       -1.84962212382186       -1.94626475344550
C           -0.90207238006299       -0.74313433681353        0.55242895035760
C            2.51811454747364       -3.22697630737961       -1.72808201565643
H            5.65885954250739        3.77338540129157        1.82159244659497
H            6.85415030902245        1.88296613690007        2.72861727779027
H            3.73459462070668        4.69752542146329        0.57682444145194
H            7.06393233965131       -0.55535980081876        3.07163899505813
H            1.55622166542534        4.40700453235903       -0.40842532836021
H            6.36918989550650       -2.80023566287313        2.55318895193579
H           -0.41961336364912        3.00225750433133       -0.88222037538158
H            4.96628683389694       -4.37038517780625        1.26968029304035
H            2.20614648989653       -0.87410859631555        1.90491526612359
H            2.98487316887131        0.08852850696628       -1.29536811939365
H           -1.63257441597124        0.95753289453887       -0.51450239197230
H            3.41986920597846       -4.76263148661317       -0.55522401188932
H            0.11509110122593       -2.18284324198586        1.79860713672795
H            1.88386683451581       -1.47722190677480       -2.80127645682711
C           -2.12562525798132       -1.51737594926418        0.43858378535714
H            2.01331131772495       -3.91100393150572       -2.39343856467995
C           -3.59327974109812       -3.32809681550476        0.38122543465375
C           -4.38148568691465       -2.02775005635543        0.14615866132356
C           -4.13775904450082       -4.25841288568125        1.44783009559305
C           -5.14787306787322       -1.52204483426060        1.35622987734086
C           -5.31855861469976       -2.01014875709604       -1.04453151311696
C           -3.34865439679729       -4.14124090306929       -0.88885948563096
N           -2.26959732170773       -2.80644693705827        0.79282428108423
O           -1.41380420832919       -3.58139558300721        1.29717156523452
N           -3.29177891208614       -1.04796843967371       -0.03986686073901
O           -3.54575300505781        0.09385427218112       -0.49133293105289
H           -2.94426521080045       -3.51427886450101       -1.67827702383664
H           -4.26986562016216       -4.60587640001883       -1.22573115845410
H           -2.62383181449192       -4.91994705130251       -0.66202451593627
H           -4.23621977983937       -3.74311580952170        2.38035943296024
H           -3.43675597235420       -5.07953624866071        1.59762161094945
H           -5.10679872364755       -4.65384977107164        1.17906066924882
H           -4.46788312119178       -1.44934550682476        2.18951499064291
H           -5.99203799297390       -2.17249281393012        1.59619414960182
H           -5.51737096941071       -0.51923559129481        1.19193671786749
H           -4.79445478987081       -2.25186643164778       -1.96075264266099
H           -5.72940768671661       -1.00866262682048       -1.14051677274091
H           -6.12956520023636       -2.71493869503207       -0.88863008837122
C            4.03537574655829        0.85942937143484        6.09761931015134
C            2.77273663728675        1.42659860001680        5.72655528885885
C            4.37098939102044       -0.52768399637017        5.98380856425930
C            5.01870132164086        1.73115335644450        6.61854074496553
C            2.71174936120550        2.80647891586517        5.45068413318416
C            5.41301181025405       -1.03549599858255        6.78131577538932
C            1.54090429227191        0.68598946478744        5.70908500133214
C            3.76122216948316       -1.42397991468299        5.04244037970325
C            0.40085083274925        1.25219632172990        5.08848871704409
C            3.95204522708463       -2.82132556711652        5.17847191773150
C            4.87638468556361        3.12894574079450        6.44952034828671
C            6.13582883340962        1.19792282774456        7.30500662959369
C            3.80404706003188        3.63993470421865        5.78935466548537
C            6.26800314996767       -0.14390228892504        7.47089147858180
C            1.54329814176380        3.35777932647286        4.85755530216494
C            5.61054678654322       -2.43948844285742        6.87656488931719
C            0.45336960168875        2.59198069798966        4.61387630628888
C            4.85464491183392       -3.30460696836262        6.15942821963932
C            1.37416146956079       -0.54879486667728        6.36239937198193
C            3.04242133090735       -0.97930588580757        3.92804016712772
C           -0.78430827446232        0.51265964402284        4.99207653329431
C            3.30050405036412       -3.71523009295124        4.31254444115971
C            0.20262953298050       -1.24890058323635        6.29133846877715
C            2.44240915219972       -1.89105089599870        3.10779016299122
C           -0.89224733594538       -0.74759618096539        5.55518367549762
C            2.53078833794879       -3.25523169313699        3.28947418683514
H            5.65848474956824        3.77391061681409        6.82181126490886
H            6.85453082565841        1.88331578411594        7.72884838404597
H            3.73348538021947        4.69643170793736        5.57715052650549
H            7.06476482140654       -0.55498736819605        8.07226699029493
H            1.55552889344442        4.40477399447480        4.59230796819372
H            6.36930399303675       -2.80034490802120        7.55463952149604
H           -0.41709770182046        2.99696226513955        4.12022376725759
H            4.96700048034420       -4.37199345690666        6.27165083705338
H            2.17717184862946       -0.94320263259193        6.96414541905383
H            2.98357671041842        0.08031812267182        3.70687920292882
H           -1.62672099357962        0.95768168122000        4.48804461762147
H            3.42468234183718       -4.77388722108238        4.45342246986506
H            0.11308513659877       -2.19145160925959        6.80376461525000
H            1.85635456962602       -1.54666127985357        2.25302505559225
C           -2.12042635666463       -1.51750302698342        5.44367977845901
H            2.01453961493690       -3.92033478763358        2.61322091144681
C           -3.59127169989050       -3.32790110268060        5.41395742878977
C           -4.38207543701517       -2.02829826931058        5.19701726475400
C           -4.12519441077373       -4.25614794352913        6.49077126113456
C           -5.14775406205576       -1.53869656764000        6.42184529424724
C           -5.33225760300849       -2.02619183690489        4.02609970072283
C           -3.33990828761205       -4.14203928515543        4.14815076141434
N           -2.26449083059546       -2.80680654298892        5.80123214619002
O           -1.41224191612743       -3.58204518625219        6.29217379918920
N           -3.29170195312983       -1.05211108538538        4.97203068050803
O           -3.54988056818556        0.08622387024141        4.50575802526081
H           -2.91677597674686       -3.51454169637722        3.36615589447563
H           -4.26104850220645       -4.61606097662269        3.81626643821392
H           -2.61672032569222       -4.92386850114630        4.35124045666273
H           -4.20763016493408       -3.74801921142983        7.44469365529956
H           -3.43058537808308       -5.08344369445378        6.60776390003897
H           -5.09717278337473       -4.64491848161041        6.20182763438858
H           -4.49918128143019       -1.50652918513860        7.29122187857720
H           -5.99847284771392       -2.18331707757308        6.61860417755352
H           -5.50776015387205       -0.53241889618079        6.21939263575038
H           -4.79984886959768       -2.30199393061273        3.14354000026862
H           -5.72915359068707       -1.01960934325800        3.87532758943179
H           -6.14823824811017       -2.72284940326578        4.14246713523662
128
 energy: -196.201736876256 gnorm: 0.127566277927 xtb: 6.6.1 (8d0f1dd)
C            4.02956579593275        0.86092097995794        1.09568505046609
C            2.77335368522111        1.44173534900329        0.70964569020549
C            4.36386728826399       -0.52873303179025        0.98261904570679
C            5.01337176338109        1.73178227675673        1.62117404459480
C            2.71071296084302        2.81973513332361        0.44832085299855
C            5.40846754424389       -1.03570389857779        1.78279896041504
C            1.52801361832560        0.73488133830842        0.64704573883468
C            3.75186356851710       -1.42183712445632        0.03229394374652
C            0.37535176547439        1.28551449275924        0.06254321372158
C            3.94711824814218       -2.81747317283870        0.17438178123007
C            4.87354045670945        3.13014732776049        1.45249213320825
C            6.13064376173258        1.19797067618403        2.30838843683352
C            3.80327400189383        3.64737783548553        0.79282001813228
C            6.26337824489098       -0.14423860957768        2.47290710960844
C            1.53998712250105        3.37038552666838       -0.14556196601600
C            5.60876048655269       -2.43857916643636        1.87659202157646
C            0.44027158455603        2.62036943961880       -0.39634590773666
C            4.85071207628536       -3.30193559789603        1.15824841068204
C            1.35129652201274       -0.49099219128792        1.24433737112110
C            3.03272496476831       -0.96897815704139       -1.08788757478723
C           -0.79798595026696        0.52786890302752       -0.01726116369321
C            3.28757849137771       -3.70025929220949       -0.69806797552401
C            0.19509115366676       -1.22464936780144        1.26089034249031
C            2.42713050684629       -1.84992286588671       -1.94639856857479
C           -0.90926286232255       -0.73464133335493        0.54610716777420
C            2.51722427867906       -3.22719355929796       -1.72765943285665
H            5.65884994564546        3.77256004656050        1.82147017520783
H            6.85182491271805        1.88284498405668        2.72882303911599
H            3.73656618719829        4.70194718238006        0.57748766860708
H            7.06257629588161       -0.55499019424615        3.07169217458466
H            1.55756492147216        4.41459078427033       -0.41062993968083
H            6.36940879037616       -2.79922020675909        2.55265236830122
H           -0.42678291031795        3.02180524320438       -0.88936019937994
H            4.96734679606672       -4.36953648529422        1.26912017603280
H            2.22192117452500       -0.81857047768057        1.82409067724141
H            2.98587083747793        0.08812020096679       -1.29671257867497
H           -1.63977168054593        0.96562303638839       -0.52061017654405
H            3.42058475552191       -4.76257883105774       -0.55563891740743
H            0.11826823899224       -2.16875282042852        1.78955521634645
H            1.88471451945673       -1.47749604360896       -2.80217972049155
C           -2.12831523400737       -1.51363615165562        0.43209867710999
H            2.01393568813388       -3.91118420531586       -2.39382966625836
C           -3.59712999362922       -3.32702581237280        0.36217330660560
C           -4.38341591379918       -2.02539775368236        0.12363455323897
C           -4.14983969131903       -4.26150666469787        1.41549942542633
C           -5.14406021669150       -1.50869304855459        1.32786032657891
C           -5.31872620051048       -2.01083603400490       -1.06361133465444
C           -3.34360263925839       -4.13998998205647       -0.90266799302821
N           -2.27593952035999       -2.80425638003405        0.78513912000416
O           -1.42634172621197       -3.56978215705137        1.30067157916494
N           -3.29368411000821       -1.04632990841444       -0.05282392845856
O           -3.54276062034839        0.08805901023382       -0.49439169212735
H           -2.93909368741216       -3.51653859277583       -1.69307087479361
H           -4.26648148499335       -4.60572437481445       -1.23260749783133
H           -2.62255957672821       -4.92004487888791       -0.66810410934283
H           -4.26944273337986       -3.73676086635051        2.33460305518162
H           -3.44473089714543       -5.07710108878573        1.58393015992745
H           -5.11375329337035       -4.66537497503591        1.14475137913257
H           -4.44686727724658       -1.40807227882928        2.14311529134179
H           -5.98112198550520       -2.16148116680177        1.58302085143821
H           -5.52772591341446       -0.51086521610409        1.16122404466231
H           -4.80023132358487       -2.25436061099234       -1.98092785997819
H           -5.73242776223275       -1.01004900076380       -1.15168969199743
H           -6.12841165916412       -2.71436073602328       -0.89607091329332
C            4.03661887924010        0.85761587483653        6.09840575162914
C            2.77390878941179        1.42490559066276        5.72428718997666
C            4.37502977079804       -0.52857589880069        5.98897749194829
C            5.01968285104689        1.73080293504621        6.61871842159391
C            2.71264114353513        2.80555598727167        5.44785523213652
C            5.41914362236721       -1.03550875299677        6.78438529305515
C            1.54172382180792        0.68591476916259        5.70803340392477
C            3.76735539188148       -1.42997854663540        5.05444274845592
C            0.40127096219883        1.25270483082244        5.08659302732518
C            3.95671374724122       -2.82955163659900        5.18939143260375
C            4.87699902164894        3.12804266695684        6.44860606863300
C            6.13751649058806        1.19869845720540        7.30604187746295
C            3.80386707013353        3.63928978341044        5.78787282721883
C            6.27201685980948       -0.14246883244373        7.47349627486861
C            1.54369856208781        3.35748943614437        4.85571613825414
C            5.61627143917830       -2.43829040913374        6.88132134139032
C            0.45345394486215        2.59243520778829        4.61170975845308
C            4.86099567814872       -3.30746442653537        6.16678764176017
C            1.37469854850562       -0.54865497268535        6.36263621680626
C            3.04647565314651       -0.99188677217391        3.94348994693123
C           -0.78343970040791        0.51360225163014        4.99026331078546
C            3.31915323211171       -3.74164975807017        4.33274489344248
C            0.20431894703676       -1.24984598603378        6.29097871074976
C            2.43585305703842       -1.93272637641692        3.16530078575215
C           -0.89084837651117       -0.74784262466204        5.55385517771927
C            2.54077764497369       -3.29347464588568        3.31385469481483
H            5.65816914081412        3.77351155602350        6.82143980431584
H            6.85511404705989        1.88455906895588        7.72937580599796
H            3.73276325841845        4.69584325090134        5.57718621215420
H            7.06811353474838       -0.55319406445379        8.07445850314592
H            1.55546614175141        4.40443458389118        4.59185520800915
H            6.37334675790969       -2.79902780866392        7.55942978731823
H           -0.41704265463285        2.99767821518462        4.11895810475483
H            4.97330761442217       -4.37437799180151        6.27633082550362
H            2.17690843157071       -0.94253853282965        6.96523673101002
H            2.98210414451894        0.06687371792586        3.70981234146222
H           -1.62442814312528        0.96061950330657        4.48642789854692
H            3.44297118329628       -4.79737731224592        4.47446351336922
H            0.11608617952930       -2.19037489115662        6.80627896015119
H            1.83352993724059       -1.62358598623683        2.33751363921662
C           -2.11833921082720       -1.51630370899294        5.44776709070902
H            2.01808638763730       -3.93950105753845        2.62591204259106
C           -3.58856910686728       -3.32759292208069        5.43441230575994
C           -4.38534621788346       -2.03158778040234        5.21960008669174
C           -4.12436262887123       -4.25820567134539        6.50363261153085
C           -5.14382574602585       -1.53556605764668        6.44182710311541
C           -5.34132335774026       -2.03609390972304        4.05970043629258
C           -3.32850210740500       -4.14288827263648        4.17536944713556
N           -2.26187867716393       -2.80604413379805        5.81180109495677
O           -1.41309807435208       -3.57323886188028        6.29315693175593
N           -3.29565594721315       -1.05593543464856        4.97903232112299
O           -3.55043069788297        0.06936950604344        4.49975513748441
H           -2.89402134654197       -3.51881824916447        3.39728210825277
H           -4.24862163409388       -4.62311635766209        3.85029270125628
H           -2.60707098084957       -4.92799747459764        4.37213294678199
H           -4.21151588780626       -3.75272667694318        7.45735673719780
H           -3.43205802977124       -5.08763557034268        6.61558157780063
H           -5.09493562338327       -4.64430182712352        6.20600783945957
H           -4.50099004796862       -1.50049039982712        7.31328555849892
H           -5.99658820038707       -2.18026129048900        6.62834807001451
H           -5.50648236830047       -0.53225337231802        6.22825999570216