218
 energy: -579.935641437898 gnorm: 0.499330022276 xtb: 6.7.1 (edcfbbe)
C            1.23420000000000        2.53310000000000        2.44180000000000
C            1.37540000000000        1.19960000000000        2.10080000000000
C            2.64420000000000        0.62690000000000        1.86350000000000
C            3.73660000000000        1.53070000000000        1.74650000000000
C            3.55310000000000        2.88140000000000        2.12180000000000
C            2.32940000000000        3.36690000000000        2.49530000000000
C            2.83830000000000       -0.78920000000000        1.68730000000000
C            4.09520000000000       -1.11520000000000        1.14120000000000
C            5.06030000000000       -0.10030000000000        0.85490000000000
N            4.92550000000000        1.17960000000000        1.23030000000000
C            2.03260000000000       -1.89190000000000        2.17770000000000
C            2.73200000000000       -3.15760000000000        2.24060000000000
N            3.75130000000000       -3.49250000000000        1.41850000000000
C            4.44370000000000       -2.47350000000000        0.89620000000000
C            5.64540000000000       -2.76020000000000        0.22940000000000
C            6.52750000000000       -1.76920000000000       -0.12250000000000
C            6.25090000000000       -0.46480000000000        0.20820000000000
C            0.73760000000000       -1.88120000000000        2.92160000000000
C            0.70910000000000       -2.68020000000000        4.09530000000000
C            1.50900000000000       -3.77740000000000        4.24120000000000
C            2.45360000000000       -4.06180000000000        3.28940000000000
O            0.27970000000000        0.43470000000000        1.90360000000000
C           -3.92550000000000       -0.73440000000000        2.98980000000000
C           -3.33450000000000        0.00650000000000        1.97740000000000
C           -4.09000000000000        0.31980000000000        0.80500000000000
C           -5.46240000000000       -0.07760000000000        0.80390000000000
C           -5.93080000000000       -0.98260000000000        1.78560000000000
C           -5.15570000000000       -1.32480000000000        2.85490000000000
C           -3.62740000000000        1.17220000000000       -0.26680000000000
C           -4.64080000000000        1.83990000000000       -0.97600000000000
C           -5.99940000000000        1.44600000000000       -0.82180000000000
N           -6.38160000000000        0.42060000000000       -0.04580000000000
C           -2.28820000000000        1.48100000000000       -0.66320000000000
C           -2.07380000000000        2.63350000000000       -1.48500000000000
N           -3.06640000000000        3.35260000000000       -2.03990000000000
C           -4.32000000000000        2.92850000000000       -1.83270000000000
C           -5.36470000000000        3.60070000000000       -2.48360000000000
C           -6.67220000000000        3.20470000000000       -2.34780000000000
C           -6.98400000000000        2.14290000000000       -1.53450000000000
C           -1.13860000000000        0.64730000000000       -0.39630000000000
C            0.13130000000000        1.10910000000000       -0.77960000000000
C            0.32920000000000        2.28490000000000       -1.43700000000000
C           -0.75880000000000        3.03840000000000       -1.79600000000000
O           -2.03490000000000        0.36440000000000        2.24030000000000
B           -0.89750000000000       -0.39770000000000        1.68820000000000
N           -0.53160000000000       -1.71510000000000        2.37280000000000
C           -1.49360000000000       -4.04110000000000        2.63600000000000
C           -1.67390000000000       -2.52950000000000        2.70650000000000
N           -1.18690000000000       -0.60730000000000        0.19900000000000
C           -0.68830000000000       -1.87650000000000       -1.85630000000000
C           -0.54850000000000       -1.77270000000000       -0.34920000000000
S           -8.04520000000000        4.10610000000000       -3.29430000000000
F           -7.78380000000000        3.08740000000000       -4.48070000000000
F           -6.93500000000000        5.06800000000000       -3.88120000000000
F           -9.19080000000000        4.84910000000000       -4.09920000000000
F           -9.07810000000000        3.09200000000000       -2.65640000000000
F           -8.21630000000000        5.06340000000000       -2.04150000000000
S            2.12030000000000        2.76670000000000       -1.82560000000000
F            2.58930000000000        1.41520000000000       -1.16170000000000
F            2.16960000000000        3.44520000000000       -0.40390000000000
F            3.60930000000000        3.17460000000000       -2.15460000000000
F            1.54300000000000        4.08750000000000       -2.46510000000000
F            1.93120000000000        2.01160000000000       -3.19950000000000
S           -5.61460000000000       -2.62340000000000        4.15660000000000
F           -6.92640000000000       -2.85980000000000        3.31800000000000
F           -6.31350000000000       -1.48180000000000        4.98250000000000
F           -5.99730000000000       -3.75400000000000        5.18880000000000
F           -4.26840000000000       -2.31190000000000        4.91470000000000
F           -4.81380000000000       -3.62560000000000        3.23520000000000
S            1.15460000000000       -4.86430000000000        5.74530000000000
F            0.96980000000000       -6.05410000000000        4.73460000000000
F           -0.35720000000000       -4.49930000000000        5.55750000000000
F            0.84630000000000       -5.72410000000000        7.01210000000000
F            1.31920000000000       -3.56340000000000        6.59620000000000
F            2.68820000000000       -5.15240000000000        5.79060000000000
S            8.12950000000000       -2.20870000000000       -1.03620000000000
F            7.67930000000000       -3.72480000000000       -0.98830000000000
F            8.84480000000000       -2.37700000000000        0.37070000000000
F            9.45950000000000       -2.57400000000000       -1.81910000000000
F            7.31870000000000       -2.01720000000000       -2.38590000000000
F            8.49030000000000       -0.66810000000000       -1.03310000000000
S            2.08600000000000        5.15370000000000        3.08120000000000
F            3.65500000000000        5.31660000000000        3.00600000000000
F            1.89480000000000        6.62850000000000        3.62160000000000
F            0.53330000000000        4.88960000000000        3.11190000000000
F            1.97160000000000        5.62000000000000        1.57260000000000
F            2.19780000000000        4.57010000000000        4.54070000000000
H           -2.44780000000000       -4.55890000000000        2.77270000000000
H           -0.82970000000000       -4.41590000000000        3.41580000000000
H           -1.07960000000000       -4.35270000000000        1.67770000000000
H           -2.47610000000000       -2.24130000000000        2.02400000000000
H           -2.00590000000000       -2.24930000000000        3.70880000000000
H           -0.98680000000000       -2.64970000000000        0.13130000000000
H            0.50420000000000       -1.75430000000000       -0.05370000000000
H           -1.73880000000000       -1.87970000000000       -2.14920000000000
H           -0.23020000000000       -2.78650000000000       -2.24860000000000
H           -0.21620000000000       -1.03100000000000       -2.35820000000000
H           -6.92860000000000       -1.38750000000000        1.70480000000000
H           -8.01610000000000        1.84340000000000       -1.42630000000000
H           -5.12880000000000        4.45040000000000       -3.10810000000000
H            4.40240000000000        3.54980000000000        2.10170000000000
H            5.91100000000000       -3.79240000000000        0.05200000000000
H            6.97270000000000        0.30550000000000       -0.02460000000000
H            3.08950000000000       -4.92580000000000        3.41360000000000
H           -0.60570000000000        3.95910000000000       -2.33990000000000
H           -0.09250000000000       -2.54870000000000        4.80610000000000
H            0.24630000000000        2.92320000000000        2.63040000000000
H            0.99280000000000        0.52610000000000       -0.49860000000000
H           -3.36920000000000       -0.88430000000000        3.89960000000000
C            2.28220000000000        0.81330000000000       11.94850000000000
C            1.96200000000000       -0.15860000000000       11.00280000000000
C            3.00620000000000       -0.75330000000000       10.23630000000000
C            4.25740000000000       -0.06110000000000       10.19160000000000
C            4.51710000000000        0.92860000000000       11.16040000000000
C            3.55960000000000        1.33050000000000       12.04890000000000
C            2.90500000000000       -2.00760000000000        9.54360000000000
C            3.95850000000000       -2.25770000000000        8.65230000000000
C            4.89760000000000       -1.22690000000000        8.34290000000000
N            5.14330000000000       -0.21320000000000        9.18650000000000
C            1.92680000000000       -3.05260000000000        9.65410000000000
C            2.35120000000000       -4.36110000000000        9.22860000000000
N            3.32630000000000       -4.56580000000000        8.32130000000000
C            3.97650000000000       -3.46720000000000        7.90230000000000
C            4.63520000000000       -3.45140000000000        6.66250000000000
C            5.30070000000000       -2.32790000000000        6.22590000000000
C            5.52140000000000       -1.27350000000000        7.08680000000000
C            0.51750000000000       -2.93830000000000       10.06420000000000
C           -0.05250000000000       -4.11440000000000       10.62930000000000
C            0.48400000000000       -5.36000000000000       10.41000000000000
C            1.63110000000000       -5.48580000000000        9.66650000000000
O            0.64210000000000       -0.41050000000000       10.76250000000000
C           -3.47620000000000       -0.51490000000000        9.38840000000000
C           -2.44340000000000        0.24180000000000        8.83480000000000
C           -2.56830000000000        0.74440000000000        7.49670000000000
C           -3.73840000000000        0.34850000000000        6.77880000000000
C           -4.63290000000000       -0.59030000000000        7.33580000000000
C           -4.50740000000000       -1.00820000000000        8.62400000000000
C           -1.68520000000000        1.70660000000000        6.87330000000000
C           -2.20640000000000        2.34460000000000        5.72890000000000
C           -3.39520000000000        1.87200000000000        5.11190000000000
N           -4.09360000000000        0.83270000000000        5.57600000000000
C           -0.38130000000000        2.14340000000000        7.28240000000000
C            0.13810000000000        3.33750000000000        6.68620000000000
N           -0.44680000000000        4.00310000000000        5.67750000000000
C           -1.55340000000000        3.47010000000000        5.15720000000000
C           -2.07150000000000        4.05670000000000        3.99260000000000
C           -3.19680000000000        3.56230000000000        3.38720000000000
C           -3.85430000000000        2.49790000000000        3.94630000000000
C            0.52920000000000        1.38630000000000        8.13020000000000
C            1.76100000000000        1.98890000000000        8.48300000000000
C            2.20240000000000        3.16150000000000        7.93730000000000
C            1.40280000000000        3.82770000000000        7.05310000000000
O           -1.33160000000000        0.31890000000000        9.64020000000000
B           -0.13240000000000       -0.56510000000000        9.50020000000000
N           -0.36420000000000       -2.08840000000000        9.39900000000000
C           -1.43090000000000       -3.87450000000000        8.00450000000000
C           -1.56270000000000       -2.55870000000000        8.75630000000000
N            0.49280000000000       -0.01230000000000        8.20340000000000
C            1.46490000000000       -0.27940000000000        5.94850000000000
C            1.30110000000000       -0.83530000000000        7.35000000000000
S           -3.83080000000000        4.30410000000000        1.76310000000000
F           -2.89190000000000        5.54380000000000        2.02270000000000
F           -4.98070000000000        5.00300000000000        2.58760000000000
F           -4.33980000000000        4.87650000000000        0.38880000000000
F           -2.62950000000000        3.55310000000000        1.08140000000000
F           -4.72960000000000        3.02510000000000        1.60880000000000
S            3.95130000000000        3.77780000000000        8.31990000000000
F            3.94540000000000        2.80270000000000        9.54680000000000
F            3.30360000000000        4.91720000000000        9.20560000000000
F            5.42540000000000        4.25270000000000        8.62790000000000
F            3.84320000000000        4.72000000000000        7.05920000000000
F            4.44550000000000        2.59000000000000        7.40040000000000
S           -5.61710000000000       -2.33770000000000        9.38310000000000
F           -6.82330000000000       -1.32090000000000        9.30280000000000
F           -5.23580000000000       -1.77780000000000       10.80980000000000
F           -6.50390000000000       -3.48670000000000       10.00530000000000
F           -4.29820000000000       -3.20890000000000        9.39520000000000
F           -5.92790000000000       -2.81260000000000        7.90940000000000
S           -0.44840000000000       -6.89330000000000       11.01320000000000
F           -1.41320000000000       -6.63690000000000        9.78690000000000
F           -1.34260000000000       -5.93770000000000       11.89850000000000
F           -1.24570000000000       -8.17280000000000       11.48940000000000
F            0.59930000000000       -7.00300000000000       12.19240000000000
F            0.50410000000000       -7.76170000000000       10.09960000000000
S            5.84180000000000       -2.20310000000000        4.41130000000000
F            5.17350000000000       -3.60390000000000        4.16610000000000
F            7.18670000000000       -2.91050000000000        4.82850000000000
F            6.26720000000000       -2.07210000000000        2.90990000000000
F            4.44560000000000       -1.52060000000000        4.15450000000000
F            6.45800000000000       -0.79720000000000        4.75820000000000
S            3.96160000000000        2.63510000000000       13.36270000000000
F            4.52980000000000        1.45240000000000       14.25070000000000
F            4.30190000000000        3.71550000000000       14.47000000000000
F            3.35500000000000        3.73090000000000       12.39090000000000
F            5.38280000000000        2.80250000000000       12.68990000000000
F            2.52080000000000        2.39510000000000       13.96640000000000
H           -2.29140000000000       -4.06690000000000        7.35730000000000
H           -1.35350000000000       -4.73420000000000        8.67250000000000
H           -0.53720000000000       -3.86610000000000        7.38140000000000
H           -1.87120000000000       -1.78180000000000        8.05440000000000
H           -2.35010000000000       -2.64410000000000        9.51100000000000
H            0.88310000000000       -1.84460000000000        7.33680000000000
H            2.28120000000000       -0.90340000000000        7.81760000000000
H            0.50210000000000       -0.19340000000000        5.44470000000000
H            2.11920000000000       -0.90560000000000        5.33810000000000
H            1.90770000000000        0.71710000000000        5.97060000000000
H           -5.41910000000000       -0.99760000000000        6.71420000000000
H           -4.73970000000000        2.11590000000000        3.46360000000000
H           -1.55130000000000        4.89740000000000        3.55360000000000
H            5.47080000000000        1.43780000000000       11.14300000000000
H            4.49960000000000       -4.28910000000000        5.99430000000000
H            6.10360000000000       -0.42500000000000        6.75820000000000
H            1.95530000000000       -6.46790000000000        9.35300000000000
H            1.79200000000000        4.69720000000000        6.53970000000000
H           -1.01220000000000       -4.05470000000000       11.12270000000000
H            1.49740000000000        1.20430000000000       12.57920000000000
H            2.43400000000000        1.45090000000000        9.12770000000000
H           -3.38810000000000       -0.82600000000000       10.41880000000000
218
 energy: -580.108528985934 gnorm: 0.353145825407 xtb: 6.7.1 (edcfbbe)
C            1.22514877086415        2.53061494405162        2.44137818464256
C            1.35817905101298        1.18938713037121        2.09743813447452
C            2.63053899992026        0.62177842055759        1.86213579103436
C            3.73129393423057        1.52685216297093        1.74524713086041
C            3.55732231193526        2.88274404352390        2.12327444022392
C            2.33055905677525        3.35943326801137        2.49188941964708
C            2.83285565738085       -0.79172514132300        1.69068540122829
C            4.09185591494914       -1.11461758606591        1.13771782943269
C            5.05831200974454       -0.10069310311726        0.85787693712642
N            4.91397252727776        1.17224937078706        1.23311417729777
C            2.02761817209646       -1.88321888633675        2.18555066676735
C            2.73126837206329       -3.14798400682084        2.25094814108859
N            3.74754494052143       -3.47279170004653        1.43557923634558
C            4.44037712932304       -2.47211455655836        0.89526690354934
C            5.64432265131866       -2.76744779707973        0.22479419646783
C            6.52180611058471       -1.76889715624983       -0.12141693076827
C            6.25444406795664       -0.46101198432608        0.20726902152892
C            0.72482266513929       -1.91133722169308        2.90028678314409
C            0.70193375767498       -2.68565184283617        4.08396101409713
C            1.51933885467441       -3.77350085428038        4.23967367179572
C            2.45315861963146       -4.07197471314906        3.28750701371761
O            0.28182266809918        0.44188933003389        1.91051454717678
C           -3.92236178504910       -0.72627296828642        2.99128676391297
C           -3.32319938513039        0.00534173128328        1.97462583723869
C           -4.07648326882682        0.32269249343450        0.81058970513523
C           -5.45798638819740       -0.07361695671385        0.80681956838494
C           -5.93518542594804       -0.98751975543413        1.78262762726580
C           -5.15783849905720       -1.31589306047974        2.85309923052181
C           -3.62154725782169        1.16746359385857       -0.26536126831214
C           -4.63707383022604        1.83532624188616       -0.97464378485747
C           -5.99778671768474        1.44276981307576       -0.81922030367186
N           -6.37005850852646        0.42374270518738       -0.03994948635395
C           -2.27994785190843        1.46538680269153       -0.66491899073953
C           -2.07168546879443        2.62874692998357       -1.48330565444863
N           -3.06471024930117        3.34182369899750       -2.02985281857714
C           -4.31596787416379        2.92442542039828       -1.83450282670446
C           -5.36217419896670        3.60500064931521       -2.48786473610983
C           -6.66811358129692        3.20294751657391       -2.34369010027216
C           -6.98970094846809        2.13930837276027       -1.53354852839232
C           -1.14032638979049        0.63950512038229       -0.41266279604647
C            0.12523278113166        1.09841411438402       -0.78349546989429
C            0.32252669648197        2.28854477487406       -1.43487821675916
C           -0.75602553621402        3.04447093263398       -1.79935547900966
O           -2.04174201452901        0.37014178010701        2.23896330766425
B           -0.89055576739965       -0.37486825720130        1.69474298756673
N           -0.52660667684259       -1.69953534490863        2.37203757327350
C           -1.48735543794571       -4.04498097840340        2.63487983132040
C           -1.66586455647846       -2.53148257281377        2.71603985721433
N           -1.19564651111869       -0.60300271420183        0.20782811852622
C           -0.68920481252033       -1.87307697483348       -1.86357810628562
C           -0.54338658150341       -1.76546655129280       -0.35582313073090
S           -8.02971638785148        4.09699700696074       -3.28312165537202
F           -7.78939584561222        3.08103701041868       -4.50048264224003
F           -6.93692788471737        5.08934796607211       -3.89881170475054
F           -9.17984977513802        4.84235304944903       -4.09128558225929
F           -9.10546148576252        3.08990326491583       -2.66010120303436
F           -8.22557616857588        5.07905599378705       -2.03193380314722
S            2.09754759136516        2.76555344103036       -1.82090065805539
F            2.61698180582745        1.40487348990108       -1.16021077129147
F            2.18098075797852        3.45843842700184       -0.38629663518159
F            3.59354100381519        3.17310137133961       -2.15310454939985
F            1.55291294750473        4.11296782197539       -2.47884362780463
F            1.94273849986178        2.00466294530482       -3.22078326929946
S           -5.61396626593534       -2.60717879347577        4.13923808209029
F           -6.95166154120268       -2.88068724102301        3.31587360088493
F           -6.33469154959452       -1.47677699049250        4.99780261099870
F           -5.99664656469088       -3.74323303159275        5.17551042772916
F           -4.25892726270948       -2.32441455189170        4.93755140719994
F           -4.80649258404395       -3.65222913551932        3.23201129758738
S            1.16355435153968       -4.85935770417119        5.71701893233861
F            0.96218981862693       -6.08779191087563        4.72532269658083
F           -0.37973462522675       -4.51500231241145        5.55002174006073
F            0.85038531653908       -5.72359702083255        6.99251503085325
F            1.33011521919374       -3.56030482067952        6.61373546699444
F            2.70800667212641       -5.18176929126991        5.79614613187833
S            8.11194398995770       -2.20337424995352       -1.02503311479189
F            7.69142361264609       -3.74727445093182       -0.99831160485317
F            8.85981242739092       -2.38126557637305        0.38193234811717
F            9.44692238379802       -2.57039799960823       -1.81122469075459
F            7.31888710875946       -2.01767943424963       -2.40688150562003
F            8.51134842290020       -0.65450852094737       -1.04347379733451
S            2.09426076764440        5.13249230125645        3.06846258350868
F            3.67674067083735        5.33790553704472        3.00969791878242
F            1.89957533210653        6.61306569939709        3.61409290530951
F            0.51738709188171        4.90525563339274        3.11061679411652
F            1.97051633740721        5.63573843156943        1.55531179719446
F            2.20393222810414        4.57109554845041        4.55608059386213
H           -2.44710106744086       -4.54562937415513        2.76974915728375
H           -0.82903398687171       -4.41764557594226        3.41126429420859
H           -1.07843154908334       -4.34987497317489        1.67500359723702
H           -2.46334388589608       -2.24611481634432        2.02533523354330
H           -2.00743321263200       -2.26289621487615        3.71737880445083
H           -0.98829616229258       -2.64153526533301        0.12646218152803
H            0.51385417982034       -1.75897748463601       -0.06301457163410
H           -1.74020596733440       -1.87984064815947       -2.14684809474476
H           -0.23048091441022       -2.78557728755944       -2.24209130790154
H           -0.21465671308462       -1.02937640355800       -2.35957226303730
H           -6.93238346141802       -1.38216791992654        1.69662346776988
H           -8.01513114615032        1.83533576878664       -1.42097938115035
H           -5.11952865167711        4.45051334613069       -3.10685446670279
H            4.40713034836864        3.54286534079102        2.09596915115679
H            5.90264502491705       -3.79729778051914        0.05455287434109
H            6.96791479490964        0.31197921561769       -0.02047245124738
H            3.08588294699187       -4.93384464918201        3.40205134576071
H           -0.61443802659595        3.96068510637540       -2.34459470333022
H           -0.09328889207316       -2.53914208365192        4.79683376210914
H            0.24056620197781        2.91682821597727        2.62852805934281
H            0.98062243886781        0.51387299627250       -0.49977189651647
H           -3.36688180510982       -0.87156756105381        3.89611234652097
C            2.27434657324399        0.81281476228192       11.94597356153606
C            1.94786415655785       -0.15016485825777       10.98871488217947
C            2.99429438671422       -0.75613143262063       10.24096424692912
C            4.25298409170510       -0.06433942298985       10.19362418107225
C            4.52347993084158        0.92765030990883       11.16202272307099
C            3.55997289177866        1.31944212684162       12.04711736153954
C            2.89917594253135       -2.00782265582044        9.54491355755542
C            3.95853458732886       -2.25966613835993        8.65183561659094
C            4.89745977796936       -1.22872805895335        8.34486511680502
N            5.13219261319427       -0.22640965438721        9.19461284310744
C            1.91917665293632       -3.04313096226251        9.65686029706771
C            2.35070807322639       -4.35434026632792        9.23572294703709
N            3.32250470966911       -4.54864915922467        8.33624406015257
C            3.97820565561139       -3.46636313411946        7.90365487914095
C            4.64003511335486       -3.45537227441640        6.66194963694336
C            5.30217363494495       -2.32778186275604        6.23341160507930
C            5.52501952992622       -1.26880154217856        7.08605807715294
C            0.50920129098776       -2.95377940031719       10.03111276266101
C           -0.05766284599713       -4.11188389775921       10.61549070435124
C            0.49804464354054       -5.35710665271877       10.41871821101104
C            1.63530066814503       -5.49232142035788        9.66942046001600
O            0.64505325623000       -0.40291807794235       10.76618679613724
C           -3.47116317475053       -0.51341390083102        9.39458215739549
C           -2.42549277119145        0.22853336045936        8.83923895279379
C           -2.55952484485827        0.74584737918573        7.51139085884717
C           -3.73671173721710        0.35184293426235        6.78574151022180
C           -4.63540391747347       -0.59433341184932        7.33447196294902
C           -4.51004560317249       -0.99614715384257        8.62596292642235
C           -1.68156466623921        1.70260586055911        6.87716231511453
C           -2.20470300986982        2.34173857126332        5.73174369073000
C           -3.39560838639400        1.86863903497382        5.11341102524437
N           -4.08793772026464        0.83597310997674        5.58845752761105
C           -0.37320485092194        2.13188696900313        7.28330913068125
C            0.13764571279825        3.33738072449453        6.69068077206522
N           -0.45286555234007        3.99560497504021        5.68869763674626
C           -1.55059122310806        3.46894155845143        5.15821431622170
C           -2.07154790695393        4.06255559830791        3.99075972154959
C           -3.19867926676065        3.56090250818757        3.39282861514106
C           -3.86105392225666        2.49263298895809        3.94252464138465
C            0.54654316567543        1.38429433665714        8.09856762217595
C            1.75926222442514        1.97882638024122        8.47705768885176
C            2.19112953644940        3.17099056248939        7.94395013389346
C            1.40313227173199        3.83797963900624        7.05828478977477
O           -1.33484066546687        0.31720648246716        9.64271871565648
B           -0.12712262206896       -0.55514735446227        9.50706595166406
N           -0.35394244480779       -2.07742493655836        9.40436897154907
C           -1.43253946045109       -3.87784723912965        8.01314822123948
C           -1.55690534359066       -2.56181483088819        8.76638751443510
N            0.48047493480484       -0.00939850835187        8.20965707320283
C            1.46375863714630       -0.27130370241349        5.94260137194102
C            1.30227162687285       -0.81866640747357        7.34982070361547
S           -3.82140135549607        4.29749042464924        1.78492739822842
F           -2.88774770085394        5.57000077437153        2.01290940216864
F           -4.99991689291717        5.01683074656058        2.58861294712316
F           -4.33516501251756        4.87309823801298        0.40316680701362