116
 energy: -22.928061455056 gnorm: 0.329736929581 xtb: 6.6.1 (8d0f1dd)
C           -3.31122850772930        0.79849766164622       -0.92477639677520
C           -2.44380812530352       -0.12270372891954       -0.27661132624697
C           -1.41337090092821        0.39579727573559        0.56335275196199
C           -0.89266158675590        1.65801491088749        0.27377586709581
C           -1.72665675402493        2.51431363229076       -0.49448366572522
C           -2.95444148494349        2.13954154133227       -1.01494489940871
C           -0.74098268209890       -0.43411532818871        1.49825021926784
C            0.56872586496315        0.03782116815119        1.86248088067890
C            1.03782416582094        1.29402317993033        1.50887470833621
N            0.31238977034758        2.07067427098208        0.65193736800696
C           -1.29695700510141       -1.39996043042223        2.41574187746061
C           -0.38243517664656       -2.18060797534842        3.13232615520648
N            0.91308504082021       -1.90366887689689        3.30325166013478
C            1.37712470144904       -0.74872102533751        2.81811050966982
C            2.52149331701875       -0.17739833758153        3.39379298866852
C            2.95849061756259        1.02681208890480        2.95105897606587
C            2.24288949469137        1.78498308775960        2.03503020483770
C           -2.74860936222260       -1.74497937691422        2.38401158947411
C           -3.09416315450955       -2.91614440870436        3.00571134491758
C           -2.16786021984049       -3.77788778654213        3.63251872101904
C           -0.85708937311598       -3.40495313382985        3.68547234358092
O           -3.71994433332149       -0.94984598373544        1.67726658385724
O           -2.55702603277562       -1.47241711578389       -0.57241635275616
C           -3.84297843593025        3.13357444054366       -1.60938954875544
C           -2.68769581069131       -5.03867041417370        4.30484659386931
H           -1.39666850744143        3.51251503834900       -0.76806311868865
H           -4.27662633836220        0.55105838579656       -1.33106614114542
H            2.66329581305412        2.73912661909249        1.72562431984580
H            3.05775395548473       -0.69369546277216        4.16536137542516
H           -0.24710966264510       -4.12034095424229        4.22946223699121
H           -4.11477991332403       -3.04712728052358        3.03244694615357
O           -4.21824883374556        4.03433712717988       -0.87713382485991
O           -4.44510595673734        2.90643496899600       -2.81853501752979
C           -5.44216520282800        3.83300025693726       -3.02488532025093
C            4.23586651889298        1.50004220933226        3.59165660008449
O            5.05927614697201        0.66079890002952        3.91714215179376
O            4.47001334453535        2.86385149488593        3.72605651435371
C            5.79457498613219        3.08584475587818        4.15829123132174
O           -3.82227255313510       -5.27347675879771        4.16636005494405
O           -1.85023202017753       -5.79767454267276        5.06656077253571
C           -2.55119635829503       -6.86252441382958        5.62930343183426
C           -5.07197156564436       -1.42399175670916        1.58830531863830
C           -1.33089900128490       -2.23622472573986       -0.99264499351172
H           -2.54510546830388       -7.76426885143998        4.99136022291012
H           -3.57194749219491       -6.44405511486021        5.74196173723541
H           -2.09133598235598       -7.02043774843818        6.64022264233588
H            5.72707967266424        3.46798026205549        5.10135971236643
H            6.34060091246885        3.78468702308830        3.50069950143490
H            6.17933064298187        2.03010500085905        4.19342358084693
H           -0.91862729772622       -2.57650129080332       -0.01361370304871
H           -0.49769766914251       -1.60651221708571       -1.34094446550576
H           -1.52632419730509       -2.94569707152159       -1.75361447637286
H           -5.11788846557077       -2.41810833635233        1.17520213188926
H           -5.67929807973498       -0.69619639428435        1.04301666067831
H           -5.57598832326623       -1.42383358739762        2.57928294206544
H           -6.13050215934830        3.76035386975488       -2.23272855695873
H           -5.86615610071888        3.45938329385866       -4.02668959924245
H           -5.13479557532099        4.87790991548477       -2.98314551356402
C           -1.38192942069774        3.73616555005018        2.91232598411686
C           -1.84821468128685        2.59982427735607        3.49755545445181
C           -1.05946531454833        2.05730632010638        4.60922730982276
C            0.19893954712228        2.69376791964407        4.86302140881997
C            0.50425395911860        3.94630308659851        4.28768785650746
C           -0.26031777722226        4.46998310053134        3.25072669343212
C           -1.20488993561782        0.74454293276906        5.14851520323437
C           -0.06287609782692        0.02744069315890        5.60930570802864
C            1.19208754369866        0.71421540266195        5.78882868583885
N            1.19428660993148        2.06344359410476        5.62744624321596
C           -2.41361422770794        0.07928500213936        5.25249410304426
C           -2.45851584031083       -1.32662100968547        5.60237876023992
N           -1.29466212405906       -1.98318595734370        5.89916817085159
C           -0.14475655767527       -1.32117560077092        5.98824682881008
C            0.97209270935794       -1.98958449505532        6.53157704134458
C            2.21982707914082       -1.36973967291181        6.68703967237737
C            2.30561929262884       -0.09745313075593        6.26436900324455
C           -3.73018485967715        0.71367583494582        5.25810242262992
C           -4.89964478833448       -0.06184623426677        5.21204641615509
C           -4.82617965800088       -1.39228978090841        5.46901303780036
C           -3.67144193418464       -1.98914944386360        5.67265433266067
O           -3.75568638935321        2.07705011038914        5.52067969627343
O           -2.94192434743730        1.91263938797883        3.01658762327703
C            0.21273512614467        5.50086066357994        2.34765104514621
C           -6.06660304520411       -2.17604633098929        5.80641622556876
H            1.41756699010566        4.38133362238595        4.66974005703471
H           -1.82880610647429        4.11982501512100        2.06992133318584
H            3.26888037378556        0.32655662585251        6.31721410015598
H            0.87146188387207       -3.08471526305024        6.57830423410869
H           -3.67716811065157       -3.05999292755990        5.83019634570050
H           -5.77379677507622        0.43595144608221        4.71017130754348
O            1.34459852619901        5.82615848916894        2.44941456579099
O           -0.74718748219123        6.07961784856304        1.59848183464284
C           -0.21473095568964        7.24015934882472        1.05753806029483
C            3.53228080814219       -2.00967610361154        7.02506769044485
O            3.64093082622715       -3.14437803815732        7.50071391725347
O            4.56565258381079       -1.22937033368332        6.69086985080897
C            5.72579357310716       -1.80692399125161        7.22246151275881
O           -7.04801223588612       -1.95726935745904        5.14194115322235
O           -6.01514389321278       -2.93743591896022        6.94765316328794
C           -7.21292732384718       -3.62681918543340        7.15115816329978
C           -4.95459780685163        2.65960679932188        5.86868674392943
C           -3.68284113682406        2.59129188358641        2.05479246020704
H           -7.43119628931628       -4.22607794725959        6.20622607140901
H           -8.06548455146707       -2.91765848248592        7.29781126410398
H           -7.07314693247270       -4.33087306029711        7.91223421050944
H            6.57332189837178       -1.29353136199234        6.78341268688262
H            5.74663761932316       -2.84282155125561        6.88089468184451
H            5.69426191474290       -1.72781984964892        8.29460302186842
H           -4.10481209541493        3.44288266176275        2.60483747673152
H           -4.49244774344916        1.87419893016926        1.82433103764650
H           -3.18901540870812        2.85154642679373        1.06781919454921
H           -5.55414326821421        2.76698137191684        4.93950725322359
H           -4.78658370641210        3.62090640967288        6.25983200635257
H           -5.43485580473958        1.97242995129449        6.65265772412460
H            0.89164886030839        7.38838561720231        1.13776105146914
H           -0.62894889903848        8.04195665205089        1.64837664327952
H           -0.59282546386754        7.45699159724320        0.03719083132488
116
 energy: -22.542676318453 gnorm: 0.607071921695 xtb: 6.6.1 (8d0f1dd)
C           -2.44830717957479        0.69637441979066       -1.64179641224156
C           -1.97042178648893       -0.30859864024649       -0.84716128707503
C           -1.26769626889599        0.09271356526019        0.26357246632683
C           -0.89192072028543        1.41958957540352        0.28485630421047
C           -1.38611994226676        2.51475169942690       -0.56477007017054
C           -2.40094739415655        2.09992503470897       -1.42967890270045
C           -0.75570915261774       -0.72698428731360        1.22642118895011
C            0.25454639851219       -0.19428867976914        2.08326891362834
C            0.59825801384608        1.22420723686489        2.07088535535076
N           -0.07222836085187        2.04483904345183        1.24379367886168
C           -1.33650001242082       -1.85477214997979        1.86394131987505
C           -0.63859568437550       -2.54123364434799        2.89972032856139
N            0.57157912530195       -2.14671312503103        3.48231668357548
C            0.90816919485665       -1.00614485464532        2.99533938699524
C            2.32200520863700       -0.70480497449318        3.25443575460187
C            2.77676927922359        0.59021005452088        2.83999902061174
C            1.89141886749936        1.59185482051847        2.58350041471783
C           -2.65099276567431       -2.26927794993537        1.62075985202769
C           -3.04864078320927       -3.52632511604646        1.99478029253084
C           -2.20005376741916       -4.33982077356424        2.73441979617254
C           -1.07473556377209       -3.84518669853693        3.22119472678998
O           -3.66015863549371       -1.35389903764156        1.30166918845735
O           -2.01270069873484       -1.67227977546522       -1.23037146034316
C           -2.90744101219546        3.08311450237261       -2.38691450600644
C           -2.88893821202391       -5.54593580206046        3.19771397905877
H           -1.16179375044472        3.47313700763030       -0.18231462151219
H           -2.56113830807688        0.28707144669659       -2.69654064610676
H            2.29659752763240        2.61492045117108        2.64140598733061
H            2.98332351150366       -1.55178816202609        3.44343508737360
H           -0.44814546375831       -4.42120208339691        3.98065141755472
H           -3.96203670300410       -3.91786948610473        1.76528069228174
O           -2.31902800008071        4.15943702325606       -2.27401953688119
O           -3.69623469775825        2.86753434634753       -3.44502296240959
C           -4.42410791568489        3.85854241808112       -3.93836718565788
C            4.21138265115766        0.93565346998736        3.16898924602096
O            4.81800645953362        0.12546639455416        3.84532731224957
O            4.89246098472451        2.03489301988758        2.55529164693335
C            6.15259013317153        2.25423811189581        3.12936630985945
O           -4.17062243916361       -5.65759885352964        3.08958310737073
O           -2.19187194942473       -6.41305646345964        4.05490238461772
C           -2.96023793391536       -7.42891512702508        4.83781070521534
C           -5.02961736768629       -1.69964871944459        1.33996579413713
C           -0.72341322038428       -2.26488256691976       -1.33058021426938
H           -3.37541917386927       -8.16791119996439        4.21414624012317
H           -3.95230320264970       -6.90029439808696        5.28862740198159
H           -2.66500652206214       -7.86995423957552        5.79611653486728
H            6.70376484176972        1.44400438131139        2.59186821014510
H            6.31340472026672        1.78144268667905        4.11443231656609
H            6.59738843908754        3.11934616266457        3.06723339871947
H           -0.04967239904754       -1.51437281945327       -1.90847135066146
H           -1.01885230460702       -3.00866822916694       -2.03657304341153
H           -0.25364854890057       -2.95009055555223       -0.51533871655887
H           -5.30388486195888       -2.74618217564597        0.96438899213667
H           -5.48298715546285       -1.03361973484903        0.56902732232960
H           -5.39408644857127       -1.36224295726766        2.38226876207893
H           -5.30285484127337        3.96995070333289       -3.16527539127811
H           -4.91819571481238        3.77912685120820       -4.96048660929904
H           -3.70505111122442        4.84923723508795       -4.18395092784304
C           -2.30707604366677        3.89272098591309        3.67474040410276
C           -2.48943940611067        2.80665868872306        4.44878858130056
C           -1.28039330428722        2.46480757533092        5.31614981936307
C           -0.13660456866737        3.19586788169076        5.21000224320091
C            0.01802404724250        4.44290875960297        4.57030272180762
C           -1.12138859316589        4.70514597536709        3.73603965929739
C           -1.17907140340898        1.38120826813381        6.25738406036720
C            0.01633619233874        0.59098922819225        6.20985903534068
C            1.19885920789781        1.41657429693518        6.20297294926812
N            1.09860083930372        2.71111796068573        5.90587129790989
C           -2.38603586830257        0.57007081237018        6.42710215978512
C           -2.28337728470454       -0.86402030255269        6.28390981378945
N           -1.07736276588107       -1.51128672899061        6.27455144096281
C            0.04548977914281       -0.83397340522877        6.40014990246045
C            1.34561505021273       -1.43128340071177        6.53003233146995
C            2.52781460391984       -0.71649507351474        6.63293952337407
C            2.42575405629354        0.72397868699576        6.38326015758082
C           -3.68823469987302        1.23149768323573        6.56847292538580
C           -4.66375238993508        0.37960076044175        6.74308972297779
C           -4.68982536998849       -1.00888133600758        6.74719639376444
C           -3.54538721076348       -1.57525646432794        6.36615192914398
O           -3.67084794597884        2.53366651902345        6.90723485540466
O           -3.57605958227968        2.02957255843120        4.18765789073168
C           -0.95733011045834        5.78786244891499        2.82638991804482
C           -5.95894666784306       -1.55172030692763        7.00880124496925
H            0.76543472575251        5.18848021328029        4.38950047791047
H           -2.79694270868641        3.58343656104299        2.74013782744010
H            3.25970457633898        1.27689084123139        5.93350278575171
H            1.34218224060746       -2.56316895630733        6.70062714468740
H           -3.39462298140495       -2.60866227024636        6.47293916114655
H           -5.56259213106093        0.79528339726432        7.19460238042951
O           -0.48262911253948        6.87909948592498        3.16435841098892
O           -1.09123317883597        5.35210337983477        1.50536763285823
C           -1.24996364269580        6.25791933546077        0.46711871088365
C            3.82403666914810       -1.56584928976675        6.77519869875813
O            4.23294600646064       -2.57232476620328        6.24427245370101
O            4.52254819110160       -0.58531167614144        7.19244069532504
C            5.81365644333942       -1.04134639485492        7.12628613701889
O           -6.93700022069855       -0.97894951887062        7.39445277452097
O           -6.23198799852429       -2.73600274839186        6.38312367179039
C           -7.42355457226032       -3.24148527262042        6.75444740670996
C           -4.76525822521112        3.21234705482204        6.62632526284986
C           -3.51298474544605        1.19994623110535        3.06962436855956
H           -8.21471364781738       -3.01318521340294        5.93634845892854
H           -7.85546150534120       -2.86210159659434        7.68603245952744
H           -7.57197635744509       -4.37808968064934        6.93371427377259
H            6.36304922935824       -1.60924007598722        7.96076282589909
H            6.56418332319155       -0.10807494656859        7.04134732939821
H            5.88148705987623       -1.39740066985228        5.99389645883656
H           -3.83386263985206        1.65432762833821        2.21273709990902
H           -4.29681037156073        0.41113652133884        3.21201731160488
H           -2.63525715160006        0.56651656177920        3.20723349937137
H           -4.85571982962268        3.29628598296734        5.63191205618039
H           -4.67942179225924        4.34159107631415        6.69482156408186
H           -5.67296101474352        2.61077772300330        6.99435850906120
H           -0.44731097040947        6.01432582906086       -0.37071514795877
H           -1.30006623576238        7.27675262130174        0.82313056312009
H           -2.28203747188013        6.27450276781680        0.15662223606502
116
 energy: -22.490879175059 gnorm: 0.632508441506 xtb: 6.6.1 (8d0f1dd)
C           -2.79452073414880        1.08727664646731       -1.00300603381601
C           -2.03353318309344        0.08801329396669       -0.55405061521212
C           -0.97547815159665        0.32985372408365        0.44411774007125
C           -0.44733068933351        1.69292830336378        0.32692855819074
C           -1.34266511769754        2.70304657790404       -0.22622502081568
C           -2.58274744457281        2.40072674865816       -0.95913015594095
C           -0.44912323293491       -0.43169896264346        1.52023438654936
C            0.81671879966911       -0.12087013151461        2.11395246586596
C            1.38098075778233        1.19695166146749        1.66575693658468
N            0.60026140031008        2.08167160947081        1.09922683599890
C           -1.22842620231399       -1.34133429787898        2.22784793756529
C           -0.46157996248824       -2.16430840220640        3.06683973547834
N            0.79218742202846       -2.14284876188464        3.17869984882071
C            1.49903689471508       -1.03732683218652        2.86609521632018
C            2.88141039851785       -0.82510314776152        3.02834100192039
C            3.36026395536026        0.50804143060036        2.88188777050640
C            2.74221845103593        1.50264127830451        2.16632659422164
C           -2.62609590350733       -1.83327719119574        1.99139215872078
C           -3.14807027041332       -3.03583681162404        2.49583091082210
C           -2.36474127539017       -3.73843187751504        3.41103035993129
C           -1.02753917940407       -3.32737463833211        3.67933521728602
O           -3.47508966801974       -0.96274638728919        1.52248689198522
O           -2.52028609512021       -1.24129191303991       -0.79920377232346
C           -3.05062676370794        3.42880913204214       -2.04185662004664
C           -2.83493120101913       -5.15228072642988        3.80881210552666
H           -1.19909425144019        3.70243546276985        0.11785435750592
H           -3.54904890493364        0.89004514367291       -1.83638642378913
H            3.31379759683737        2.34838916386305        1.73446816047360
H            3.09406885475610       -1.84785785185182        3.32057455966380
H           -0.39271204102400       -3.98396529619440        4.19072131864567
H           -4.05179549663653       -3.48037137944592        2.08052609113195
O           -3.16178218291343        4.50228578136299       -1.56846622932780
O           -3.25021820905030        3.05944852646203       -3.35954134647474
C           -3.67658004460778        3.97910475259268       -4.19392814482350
C            4.93288386707220        0.56087539101275        2.97368162539617
O            5.53569955828719       -0.22475198964188        3.71489752682724
O            5.50077754734287        1.12560604521015        1.72743246808898
C            6.93014927876256        1.16159198544582        1.85840585326974
O           -3.89738581259741       -5.53944849382812        4.02148978897408
O           -1.75449006616767       -6.12359028125633        3.59852369047991
C           -2.08284282557074       -7.48973509538285        3.55458103285547
C           -4.83684217694175       -1.28171146452705        1.18733501429040
C           -1.83800642875816       -1.60587044630835       -1.98387597442516
H           -1.69230199392968       -8.06826864560329        4.31686077280938
H           -1.64083303149530       -8.30446395922692        2.72327579271866
H           -3.13212307605576       -7.62755207405034        3.56460489508248
H            7.45785022303493        0.19597020732478        1.87129729155579
H            7.13149727987774        1.59960776022263        2.77944643379075
H            7.46180052263952        1.91074441994238        1.16568222313498
H           -1.90791862481407       -0.90985222941849       -2.94978455687914
H           -2.40643384977442       -2.50831538439072       -2.36247984607031
H           -0.87323269795875       -2.11855533557116       -1.88223346708785
H           -5.05215477461134       -2.36212790731460        0.97542446600742
H           -5.10473810151214       -0.60916802554634        0.35268048575820
H           -5.51884978608610       -0.97844566264469        2.12443041749470
H           -3.09685033059255        3.70862061581400       -5.09527915331090
H           -4.13694274766622        4.95354396970662       -3.71073806597971
H           -4.76637038658638        3.58730286750419       -4.57146948429795
C           -2.40843073374386        4.00650349743771        3.52581744457664
C           -2.63242071349364        2.86553599850650        4.35282012412282
C           -1.45352513022181        2.32520035150310        5.00732651292288
C           -0.14562431150157        2.83905103912770        4.66950995920315
C           -0.10837216187579        3.72233412808260        3.66286596990166
C           -1.19170834937699        4.54400573489973        3.19892285533381
C           -1.53420779763083        1.08657010931361        5.83779175482884
C           -0.28637140275523        0.40934511521199        5.98545961884153
C            0.96306802739704        1.11279086686629        5.78975152709135
N            0.96938670797371        2.35703599470967        5.37551894895753
C           -2.69943418841970        0.50716855297418        6.51239247913081
C           -2.58172921638219       -1.00453879641071        6.66959762655340
N           -1.31803523313223       -1.44222585222001        7.21157658021519
C           -0.27832939915851       -0.71972773702662        6.83614766830289
C            0.93329757472441       -1.17856835515724        7.39073558654386
C            2.02064202374318       -0.48287584610427        7.25184099980322
C            2.11651947091950        0.58811233491610        6.26042315702356
C           -3.91147590131940        1.13741134532586        6.75589070027638
C           -5.00939464772569        0.30952513446693        7.02100206874151
C           -4.86554222110619       -1.05784323282663        6.75710642531238
C           -3.73728207679465       -1.87134103633347        6.71588826999060
O           -3.94007444924778        2.40477300992476        7.07017255245390
O           -3.81527068006305        2.02945092795025        4.12415051604887
C           -1.09929634199429        5.49442562377370        2.08267933977542
C           -6.04782328491599       -2.05658025842405        6.91179468286260
H            0.79329649270693        4.00452276405440        3.15179953717072
H           -3.28329901153983        4.52914496064498        3.20558308176979
H            3.05005203191105        1.12826682271495        6.19199352266984
H            1.17333897335233       -2.16357044363625        7.73397426911364
H           -3.92644466608658       -2.88183096389259        6.82929593486564
H           -6.09357016827384        0.45355639269426        7.42439335230922
O           -0.50191719433728        4.97067542389274        1.05536461978172
O           -1.84299055083743        6.56498447091584        1.81299969887578
C           -1.71594528264953        6.80902328270354        0.49123539686670
C            3.41199546046679       -1.13320833873107        7.74145149188780
O            3.66520822190210       -2.33903825050825        7.83967752615401
O            4.31023728151895       -0.15572356847148        7.68817561079919
C            5.45887241878867       -0.80269461094814        7.28438768826941
O           -7.17757646290504       -1.60818556248820        7.10664031759954
O           -5.92861417866086       -3.38186256279887        6.94510378530522
C           -7.33084506772845       -3.95727298942757        7.04335916953331
C           -4.98910882535741        3.03320852933603        6.67587800820104
C           -3.67343750738291        1.07403423961553        3.06093734222052
H           -7.66735975553334       -3.76028910326914        5.99145418297667
H           -7.78465594662344       -3.52597857930385        7.88608659241527
H           -7.22017245046168       -5.01015555632516        7.25260074592500
H            5.30196058811807       -1.75744104884123        7.81152206645230
H            6.33360906154791       -0.45254052555030        7.82408894588588
H            5.74159663199938       -1.16969823198464        6.35262361326511
H           -3.04185953729486        1.38571991087150        2.18718587593689
H           -4.64081909841587        0.64242039925344        2.76521613832585
H           -3.32844312634258        0.18897854348268        3.50121584583658
H           -5.54322185842204        2.59145856162459        5.65824648819016
H           -4.77770681173789        4.13974058498914        6.66682644008577
H           -5.88382750952101        3.11413833544103        7.25307355271714
H           -1.97890154623442        7.87182436179142        0.53547458849535
H           -2.24769288931739        5.82137166293588        0.12569887108905
H           -0.68837891257116        6.99286580503607        0.21030077253703
116
 energy: -22.604314967211 gnorm: 0.557322009882 xtb: 6.6.1 (8d0f1dd)
C           -2.54384386911294        0.82994220927765       -0.87806362152725
C           -1.87418817597666       -0.26286493924525       -0.30713716888155
C           -0.84638937950635        0.16417635115911        0.64846286148755
C           -0.37457103877591        1.50127889179581        0.81201440680064
C           -1.08816345142818        2.45033627224403        0.10793736427819
C           -2.14845098250070        2.18779364256412       -0.72224566636136
C           -0.45270880772127       -0.71414610387967        1.61556023270665
C            0.89482978777500       -0.49026347591402        2.08836684939368
C            1.47539979106192        0.75235424074894        1.93174376693882
N            0.51574668242359        1.83593919663564        1.77271210835721
C           -0.92956016666218       -1.98718275160100        2.09736993858955
C            0.04215877918596       -2.84584980520768        2.68899681676546
N            1.39875483903295       -2.84526888483855        2.78435265284881
C            1.73107860280245       -1.52334156422178        2.66244909618467
C            3.03436801938566       -1.16703326489745        3.16667054432320
C            3.48290778680705        0.13749645374912        3.01786053455755
C            2.70686114774121        1.08143773253901        2.32084746526179
C           -2.36610462540280       -2.10808819879713        2.23711500373198
C           -2.92725760199479       -3.34350974272187        2.74704111662964
C           -2.05777231236125       -4.21787586487873        3.45202622987512
C           -0.59046709025022       -3.98675749424874        3.21996607878412
O           -3.42067698127001       -1.24259722228300        1.82259305468770
O           -2.22786366905583       -1.56157067106935       -0.68171700261082
C           -2.80822757219257        3.36328706355802       -1.45968703722346
C           -2.50689354337183       -5.57018291801078        3.90513567900353
H           -0.66556120444056        3.46325250564348       -0.08079891752386
H           -3.52651172781333        0.44971575510465       -1.44811912237944
H            3.08056452866634        2.11141112221444        2.26012510791911
H            3.75660379369495       -1.99076883986268        3.22974845489184
H            0.13349553109289       -4.59860274937883        3.63573127719303
H           -3.99301977604763       -3.60617017721805        2.77407762366989
O           -2.19499350822276        4.38879702661138       -1.67203158887810