116
 energy: -22.840415930917 gnorm: 0.400931437144 xtb: 6.6.1 (8d0f1dd)
C           -4.05195906136954       -0.79240051521835        0.14060395145479
C           -2.84603635118262       -1.42239199074662        0.30277091382554
C           -1.77950806288322       -0.76153596807308        1.11344602576935
C           -2.07871195877928        0.60343366349765        1.42132244585104
C           -3.34091054558018        1.25445608657327        1.24578518065391
C           -4.23156079003446        0.51595243794060        0.47502763874566
C           -0.58958027246068       -1.32875216834248        1.68833117755453
C            0.43276755517525       -0.44259994113523        2.02184360624514
C            0.11123735685492        0.98892849082832        2.12653751470931
N           -1.13162063221342        1.43405409458830        1.98349072701769
C           -0.26873135008774       -2.77736983486434        1.91117708090237
C            1.15873038558494       -3.00336292377081        1.75659389601520
N            2.15405516701042       -2.06892993900886        1.93102260487906
C            1.76165824891735       -0.89124875312393        2.30778903589122
C            2.77958516927415        0.03853859682191        2.64579874491113
C            2.46702910067479        1.37835071068945        2.81476899129355
C            1.19109737558575        1.83832719227994        2.53873276635302
C           -1.25172855057433       -3.86797894803276        2.05453871134240
C           -0.67445193595192       -5.13951784012620        1.98099588644783
C            0.73601122706697       -5.37031272795150        1.76034515736121
C            1.59149200732383       -4.33003103236717        1.63597749271726
O           -2.52716504921884       -3.69617449726707        2.35680860104390
O           -2.52494376495030       -2.61546392837532       -0.41074808348389
C           -5.64311931210237        1.23354307708825        0.41920284580766
C            1.19667526244896       -6.76192325581833        1.47553412028601
H           -3.55751356177835        2.28557943508471        1.50766313760544
H           -4.67120905190435       -1.31551470953014       -0.60522236431996
H            1.13166273817207        2.91006197795871        2.60673316270165
H            3.80837936806917       -0.16773676180979        2.79637631088381
H            2.46478912165381       -4.62520993236299        1.07337370247945
H           -1.24457280756994       -6.02531428716375        1.97090684121557
O           -6.64177425450483        0.57322450811327        0.06308644264636
O           -5.75975992400932        2.50040369877563        0.76410237338490
C           -7.10897281141489        2.98096030830520        0.78647678155348
C            3.50255190716891        2.27463536151051        3.29238293562386
O            3.34615658813727        3.45329156961571        3.24060429483936
O            4.65378044635090        1.75770212544752        3.81052128960238
C            5.33109277967389        2.71948816870037        4.48511198599197
O            0.49418684263007       -7.64684293974553        1.91822134919185
O            2.24815277007282       -6.91184118848368        0.62880062268118
C            2.36372162125183       -8.24504762175923        0.62893351479637
C           -3.14676220834147       -4.94641396905305        2.78415006230806
C           -3.58519492383730       -3.40799919427230       -0.64926118051048
H            1.42366489396700       -8.81524897729178        0.53080339485896
H            2.71980239099303       -8.56344510235671        1.53179868341065
H            3.07407059584138       -8.60463903078769       -0.16931473414368
H            6.02861838641342        3.33180196900953        3.76267232243685
H            5.93847262935335        2.19475955870666        5.21741007664174
H            4.68032324606889        3.28656865937741        5.17598459487973
H           -4.59074725804174       -2.94367104800541       -0.93687097933707
H           -3.45346551737755       -4.16224683673454        0.20187558073341
H           -3.28894852449150       -3.92287892189466       -1.55680334864151
H           -2.63403991503759       -5.72445568590017        3.44082347288225
H           -3.51007350667904       -5.40365963567134        1.83491698745846
H           -4.05752942875982       -4.68296015180626        3.31091678452176
H           -7.21453918513795        3.19738099849523        1.84507797292210
H           -8.05011189879310        2.43794888244638        0.44930248286207
H           -7.03820289199964        3.95135114619873        0.30617247769514
C           -1.36358619774737        5.60450795827813        4.77857196322702
C           -1.72162632726476        4.34849338714412        4.29053407065600
C           -1.04608902073412        3.18695966916375        4.93992564965897
C            0.16600053574890        3.29301743640542        5.59312552553916
C            0.57781579789208        4.59028047599273        6.01597984040803
C           -0.25575818506954        5.71450914034156        5.71633769548906
C           -1.54944486796179        1.87278965977437        4.90461132506806
C           -0.66583478681189        0.81743226176156        5.10768004618637
C            0.67543428233353        1.13482653992852        5.44115184870128
N            1.00862512857930        2.32562417470920        5.86029669580402
C           -2.99444457142179        1.54857288124424        5.00089128758041
C           -3.32525662461463        0.25094540209242        4.57013647134880
N           -2.38416814744696       -0.75601975534870        4.56029178040118
C           -1.07921393711927       -0.53641013149569        4.80710282180120
C           -0.21146233076177       -1.61235767256771        5.00364417569513
C            1.08706105677990       -1.35473534888820        5.54296116830363
C            1.48147652057958       -0.01773452797943        5.55688278532035
C           -4.12444917308466        2.38603118176710        5.38096078036247
C           -5.40638805600595        2.06124720138861        4.89198526639344
C           -5.69487017486303        0.85902935852589        4.16497304536721
C           -4.63215406623609       -0.01938887085196        4.07717738595179
O           -3.80165725147564        3.25674304601039        6.47542822606412
O           -2.80155903100862        4.07500021053972        3.37668769474527
C            0.12462503322401        6.99074543686641        6.38765481916924
C           -6.97455426739133        0.36970618899903        3.73233960082204
H            1.54331509914713        4.66636712728603        6.47237689741643
H           -2.02337389265514        6.50614358331670        4.53435330428534
H            2.53739231717947        0.15692291917315        5.77214065008407
H           -0.37430834718161       -2.65978379468369        4.77871863511441
H           -4.74750598986897       -1.01604780115234        3.67150745499873
H           -6.29113957637754        2.70574119855695        5.08912179886651
O           -0.32606962452412        7.99978267039741        5.88835334843159
O            0.90357909686292        6.91727284165995        7.54748497450628
C            1.18295175645269        8.18882258778553        7.85760368612327
C            2.03408403472166       -2.52458116444232        5.43755092163753
O            1.71086680107904       -3.50058213416220        4.76551920792224
O            3.29437390385362       -2.35674559610265        6.02034333404605
C            4.19365895788604       -3.31722136100189        5.38917399434524
O           -7.95616735439841        1.09838792280638        3.84774874292364
O           -7.03460740631526       -0.80573545357405        3.08142441799926
C           -8.21574615489163       -0.91690158027655        2.29590397744286
C           -2.76466661372556        2.92275688943712        7.33903718669171
C           -2.76263377944004        4.86423230786801        2.14796065903632
H           -9.05549989757957       -1.34590816487382        3.01020876424707
H           -8.04051811498665       -1.63809395124593        1.51293352572635
H           -8.46036316789959        0.06870083745035        2.03313120787958
H            5.14398899893167       -3.19357024132839        5.92567563939228
H            4.12577004474353       -3.27048304071612        4.31887265894127
H            3.98529646167531       -4.43490584589057        5.62732409451693
H           -3.80029980375958        5.23612799999018        2.05444677237225
H           -2.55967913308679        4.32737785814118        1.22416341155476
H           -2.13345877493855        5.72583873987298        2.11807557633718
H           -2.68407937841102        1.81784968474982        7.24179335158829
H           -3.00027220033107        3.27208610228031        8.29813030682707
H           -1.75087744982906        3.28721868899015        6.96323571277428
H            2.18604497863697        8.21546773572248        8.44349581616103
H            0.40193464260172        8.55267176787288        8.42605051512339
H            1.39999283539351        8.79559723322381        7.00500231947257
116
 energy: -22.768915118557 gnorm: 0.456381776769 xtb: 6.6.1 (8d0f1dd)
C           -4.31111391710583       -0.95292343984117       -0.34011807869380
C           -2.93427874076270       -1.40845215173410       -0.19062260835606
C           -2.11598331268312       -0.71334328115925        0.78107632815599
C           -2.54107290165354        0.42251573502193        1.31711754049468
C           -3.84218476967293        0.90344259999276        1.13424401001076
C           -4.71838199164275        0.26376882604306        0.33571358678907
C           -0.85254891054391       -1.21358312850361        1.08810646753428
C            0.07948140387784       -0.31829193016403        1.47025856034871
C           -0.35325519779685        0.98904580597908        1.84715651908174
N           -1.67789330285412        1.26622775910311        1.88266448694213
C           -0.47179372194027       -2.61279765056288        1.15169113420596
C            0.86629651052853       -2.96065110700506        1.19463206855069
N            1.88433149203929       -1.97577796821211        1.12461264143389
C            1.44016517237446       -0.66329549697776        1.39097573753941
C            2.34608651364469        0.24194466600592        1.88182925361217
C            1.88164900270021        1.44159030370720        2.46013404577938
C            0.59666276119389        1.87500522327091        2.25815879195193
C           -1.48547325980912       -3.63201316861872        1.18523310661498
C           -1.10484985945180       -4.96461451681158        1.22342740836477
C            0.15177223565003       -5.28703693546108        1.28532910901533
C            1.23948983060337       -4.36017179946161        1.14561326415946
O           -2.84703976660939       -3.45039354499715        1.68061871748970
O           -2.38216056489350       -2.24213837026754       -1.18884184873776
C           -6.09781739306433        0.64237650779995        0.35490088093365
C            0.43128209730719       -6.70969176110065        1.32327562445147
H           -4.10159899220862        1.79846048434915        1.59420643462467
H           -4.97626972424321       -1.70684109714295       -0.69114988162764
H            0.28159632390612        2.73035381150400        2.81133929202418
H            3.39937417075771       -0.15574849902473        1.93304195904157
H            2.35318866010982       -4.64862088123130        1.17901885343422
H           -1.87857715055432       -5.66960867600906        1.39206679578495
O           -6.92885985770959       -0.12608758739280        0.08830325497659
O           -6.29181013113418        1.95508226556049        0.69474381230888
C           -7.61241048550188        2.32715661212347        0.46216329996384
C            2.80749763385095        2.71047901098086        2.75835355678015
O            2.36928141949034        3.65907599070678        3.40256264548578
O            4.09214984470126        2.75697531927580        2.24141672122589
C            4.54337096823891        4.02441786094615        2.42813136551364
O           -0.48261008921748       -7.48599516197057        1.06398214075333
O            1.77108547158520       -7.05009311838685        1.69432118052175
C            1.99350581151917       -8.48484795971404        1.62497604598285
C           -2.77574679394383       -3.18698472264435        3.07686589227732
C           -1.14771380323414       -1.78184040438563       -1.65248947284802
H            1.57570427697477       -8.79935122985727        2.55033817110952
H            2.96716439647388       -8.80938254869219        1.44745973857241
H            1.34310412120956       -9.16225171007795        0.96572968801090
H            3.78169954900134        4.63260983229603        2.94966120479660
H            4.49891312976430        4.42558100870859        1.39121373019284
H            5.47418572813635        4.21726924810755        3.04841874824672
H           -0.45321749807716       -2.66909698469104       -1.35496589107253
H           -0.80070106423497       -0.82359162341246       -1.30398142736581
H           -1.20972162036397       -1.84455417205005       -2.76902694714726
H           -3.82612429856982       -2.98147745845557        3.40521941398897
H           -2.17307972057821       -2.22285729301752        3.20095806219506
H           -2.30882278035795       -3.99739952221678        3.61570838689049
H           -8.41309399884081        1.62906709926804       -0.06083636964544
H           -7.59233628231652        3.37410009807483       -0.01949184568470
H           -8.10974965509698        2.65541390724924        1.32969142345711
C           -0.49354758901332        5.35955876009197        5.23120896752238
C           -1.27987688832429        4.19662983332285        5.00727546575351
C           -0.80513148475862        2.95941966003957        5.61895524729217
C            0.42921749135183        3.04487139222683        6.28919520856001
C            0.77624740871394        4.28829832420617        6.79958773663789
C            0.44985514173003        5.45073273564276        6.19044977555460
C           -1.45274114811357        1.69119544909098        5.41311737489189
C           -0.54523123739728        0.65982078716606        5.70823863738852
C            0.83072529514588        0.84283891581237        6.26872401385803
N            1.24248041552906        2.00850434521793        6.61441697746332
C           -2.82890357468168        1.35112686487621        5.12695428795802
C           -2.92785690482971        0.05377689673535        4.58520105925680
N           -2.00651956851706       -0.89040422594398        4.73535443290472
C           -0.91014087602336       -0.65525845481353        5.44899212594759
C           -0.05794484619363       -1.74353426630576        5.78644104662612
C            1.20344231101255       -1.47372504308825        6.25466016113302
C            1.77138792587938       -0.21939033214087        6.54633644405134
C           -3.97430256281598        2.27985115897414        5.22675476697310
C           -5.14033154236902        1.90375295022461        4.52456501627520
C           -5.20260854778466        0.61329669700816        4.00019395058677
C           -4.21552836686275       -0.25046725511241        4.09754018816490
O           -3.81408847805486        3.49747822105750        5.88442823137428
O           -2.42126683608152        4.31115643969285        4.26067313049365
C            1.10966108701277        6.72747841106937        6.54951878645625
C           -6.46074182198932       -0.20266725292460        3.85517832418031
H            1.56508347896683        4.20502139526773        7.39544938105074
H           -0.86441975039255        6.31307966950936        4.86670427581911
H            2.75101062294650       -0.03280830717091        6.96556847392786
H           -0.42229281941958       -2.76525765708070        5.89344427658282
H           -4.35793806798090       -1.25287733357125        3.72264060143840
H           -5.98989594761793        2.60852254717135        4.46033690034196
O            0.97060632073713        7.69628929528765        5.83979982368529
O            1.78054411407940        6.81440730663817        7.75405368842829
C            2.60445320910594        8.07580172826470        7.94502491152664
C            1.95545535567905       -2.67688046578519        6.77967673409695
O            1.34409781393669       -3.62014913136476        7.31540134312604
O            3.30000051680078       -2.57091066356138        6.42141967664005
C            3.97937581267362       -3.78019438986011        6.74062095842385
O           -7.62392901282949        0.07815778239570        4.11137447053113
O           -6.17843359002329       -1.53851044068547        3.36683869209884
C           -7.39793998552248       -2.01861319596038        3.11699711359521
C           -4.59676402337761        4.41754327962154        5.37031417049762
C           -2.33636440594286        4.62507728668683        2.91818410212136
H           -7.83888911779923       -1.35112544089044        2.44162010407442
H           -7.85317140760213       -2.17366444138074        4.14320731070859
H           -7.30628007000502       -3.03869357678326        2.68786944337576
H            4.58860580832755       -3.52826415988893        7.67094412188458
H            4.54487421048440       -4.16020487314221        5.87743793856238
H            3.22660081317657       -4.56824886502243        7.16222622898464
H           -3.16766957224413        5.37858249040006        2.89441677843624
H           -2.53719701498792        3.70295221216426        2.22696279994178
H           -1.34560844029291        5.14686437087943        2.67309766989591
H           -5.62152559692458        4.32357418119799        5.79497996056720
H           -4.70995659620439        4.22970227764539        4.27945928751501
H           -4.18778790251383        5.33061628797852        5.41674184918000
H            2.90900538749973        8.16043046459350        8.94594415699440
H            1.83022748004189        8.80764253226288        7.60383964445551
H            3.40530755035511        8.03226357162869        7.24231295920571
116
 energy: -22.774813025140 gnorm: 0.508733293602 xtb: 6.6.1 (8d0f1dd)
C           -4.31536868272189       -1.20184544303136       -0.40130333037431
C           -3.03585995809571       -1.56912648433357       -0.13130408695937
C           -2.29065059709846       -0.85628420473744        0.86956938434033
C           -2.76524191799404        0.41510164399533        1.24180943405935
C           -4.02208066427015        0.88740124446885        0.79165651313159
C           -4.88065440481477       -0.00577691163551        0.10353842212009
C           -1.07163203734395       -1.44841522739696        1.40065714275146
C           -0.30613677333174       -0.49965740673504        2.13933344099040
C           -0.71844790765620        0.85533479704783        2.15760104436960
N           -1.86447348990897        1.33389019446514        1.77782813566388
C           -0.56795216465457       -2.82490940305138        1.43340397578422
C            0.72616184924230       -2.98455691630119        1.86971174576407
N            1.46158247336949       -1.95149621783261        2.37472513672299
C            0.95203011115200       -0.75598851690182        2.66446876036164
C            1.77930941387220        0.25865696779311        3.08165792481506
C            1.45052796019635        1.57156738245175        3.03773794571430
C            0.09083884405878        1.92759874244711        2.71136461612959
C           -1.39950288982421       -4.01656049394724        1.31124838371746
C           -0.80278744297479       -5.16631081441180        0.95849533221495
C            0.63364864221233       -5.27864461768652        1.14984637161631
C            1.13858516666984       -4.30451278072316        1.93725478055834
O           -2.79420848249283       -4.06048288089382        1.40478155949811
O           -2.49011254157635       -2.75098823636767       -0.72057737497374
C           -6.23669140858230        0.55092682301448       -0.13191000058515
C            1.24576876995482       -6.52076014871626        0.78649307875457
H           -4.40975701516157        1.86994446093046        1.06561694630108
H           -5.01719402088278       -1.77029130437964       -1.02631931695606
H           -0.23442622223527        2.91343153262112        2.46454565407425
H            2.86528456464531        0.10108431908962        3.43778242343070
H            2.09188565741784       -4.45068044237075        2.43639132415037
H           -1.37394325451964       -6.02860636308219        0.67591363617913
O           -7.10589064867075       -0.25299358253661       -0.59828425260348
O           -6.36450497681264        1.87228822112391        0.21876386044575
C           -7.72145556441640        2.14304226389478       -0.05790207168108
C            2.47976481925047        2.58340130783070        3.04002133459508
O            2.13425024728800        3.71225158401514        3.27228975773178
O            3.80757695285463        2.30908245594807        2.88775746129468
C            4.72226304872045        3.48356655334330        3.07642700723767
O            0.64876925162161       -7.35367296931542        0.04474574369134
O            2.53608344046556       -6.55471004355600        1.19077838416123
C            3.26003335165493       -7.61010778064027        0.70812631332173
C           -3.28076987765717       -3.31803635548082        2.46938807081542
C           -1.38199062089491       -2.47452848161228       -1.60148099098724
H            2.99291646544871       -8.61235811844210        1.16266685096153
H            4.20247443852643       -7.42472028150223        0.75154369793582
H            2.96509147521629       -7.87108102970565       -0.33236712263222
H            5.56247375937391        3.38383291433983        2.37994307884335
H            4.85840696947892        3.47416164439230        4.12402364181786
H            4.19521005179610        4.37657003375439        2.70162353239023
H           -0.55540196670806       -3.05726338356750       -1.32218986626345
H           -1.13914128221853       -1.36116813205982       -1.79114573979715
H           -1.70164336141379       -2.81748223891226       -2.59131420668730
H           -3.63362389196376       -2.34355108958507        2.13378206008536
H           -2.59605276125744       -3.05982726118035        3.24484795230231
H           -4.12558219145246       -3.95398685097461        2.98481177466880
H           -7.75581266975228        3.26675990239875        0.03890688813706
H           -8.29986806990283        1.93526904080152        0.88994951742043
H           -7.95996108912451        1.56214233396390       -0.91234087377786
C           -0.19972881994496        5.21359052506381        4.69155711292330
C           -0.81005119971286        4.01581109074525        4.55999562344741
C           -0.62240545411340        2.92015480210953        5.43000447738170
C            0.43373497294192        2.97758802249784        6.28694466131948
C            1.11153809504687        4.17467127628482        6.53095087799226
C            0.77700524264272        5.32654032910262        5.69695974132852
C           -1.34090444512409        1.71040756724418        5.44345618652132
C           -0.61655999478448        0.52513034725369        5.77918062165730
C            0.65155922262119        0.73839907505754        6.45894573522936
N            0.91734327380270        1.94623923644558        6.98073946248584
C           -2.64365524560265        1.46755348285644        5.03864051971372
C           -2.97994255148458        0.23839874242501        4.53085751494144
N           -2.20307911932840       -0.88563250904376        4.67540587926047
C           -1.00222953180731       -0.77697048602980        5.33544634320655
C           -0.22863260279094       -1.83517099847353        5.82991343248734
C            1.11212850972646       -1.66044569998906        6.28271425947784
C            1.49365283378058       -0.39058448821349        6.69328118663497
C           -3.70523446652674        2.45446097105093        5.10604434728374
C           -4.93958278304052        2.23958298351222        4.62132034548347
C           -5.20463465901611        0.98275156435719        4.16892144869629
C           -4.24236447780891       -0.01359338058898        4.13149001018629
O           -3.40077467830332        3.66088175180196        5.81057145930896
O           -1.78427409613829        3.92505075786344        3.51711155057055
C            1.11724254139466        6.79519825143882        6.04679221797622
C           -6.60006047489934        0.52221801235016        3.85601932525867
H            1.45558156372189        4.47958480434897        7.44466905356691
H           -0.63005082008447        6.12544376652060        4.31623666129996
H            2.45019607160668       -0.26267149824478        7.06236977365505
H           -0.45369315658443       -2.70297666082617        5.26115971629800
H           -4.59719405970689       -1.03494593809397        3.86459555605044
H           -5.65664087658787        2.99271979197005        4.49644121973364
O            0.24684068482123        7.63548757113553        6.34968587742630
O            2.40014168788347        7.09856864116640        6.00532842843422
C            2.67320344116938        8.52002485355579        6.36907118745911
C            1.89723923518994       -2.80949302352249        6.59806905683842
O            1.88084801998679       -3.81291067644068        5.84843684802049
O            2.72550723906940       -2.76243356498889        7.73826431986337
C            3.80424878763627       -3.66038175016222        7.70758839093924
O           -7.43417280674288        1.29532030583094        3.53095812522169
O           -7.00205268904953       -0.79746059389977        3.92379117256904
C           -8.34354565037044       -0.90083019218753        3.45533206260411
C           -3.25830014068475        3.23175334480427        7.19039081973471
C           -2.49324475969477        5.03163989706185        3.22169098278862
H           -8.44161167139489       -1.98159572591700        3.07533691057136
H           -8.36494249365788       -0.26273465821966        2.63920700146036
H           -9.18387966846111       -0.54593843982761        4.03889950435110
H            4.64754527735056       -3.05594809189965        7.24986354850456
H            3.53252856480666       -4.52087843278334        7.11952702229645
H            3.92993805019176       -3.93196458418013        8.68595945250022
H           -3.20018649699689        5.37792793612596        3.97859913188084
H           -3.14563224105010        4.86602471081746        2.31953534258660
H           -1.56448491118332        5.66788296848372        2.91325984620777
H           -3.58002708096057        2.18709328138674        7.29196619440374
H           -3.76392784401617        3.94099513131560        7.86605318142874
H           -2.23754017364575        3.25490114997554        7.47161938989249
H            3.64930680402849        8.52144596747203        6.56104249314315
H            2.01844942124647        8.72074145277387        7.14927259582341
H            2.15506070479755        9.03759181774736        5.54732113836865
116
 energy: -22.775102848599 gnorm: 0.438288394642 xtb: 6.6.1 (8d0f1dd)
C           -4.25510908700842       -1.37878565642377       -0.06031283367541
C           -3.00006505958512       -1.85606771553612        0.08044684608413
C           -2.17211046641745       -1.14551470107832        1.00407317547291
C           -2.43944796657718        0.26480050328182        1.18290000866989
C           -3.72372573428663        0.77340619218627        0.76942532418190
C           -4.69589864300752       -0.07518578369328        0.18645359118165
C           -0.89426403546308       -1.55966855561053        1.35313377375099
C            0.04673483864940       -0.62306240822034        1.79054433486324
C           -0.48595456613834        0.79130733123819        2.07592735189901
N           -1.71747294438076        1.14544079805860        1.85507532415161
C           -0.44000227213591       -2.94783573030373        1.61276351017057
C            1.00989421352658       -3.16598901890910        1.66073029925319
N            1.99642875865793       -2.16849516607984        1.75860422959288
C            1.45887610330544       -0.96868412663649        2.01678916177861
C            2.13797720970802       -0.05430647310464        2.77994625328698
C            1.74074309273179        1.28639942686452        2.92600358604616
C            0.44297123336002        1.68742921571974        2.65364959444102
C           -1.28063631332376       -4.07554130021498        1.74296339636554
C           -0.59055365982682       -5.27651878818351        1.39768297631791
C            0.79009557414464       -5.48399814847090        1.17938189218761
C            1.57284588564636       -4.42271398493350        1.57690322316741
O           -2.51342603607174       -4.29201417192180        2.29534705940122
O           -2.52484969882316       -3.09674003624794       -0.27518303435764
C           -6.09834530818528        0.24751510681816       -0.25273287488466
C            1.37580331885787       -6.91066543768433        0.97006984210849
H           -3.84778521370629        1.81762018084824        0.60838191341458
H           -4.97422828757943       -2.04363809068665       -0.50146209138734
H           -0.02368970169682        2.50268395768233        3.22611372616494
H            3.11315892581251       -0.37619843824087        3.13955892903133
H            2.68707202760912       -4.55543666193444        1.53100373963179
H           -1.22218837770211       -6.10687737672963        1.50928339444457
O           -6.94926848090000       -0.54903638882064       -0.62433491873596