116
 energy: -22.928061455056 gnorm: 0.329736929581 xtb: 6.6.1 (8d0f1dd)
C           -3.31122850772930        0.79849766164622       -0.92477639677520
C           -2.44380812530352       -0.12270372891954       -0.27661132624697
C           -1.41337090092821        0.39579727573559        0.56335275196199
C           -0.89266158675590        1.65801491088749        0.27377586709581
C           -1.72665675402493        2.51431363229076       -0.49448366572522
C           -2.95444148494349        2.13954154133227       -1.01494489940871
C           -0.74098268209890       -0.43411532818871        1.49825021926784
C            0.56872586496315        0.03782116815119        1.86248088067890
C            1.03782416582094        1.29402317993033        1.50887470833621
N            0.31238977034758        2.07067427098208        0.65193736800696
C           -1.29695700510141       -1.39996043042223        2.41574187746061
C           -0.38243517664656       -2.18060797534842        3.13232615520648
N            0.91308504082021       -1.90366887689689        3.30325166013478
C            1.37712470144904       -0.74872102533751        2.81811050966982
C            2.52149331701875       -0.17739833758153        3.39379298866852
C            2.95849061756259        1.02681208890480        2.95105897606587
C            2.24288949469137        1.78498308775960        2.03503020483770
C           -2.74860936222260       -1.74497937691422        2.38401158947411
C           -3.09416315450955       -2.91614440870436        3.00571134491758
C           -2.16786021984049       -3.77788778654213        3.63251872101904
C           -0.85708937311598       -3.40495313382985        3.68547234358092
O           -3.71994433332149       -0.94984598373544        1.67726658385724
O           -2.55702603277562       -1.47241711578389       -0.57241635275616
C           -3.84297843593025        3.13357444054366       -1.60938954875544
C           -2.68769581069131       -5.03867041417370        4.30484659386931
H           -1.39666850744143        3.51251503834900       -0.76806311868865
H           -4.27662633836220        0.55105838579656       -1.33106614114542
H            2.66329581305412        2.73912661909249        1.72562431984580
H            3.05775395548473       -0.69369546277216        4.16536137542516
H           -0.24710966264510       -4.12034095424229        4.22946223699121
H           -4.11477991332403       -3.04712728052358        3.03244694615357
O           -4.21824883374556        4.03433712717988       -0.87713382485991
O           -4.44510595673734        2.90643496899600       -2.81853501752979
C           -5.44216520282800        3.83300025693726       -3.02488532025093
C            4.23586651889298        1.50004220933226        3.59165660008449
O            5.05927614697201        0.66079890002952        3.91714215179376
O            4.47001334453535        2.86385149488593        3.72605651435371
C            5.79457498613219        3.08584475587818        4.15829123132174
O           -3.82227255313510       -5.27347675879771        4.16636005494405
O           -1.85023202017753       -5.79767454267276        5.06656077253571
C           -2.55119635829503       -6.86252441382958        5.62930343183426
C           -5.07197156564436       -1.42399175670916        1.58830531863830
C           -1.33089900128490       -2.23622472573986       -0.99264499351172
H           -2.54510546830388       -7.76426885143998        4.99136022291012
H           -3.57194749219491       -6.44405511486021        5.74196173723541
H           -2.09133598235598       -7.02043774843818        6.64022264233588
H            5.72707967266424        3.46798026205549        5.10135971236643
H            6.34060091246885        3.78468702308830        3.50069950143490
H            6.17933064298187        2.03010500085905        4.19342358084693
H           -0.91862729772622       -2.57650129080332       -0.01361370304871
H           -0.49769766914251       -1.60651221708571       -1.34094446550576
H           -1.52632419730509       -2.94569707152159       -1.75361447637286
H           -5.11788846557077       -2.41810833635233        1.17520213188926
H           -5.67929807973498       -0.69619639428435        1.04301666067831
H           -5.57598832326623       -1.42383358739762        2.57928294206544
H           -6.13050215934830        3.76035386975488       -2.23272855695873
H           -5.86615610071888        3.45938329385866       -4.02668959924245
H           -5.13479557532099        4.87790991548477       -2.98314551356402
C           -1.38192942069774        3.73616555005018        2.91232598411686
C           -1.84821468128685        2.59982427735607        3.49755545445181
C           -1.05946531454833        2.05730632010638        4.60922730982276
C            0.19893954712228        2.69376791964407        4.86302140881997
C            0.50425395911860        3.94630308659851        4.28768785650746
C           -0.26031777722226        4.46998310053134        3.25072669343212
C           -1.20488993561782        0.74454293276906        5.14851520323437
C           -0.06287609782692        0.02744069315890        5.60930570802864
C            1.19208754369866        0.71421540266195        5.78882868583885
N            1.19428660993148        2.06344359410476        5.62744624321596
C           -2.41361422770794        0.07928500213936        5.25249410304426
C           -2.45851584031083       -1.32662100968547        5.60237876023992
N           -1.29466212405906       -1.98318595734370        5.89916817085159
C           -0.14475655767527       -1.32117560077092        5.98824682881008
C            0.97209270935794       -1.98958449505532        6.53157704134458
C            2.21982707914082       -1.36973967291181        6.68703967237737
C            2.30561929262884       -0.09745313075593        6.26436900324455
C           -3.73018485967715        0.71367583494582        5.25810242262992
C           -4.89964478833448       -0.06184623426677        5.21204641615509
C           -4.82617965800088       -1.39228978090841        5.46901303780036
C           -3.67144193418464       -1.98914944386360        5.67265433266067
O           -3.75568638935321        2.07705011038914        5.52067969627343
O           -2.94192434743730        1.91263938797883        3.01658762327703
C            0.21273512614467        5.50086066357994        2.34765104514621
C           -6.06660304520411       -2.17604633098929        5.80641622556876
H            1.41756699010566        4.38133362238595        4.66974005703471
H           -1.82880610647429        4.11982501512100        2.06992133318584
H            3.26888037378556        0.32655662585251        6.31721410015598
H            0.87146188387207       -3.08471526305024        6.57830423410869
H           -3.67716811065157       -3.05999292755990        5.83019634570050
H           -5.77379677507622        0.43595144608221        4.71017130754348
O            1.34459852619901        5.82615848916894        2.44941456579099
O           -0.74718748219123        6.07961784856304        1.59848183464284
C           -0.21473095568964        7.24015934882472        1.05753806029483
C            3.53228080814219       -2.00967610361154        7.02506769044485
O            3.64093082622715       -3.14437803815732        7.50071391725347
O            4.56565258381079       -1.22937033368332        6.69086985080897
C            5.72579357310716       -1.80692399125161        7.22246151275881
O           -7.04801223588612       -1.95726935745904        5.14194115322235
O           -6.01514389321278       -2.93743591896022        6.94765316328794
C           -7.21292732384718       -3.62681918543340        7.15115816329978
C           -4.95459780685163        2.65960679932188        5.86868674392943
C           -3.68284113682406        2.59129188358641        2.05479246020704
H           -7.43119628931628       -4.22607794725959        6.20622607140901
H           -8.06548455146707       -2.91765848248592        7.29781126410398
H           -7.07314693247270       -4.33087306029711        7.91223421050944
H            6.57332189837178       -1.29353136199234        6.78341268688262
H            5.74663761932316       -2.84282155125561        6.88089468184451
H            5.69426191474290       -1.72781984964892        8.29460302186842
H           -4.10481209541493        3.44288266176275        2.60483747673152
H           -4.49244774344916        1.87419893016926        1.82433103764650
H           -3.18901540870812        2.85154642679373        1.06781919454921
H           -5.55414326821421        2.76698137191684        4.93950725322359
H           -4.78658370641210        3.62090640967288        6.25983200635257
H           -5.43485580473958        1.97242995129449        6.65265772412460
H            0.89164886030839        7.38838561720231        1.13776105146914
H           -0.62894889903848        8.04195665205089        1.64837664327952
H           -0.59282546386754        7.45699159724320        0.03719083132488
116
 energy: -22.468856670533 gnorm: 0.647551528675 xtb: 6.6.1 (8d0f1dd)
C           -2.60473926110253       -0.00599330384985       -2.19974375375665
C           -2.19145212631550       -0.66561096918105       -1.02748880601711
C           -1.94061485430969        0.22709019907182        0.02990638952833
C           -1.35818896037230        1.55796734717210       -0.21498531417822
C           -1.90259703250551        2.12163788311846       -1.37381398192174
C           -2.58983441585999        1.39373666809664       -2.32523711481273
C           -1.48787181027554       -0.21755084101894        1.32142794754186
C           -0.34629807743789        0.39812133106073        1.74106543370819
C            0.15706797218593        1.66593077839421        1.39289304617427
N           -0.44745163316242        2.25098507987322        0.41018112475274
C           -1.79722469554458       -1.49345726829920        1.91791787927465
C           -0.85136133680943       -2.13703298183539        2.68515499063698
N            0.43185353340215       -1.56919954735227        2.90291216805776
C            0.40530123663752       -0.24551477416683        2.76769886020166
C            1.48570639392332        0.38350370811314        3.37813961677217
C            1.79411677605045        1.66642079595950        3.13469646028157
C            1.23252711283889        2.36403139903169        2.02228464946224
C           -3.12250449715179       -1.94201300792704        2.07348949265110
C           -3.44554498479083       -2.92828942940238        2.97469921221764
C           -2.42401848355182       -3.67895455500714        3.44505022753287
C           -1.06943358742011       -3.25995615605917        3.34372905183845
O           -4.18351967755503       -1.12757363072977        1.52033725325482
O           -1.79597484359641       -2.00692625137250       -1.07126488609162
C           -3.01358389743992        2.05061964591320       -3.50926711674945
C           -2.80200146741218       -4.94743455602042        4.08755939900135
H           -1.15964934445726        2.90115242016442       -1.77771187375117
H           -2.98874072812412       -0.50582758546806       -2.93669988019055
H            1.49045211325489        3.24215214045149        1.49768458019224
H            1.73860577180009       -0.19185568473168        4.17772815621912
H           -0.40049463965587       -3.54661711767400        4.14301705961528
H           -4.42282280017896       -3.14746592812095        3.07960024527429
O           -2.84309334556563        3.24524361937394       -3.48923697261350
O           -3.48159476216233        1.45311424127612       -4.60412456160616
C           -3.36078149540775        2.37178002103543       -5.79216033017450
C            3.16574273853005        2.25182318630441        3.75031977619340
O            3.87311494837203        1.45758834366616        4.30041029171674
O            3.68435724871797        3.51137437877363        3.52259677786263
C            4.95852947992560        3.66882319883676        3.45621327134804
O           -3.25397901160885       -6.02116838920147        3.68474023279264
O           -2.00759180363866       -5.13681245210114        5.14042832326907
C           -2.37517664017152       -6.21381906890212        6.09389418684299
C           -5.15714199524716       -0.76283732761570        2.40073207066746
C           -1.51164004292854       -2.54937803621057       -2.33827094182087
H           -3.38689750577857       -6.65233686173058        6.37902672437249
H           -1.66350677775107       -6.17766189846107        6.96337121484766
H           -2.24430005759780       -7.04325838714736        5.40065258245696
H            5.68318394575388        2.56665484559103        3.08617112767974
H            5.59659131538002        3.62753649176980        4.36715931271693
H            5.12762957350362        4.30790160703090        2.69666353423471
H           -0.73769226006371       -2.00247590618118       -2.67679482030746
H           -2.51379576222060       -2.55855677207395       -2.88861042010889
H           -1.27665384357980       -3.51906141774979       -1.89800279186820
H           -5.66684223063339        0.31721388466564        2.25149008782086
H           -4.51273397556520       -0.41970390443145        3.31583011537775
H           -5.80164036696133       -1.68216880789773        2.56288719761680
H           -2.28605062156881        2.36493873566655       -6.02346820810288
H           -3.84505484617908        3.37273106652743       -5.42047317484719
H           -3.68167551354794        2.24820591436839       -6.86065077248026
C           -1.63833604699642        4.10053183422947        4.63248242337602
C           -2.05902139363439        2.97399240046365        5.26111422670474
C           -0.92933072821231        2.37583955540044        6.03415307755650
C            0.38144685019551        2.90067388224968        6.08726561421284
C            0.76611352694273        4.03363070126434        5.18712442393928
C           -0.24780443665311        4.54083351667686        4.38627162416285
C           -1.16525402803669        0.92615956825923        6.35275904279240
C            0.05478456961978        0.14997507670604        6.27284742625282
C            1.33611515203015        0.74998965406556        6.41081035131363
N            1.46923254435827        2.07443768708224        6.56029917105893
C           -2.27406234298213        0.15790014526780        6.49307576785459
C           -2.25155341267642       -1.24739423242132        6.22676236466545
N           -1.07682289786687       -1.96557638673889        6.10190669631210
C            0.04855512199153       -1.28074434795634        6.08671799868981
C            1.25153779404826       -2.04374609999254        6.04931460043824
C            2.43064868438912       -1.38880290940566        6.25187826990256
C            2.44160575562776       -0.06253770775505        6.43613135933569
C           -3.50422970948836        0.64103025996096        7.12177095889394
C           -4.62267089346618       -0.21111588447160        7.09805607254801
C           -4.70127523965460       -1.45211914115457        6.50011471795298
C           -3.48074832250634       -1.92154430048085        5.97371226816750
O           -3.48105605674622        1.59378107915138        8.15386667211688
O           -3.48628468285119        2.73201195442492        5.22044455177240
C            0.21418661982496        5.52598600049646        3.33844960260964
C           -5.98008577951399       -1.92800563052781        6.19656560212992
H            1.85038553732163        4.14493679567008        5.48851096034990
H           -2.33752403579835        4.71858643548472        4.01207259354285
H            3.52307795806436        0.34768476628789        6.71713454031532
H            1.23200958205801       -3.10853581501290        5.96114300400547
H           -3.46513332362966       -2.99023040134511        5.72360542486639
H           -5.60037748173888        0.03269073537283        7.65008072339524
O            0.73981975320786        6.60413964728888        3.58676712231291
O           -0.11415434068505        5.21033145144339        2.08125714220225
C            0.58739447091725        5.93600374505977        1.19490326027036
C            3.60933797177780       -2.14765284871723        6.19318463303471
O            3.53055849187914       -3.34735303252708        6.14306240192915
O            4.91424006250090       -1.44032664117287        6.22047634927242
C            5.83832549832184       -2.13658090482121        5.62402735680467
O           -7.03446839970290       -1.45187507813853        6.72593033261375
O           -6.07089881880408       -2.66342342918621        4.97137895712443
C           -7.31272708403300       -3.11769074407867        4.67425607384489
C           -3.89254272601256        2.86567829649422        7.87009377894050
C           -4.09360600808987        2.65936279299041        3.84840123469874
H           -7.19663717757957       -4.17899653904699        4.50079877187777
H           -7.46199341360438       -2.55193781597880        3.84232816380622
H           -8.21785116452237       -2.96081851151445        5.26208825051186
H            5.69195782058502       -3.32072352734211        5.30375682022305
H            6.63379701761462       -2.04455721992823        6.32425122284017
H            6.02374889046397       -1.57219379667798        4.77535276730954
H           -5.18423790107791        3.18254929227072        3.91929571428712
H           -3.79708798738098        1.57477495881702        3.54463371659896
H           -3.36102408665155        3.26827578609798        3.10803051799945
H           -4.91371416676029        3.01651778552202        8.59760652590637
H           -3.80279938647046        2.94084950192558        6.77456867586343
H           -3.24897183051546        3.62195638553829        8.56841999563935
H            0.08634589756713        6.81438895611086        1.35072024875847
H            0.60956959923635        5.51886870859227        0.31715254440639
H            1.63907577104693        5.99928230984657        1.58860116937305
116
 energy: -22.442461351717 gnorm: 0.633619356816 xtb: 6.6.1 (8d0f1dd)
C           -2.35369291394518       -0.83135360357071       -2.90652473373267
C           -1.65960703254217       -1.40269498314845       -1.84059203032040
C           -0.85982146692986       -0.49338918279121       -0.90725946826267
C           -0.20725929310518        0.47630336153985       -1.68063477865558
C           -0.60679468360716        0.70015617097625       -3.00101421247852
C           -1.76121167389808        0.33962389714742       -3.62464849409952
C           -0.73022612290023       -0.61971625409335        0.48247444085612
C            0.50095060683976       -0.01970885578653        0.88162119150415
C            1.14808059429967        1.04398695323229        0.12075128358629
N            0.87728931210361        1.23517325583069       -1.21476115431267
C           -1.73638715992726       -0.98501936426371        1.35299256382431
C           -1.08201517044915       -1.34176420477377        2.61775774612785
N            0.10287926026137       -0.75770433314759        3.18132458318461
C            0.82075531349921       -0.16287747790596        2.18678955719323
C            1.75145777602079        0.60866662464183        2.82757452814693
C            2.21859889782381        1.82920489715784        2.04414727023085
C            2.08786955466269        2.00745109550425        0.69364942057740
C           -2.92640716746675       -1.69260815481760        0.95565039070367
C           -3.54877062539182       -2.60426510531351        1.88322765293058
C           -2.98231937991106       -2.78275823703590        3.27741376785468
C           -1.66813843226235       -2.36693550997131        3.54062174970290
O           -3.75586565473115       -1.12881725127629       -0.11766634224202
O           -1.62671063599153       -2.61255160328510       -1.27935800497048
C           -2.37850207650477        0.55825165712926       -4.87464003051176
C           -3.46663333391120       -3.80047787066670        4.14932569877998
H           -0.04004248372923        1.25345959238333       -3.71630174914395
H           -3.20447321268510       -1.26065849465531       -3.26618268497116
H            2.41918410991660        2.82044846022449        0.12204181289251
H            1.73964938527976        0.68436163843384        3.89140488285057
H           -1.29083944210878       -2.37566686621822        4.58519617420798
H           -4.49967125552249       -2.96152828735034        1.64297539520815
O           -1.79542553328053        1.00067993347753       -5.80743847308625
O           -3.79319210906412        0.25348336707936       -4.75649074005315
C           -4.64721517365551        1.18090488479700       -5.60116372565318
C            3.32194976173366        2.69825752930873        2.65052143613319
O            4.47551380202955        2.50728997537245        2.65262170244133
O            2.81436493870399        4.02759611315363        2.77012658631543
C            3.72633512398775        5.09311499432410        3.07052944940204
O           -4.38778477869804       -3.90110508050163        4.98527167306880
O           -2.92843576247395       -4.99676280630475        3.46430484177975
C           -3.18440274807992       -6.08888416403362        4.23402930280162
C           -5.07050629153871       -1.70908416934577       -0.32252613293263
C           -2.38763891843653       -3.53323414930033       -1.99010904530426
H           -2.70466128841862       -5.87310163982593        5.20567734775219
H           -2.99576253694032       -7.14043035638277        3.70381618604082
H           -4.27093253221598       -5.73660923720233        4.12377340726713
H            3.86350220700623        4.98832409706679        4.13301951267219
H            3.55324506412896        6.24757494213711        2.77127272452595
H            4.59260777678343        4.91201098299463        2.63831618254511
H           -1.70626051319675       -4.03211276608460       -2.68214964234492
H           -3.11850723857032       -3.06744958935111       -2.50417475238440
H           -2.78162565091210       -4.17580080619699       -1.20385844091323
H           -5.53984237149425       -1.86397590114455        0.64674348813436
H           -5.08748101486724       -2.76964632991809       -0.90411222735118
H           -5.66201554095213       -1.10093630080134       -1.10375030242470
H           -5.76227999487485        1.13067007234277       -5.21846183554128
H           -4.66305126626550        0.58204882770224       -6.49221820349057
H           -4.22055878594949        2.11546982865859       -5.88520114456972
C           -1.45994773857403        4.30145775022193        4.88014434493923
C           -1.53571645022795        2.88842174038650        4.96426843284082
C           -0.44552271129970        1.98581406370220        5.40775317247121
C            0.77229123921816        2.60206591043453        5.71779564413874
C            0.78558785379687        3.96749134504129        5.80401628441236
C           -0.33230934907474        4.74646835365276        5.53441154729561
C           -0.89467931828603        0.72558560934217        5.92854145310795
C            0.27649979476006       -0.06378425770257        6.22710565800028
C            1.62869174810773        0.49722350847770        6.26723186880742
N            1.89586250651877        1.78948931751419        5.95379429750341
C           -2.22168001517018        0.14074276586516        6.37217777307811
C           -2.19609570354270       -1.20363424475937        6.70058329198216
N           -1.09059986415024       -1.97667906313034        6.71520500345994
C            0.14673857673105       -1.40859917059328        6.66746389311453
C            1.29091080040160       -2.12832980428017        7.29708783419212
C            2.56150905998290       -1.62700870615431        7.17404002760090
C            2.69857544422265       -0.45138103149434        6.41238361073114
C           -3.35957931472284        0.91702442309817        6.86879065643137
C           -4.64699601765853        0.46312130940724        6.87119930031107
C           -4.74160396717554       -0.88268147501324        6.69037058737634
C           -3.48200940062615       -1.67216977300838        6.75655591998804
O           -3.04724626237453        2.37724606189013        7.01383169393191
O           -2.73496415826506        2.33614626682305        4.41465606982756
C           -0.18516147438569        6.31005291703229        5.76705769625844
C           -5.93900006490572       -1.67263257334279        6.76160602860295
H            1.52940991845358        4.39160910460945        6.45429995918680
H           -2.43577349860619        4.86092163695448        4.92910694676621
H            3.72326641224112       -0.23240700411033        6.00083965295255
H            1.24803540017817       -3.01767720173318        7.90325070882216
H           -3.43832949179116       -2.58864528185810        7.33183727612065
H           -5.46421046744902        1.11731764465470        7.28802324790719
O            0.74319079141146        6.91676906119490        5.35679058217749
O           -1.20357233145450        6.68571140259750        6.57295094149230
C           -0.97959941580837        8.10432824583099        6.97969656488121
C            3.94575359543871       -2.46726946667061        7.53958161531234
O            3.94541138209309       -3.46057855332682        8.32242854211158
O            5.19514427331991       -2.28847511660731        6.81845597573682
C            5.62878148019886       -3.11808846847470        5.90222616225892
O           -5.66260734859719       -2.67571880164890        7.44483342128347
O           -7.20467117617714       -1.37649838023345        6.47325947197772
C           -7.91352757467203       -2.47799156876271        6.84125282321323
C           -3.52384225843944        3.13521987273106        8.10508725138948
C           -3.96096363966051        3.01780787547851        4.30607512384097
H           -7.60597953564718       -2.81551507154650        7.86165302146292
H           -7.65413030252969       -3.17175554354154        5.93898971417891
H           -8.96824184256766       -2.18190637412200        7.05511338041591
H            5.33509277208387       -2.91339345466503        4.74353240837581
H            5.12880260425067       -4.17354206599488        6.21883845503917
H            6.63737739548622       -3.09255213778712        5.82842970232096
H           -4.16035617103527        3.55502549222324        5.18321623257345
H           -4.75667714241398        2.38165542290495        4.16835753464031
H           -4.18110467181562        3.88551326565559        3.49748416979586
H           -4.35208464427726        3.53855478487322        7.62293353051452
H           -2.66938043619992        3.77510546051450        8.57247260269439
H           -4.08614774415215        2.50257696207682        8.94406718103268
H           -0.58415280921146        8.12110825962487        7.89496743370985
H           -1.94807256865676        8.71751433965667        6.58668518185238
H           -0.03450365183859        8.29591884695084        6.30005890472588
116
 energy: -22.472532514201 gnorm: 0.649719596431 xtb: 6.6.1 (8d0f1dd)
C           -1.52837555783476       -1.57203043596372       -3.56557037488159
C           -1.47761514133787       -1.67806031199873       -2.28223240052342
C           -1.30093425430566       -0.35444388669617       -1.57022183510846
C           -0.80171623868690        0.80520821648259       -2.23236869182472
C           -0.94336292107593        0.82963095671850       -3.65591665408911
C           -1.48527062109257       -0.30320563284853       -4.36450755680671
C           -1.26097354365418       -0.15796508923657       -0.08549393887823
C           -0.33959257229411        0.68278892103736        0.43512301886026
C            0.19966484770986        1.76053902769421       -0.32482747759996
N           -0.24872794219144        1.91788697017081       -1.55314358111152
C           -1.91754920536620       -0.86346509177630        0.96573256583015
C           -1.10528333039789       -1.21511716203927        2.22841005316938
N           -0.24416860709237       -0.44869503211367        2.78270723510818
C            0.08657232164138        0.53516478543254        1.79637581965885
C            0.98743414410803        1.51806161193612        2.22952511106629
C            1.66316889161008        2.50799670266244        1.54815338940846
C            1.20364167859737        2.57598997796300        0.29171866495616
C           -3.32179802659783       -1.55927757150484        0.80852549656157
C           -3.68972027363358       -2.28642001600483        1.87052128357085
C           -2.81379860723380       -2.87170771569325        2.82664752478255
C           -1.43544102300154       -2.40846452032143        2.91319753285431
O           -4.15204231344979       -1.13725220434409       -0.33956441434619
O           -1.60452228696613       -2.77122656163677       -1.47551270943217
C           -1.74425730326025       -0.29270674404604       -5.90402585027825
C           -3.56583173589307       -3.84272305869979        3.72977716275178
H           -0.74339073293226        1.60185266987888       -4.24837166893055
H           -1.68255809860924       -2.19606732366315       -4.49864554232294
H            1.57798309399834        3.52758386012586       -0.15685899439753
H            0.78321569857463        1.49238522810050        3.33043070417224
H           -1.13297072048937       -2.55841431850044        3.95215561452022
H           -4.64332881562752       -2.72692304580646        1.91879159611166
O           -1.69868240201798        0.83453820484489       -6.34204900595326