116
 energy: -22.928061455056 gnorm: 0.329736929581 xtb: 6.6.1 (8d0f1dd)
C           -3.31122850772930        0.79849766164622       -0.92477639677520
C           -2.44380812530352       -0.12270372891954       -0.27661132624697
C           -1.41337090092821        0.39579727573559        0.56335275196199
C           -0.89266158675590        1.65801491088749        0.27377586709581
C           -1.72665675402493        2.51431363229076       -0.49448366572522
C           -2.95444148494349        2.13954154133227       -1.01494489940871
C           -0.74098268209890       -0.43411532818871        1.49825021926784
C            0.56872586496315        0.03782116815119        1.86248088067890
C            1.03782416582094        1.29402317993033        1.50887470833621
N            0.31238977034758        2.07067427098208        0.65193736800696
C           -1.29695700510141       -1.39996043042223        2.41574187746061
C           -0.38243517664656       -2.18060797534842        3.13232615520648
N            0.91308504082021       -1.90366887689689        3.30325166013478
C            1.37712470144904       -0.74872102533751        2.81811050966982
C            2.52149331701875       -0.17739833758153        3.39379298866852
C            2.95849061756259        1.02681208890480        2.95105897606587
C            2.24288949469137        1.78498308775960        2.03503020483770
C           -2.74860936222260       -1.74497937691422        2.38401158947411
C           -3.09416315450955       -2.91614440870436        3.00571134491758
C           -2.16786021984049       -3.77788778654213        3.63251872101904
C           -0.85708937311598       -3.40495313382985        3.68547234358092
O           -3.71994433332149       -0.94984598373544        1.67726658385724
O           -2.55702603277562       -1.47241711578389       -0.57241635275616
C           -3.84297843593025        3.13357444054366       -1.60938954875544
C           -2.68769581069131       -5.03867041417370        4.30484659386931
H           -1.39666850744143        3.51251503834900       -0.76806311868865
H           -4.27662633836220        0.55105838579656       -1.33106614114542
H            2.66329581305412        2.73912661909249        1.72562431984580
H            3.05775395548473       -0.69369546277216        4.16536137542516
H           -0.24710966264510       -4.12034095424229        4.22946223699121
H           -4.11477991332403       -3.04712728052358        3.03244694615357
O           -4.21824883374556        4.03433712717988       -0.87713382485991
O           -4.44510595673734        2.90643496899600       -2.81853501752979
C           -5.44216520282800        3.83300025693726       -3.02488532025093
C            4.23586651889298        1.50004220933226        3.59165660008449
O            5.05927614697201        0.66079890002952        3.91714215179376
O            4.47001334453535        2.86385149488593        3.72605651435371
C            5.79457498613219        3.08584475587818        4.15829123132174
O           -3.82227255313510       -5.27347675879771        4.16636005494405
O           -1.85023202017753       -5.79767454267276        5.06656077253571
C           -2.55119635829503       -6.86252441382958        5.62930343183426
C           -5.07197156564436       -1.42399175670916        1.58830531863830
C           -1.33089900128490       -2.23622472573986       -0.99264499351172
H           -2.54510546830388       -7.76426885143998        4.99136022291012
H           -3.57194749219491       -6.44405511486021        5.74196173723541
H           -2.09133598235598       -7.02043774843818        6.64022264233588
H            5.72707967266424        3.46798026205549        5.10135971236643
H            6.34060091246885        3.78468702308830        3.50069950143490
H            6.17933064298187        2.03010500085905        4.19342358084693
H           -0.91862729772622       -2.57650129080332       -0.01361370304871
H           -0.49769766914251       -1.60651221708571       -1.34094446550576
H           -1.52632419730509       -2.94569707152159       -1.75361447637286
H           -5.11788846557077       -2.41810833635233        1.17520213188926
H           -5.67929807973498       -0.69619639428435        1.04301666067831
H           -5.57598832326623       -1.42383358739762        2.57928294206544
H           -6.13050215934830        3.76035386975488       -2.23272855695873
H           -5.86615610071888        3.45938329385866       -4.02668959924245
H           -5.13479557532099        4.87790991548477       -2.98314551356402
C           -1.38192942069774        3.73616555005018        2.91232598411686
C           -1.84821468128685        2.59982427735607        3.49755545445181
C           -1.05946531454833        2.05730632010638        4.60922730982276
C            0.19893954712228        2.69376791964407        4.86302140881997
C            0.50425395911860        3.94630308659851        4.28768785650746
C           -0.26031777722226        4.46998310053134        3.25072669343212
C           -1.20488993561782        0.74454293276906        5.14851520323437
C           -0.06287609782692        0.02744069315890        5.60930570802864
C            1.19208754369866        0.71421540266195        5.78882868583885
N            1.19428660993148        2.06344359410476        5.62744624321596
C           -2.41361422770794        0.07928500213936        5.25249410304426
C           -2.45851584031083       -1.32662100968547        5.60237876023992
N           -1.29466212405906       -1.98318595734370        5.89916817085159
C           -0.14475655767527       -1.32117560077092        5.98824682881008
C            0.97209270935794       -1.98958449505532        6.53157704134458
C            2.21982707914082       -1.36973967291181        6.68703967237737
C            2.30561929262884       -0.09745313075593        6.26436900324455
C           -3.73018485967715        0.71367583494582        5.25810242262992
C           -4.89964478833448       -0.06184623426677        5.21204641615509
C           -4.82617965800088       -1.39228978090841        5.46901303780036
C           -3.67144193418464       -1.98914944386360        5.67265433266067
O           -3.75568638935321        2.07705011038914        5.52067969627343
O           -2.94192434743730        1.91263938797883        3.01658762327703
C            0.21273512614467        5.50086066357994        2.34765104514621
C           -6.06660304520411       -2.17604633098929        5.80641622556876
H            1.41756699010566        4.38133362238595        4.66974005703471
H           -1.82880610647429        4.11982501512100        2.06992133318584
H            3.26888037378556        0.32655662585251        6.31721410015598
H            0.87146188387207       -3.08471526305024        6.57830423410869
H           -3.67716811065157       -3.05999292755990        5.83019634570050
H           -5.77379677507622        0.43595144608221        4.71017130754348
O            1.34459852619901        5.82615848916894        2.44941456579099
O           -0.74718748219123        6.07961784856304        1.59848183464284
C           -0.21473095568964        7.24015934882472        1.05753806029483
C            3.53228080814219       -2.00967610361154        7.02506769044485
O            3.64093082622715       -3.14437803815732        7.50071391725347
O            4.56565258381079       -1.22937033368332        6.69086985080897
C            5.72579357310716       -1.80692399125161        7.22246151275881
O           -7.04801223588612       -1.95726935745904        5.14194115322235
O           -6.01514389321278       -2.93743591896022        6.94765316328794
C           -7.21292732384718       -3.62681918543340        7.15115816329978
C           -4.95459780685163        2.65960679932188        5.86868674392943
C           -3.68284113682406        2.59129188358641        2.05479246020704
H           -7.43119628931628       -4.22607794725959        6.20622607140901
H           -8.06548455146707       -2.91765848248592        7.29781126410398
H           -7.07314693247270       -4.33087306029711        7.91223421050944
H            6.57332189837178       -1.29353136199234        6.78341268688262
H            5.74663761932316       -2.84282155125561        6.88089468184451
H            5.69426191474290       -1.72781984964892        8.29460302186842
H           -4.10481209541493        3.44288266176275        2.60483747673152
H           -4.49244774344916        1.87419893016926        1.82433103764650
H           -3.18901540870812        2.85154642679373        1.06781919454921
H           -5.55414326821421        2.76698137191684        4.93950725322359
H           -4.78658370641210        3.62090640967288        6.25983200635257
H           -5.43485580473958        1.97242995129449        6.65265772412460
H            0.89164886030839        7.38838561720231        1.13776105146914
H           -0.62894889903848        8.04195665205089        1.64837664327952
H           -0.59282546386754        7.45699159724320        0.03719083132488
116
 energy: -22.838655108745 gnorm: 0.397397367553 xtb: 6.6.1 (8d0f1dd)
C           -3.31265406874968        0.95325432678804       -1.00007152921068
C           -2.52481777110134       -0.08644048765531       -0.36638638869283
C           -1.42374106060481        0.34057977498574        0.45487209945449
C           -0.98570586350408        1.69017175650981        0.34797735390313
C           -1.63897488464067        2.53914577050414       -0.58994353615541
C           -2.83120355228438        2.23092654047113       -1.09058164580433
C           -0.88288047850022       -0.50070472838769        1.51829459744547
C            0.40661393259343       -0.00066029292685        1.85279077908193
C            0.83629462817105        1.31889392819001        1.48354087548826
N            0.21691556409381        2.23126820713460        0.76613159744392
C           -1.46646445709183       -1.58441487036882        2.29734400356939
C           -0.53855549479230       -2.43973917682333        2.90482472468143
N            0.74852038424368       -2.05169758575292        3.08358974706708
C            1.18927893237845       -0.89981421903389        2.61486728724104
C            2.45573506724079       -0.52964299780747        3.02941070539363
C            2.87881343906129        0.69859578266276        2.62458332126227
C            2.08565703382264        1.67769964298147        1.98932779994484
C           -2.83277250309473       -1.97695706430256        2.31070517144874
C           -3.21909619005739       -3.19567184447308        2.88205882328612
C           -2.29486458972798       -3.97013715361298        3.51608585598883
C           -1.04027629153123       -3.50815580105186        3.62221460211521
O           -3.80340577096249       -1.04317157704916        1.98524832098362
O           -2.99065656512775       -1.42576518899765       -0.51426607232122
C           -3.48525388020836        3.25011974359664       -1.93131337157884
C           -2.82216588248250       -5.32973652725040        3.95374218332146
H           -1.16057673623936        3.51983130637077       -0.81382371005694
H           -4.23722212400396        0.70429322478442       -1.38434461731550
H            2.53527087903028        2.59506860344403        1.77058975195644
H            3.19761835243062       -1.09478522385978        3.65084237319283
H           -0.26290847662798       -4.13904203582382        4.12145613868879
H           -4.17523908813049       -3.47706814682508        2.70917953430679
O           -3.07409419335737        4.40298748921475       -2.00016506680237
O           -4.47328343614613        2.76902911995922       -2.73603788692335
C           -4.86013332889429        3.81775535702819       -3.59897712838577
C            4.35645088613158        0.93567093689687        2.91208428650656
O            5.14257037594585        0.03761698877817        3.13115739872181
O            4.70906327939198        2.25910050006717        2.71016666664929
C            5.98559108448991        2.37482513559055        3.19287318106667
O           -4.06273365727835       -5.58293472890961        3.84744341194367
O           -1.86511074697261       -6.23661181315192        4.46735107096433
C           -2.51309632843078       -7.01537126112330        5.43422458249950
C           -5.13736129842843       -1.53290631019231        1.92994466127272
C           -2.05183190305404       -2.40260709421571       -1.22294470010640
H           -3.04130388684245       -6.53141026740995        6.31653824469561
H           -1.75728312946674       -7.69005016292857        5.91368191827485
H           -3.13726610793868       -7.80717019595239        4.90059050260443
H            6.64808167338100        1.86851128829730        2.48748053667586
H            5.94841272264975        1.81123206477408        4.07279816233016
H            6.13970665021470        3.44791318836946        3.54222626327534
H           -1.57556016895117       -2.01966632124512       -2.10775331719551
H           -2.49794045052287       -3.20807437910889       -1.66844270380918
H           -1.42150374916671       -2.77951467519672       -0.36732619844082
H           -5.10106004672862       -2.58826431289160        1.75480725602631
H           -5.70806471956496       -1.03775366338192        1.06092026960954
H           -5.62852866927314       -1.31378614559487        2.87058589561142
H           -5.20902665314250        4.75011077282282       -3.07811914070736
H           -5.69551644014289        3.38444562935166       -4.09912326852845
H           -4.05964994380590        4.00114933230885       -4.27204983506189
C           -1.75987475598607        3.87042302211678        3.39205594609615
C           -1.81490518994829        2.57686111105270        3.96130479193753
C           -0.76910435605373        2.17126136316081        4.88458231598459
C            0.46139106024615        2.73588161330151        4.83427928483733
C            0.56219597542924        3.92890764970502        4.14768224133564
C           -0.55098271540186        4.49703153547739        3.43479216189287
C           -0.90436161576873        0.93473964868941        5.54652265167917
C            0.26843031902692        0.15572828189193        5.82477939604179
C            1.44102943431090        0.83052907473160        5.83701583466102
N            1.57360182491822        2.10986046623533        5.28548061306532
C           -2.27412986672032        0.29959998158517        5.70051490317977
C           -2.22402265725715       -1.08070750318013        5.89004276935701
N           -1.12794892687735       -1.79639940175559        6.03341034419183
C            0.10465864965866       -1.17717584862907        6.24010207967513
C            1.14156036958885       -1.70751208013799        6.98517553945035
C            2.32507463424082       -1.03471612099977        7.10770184248316
C            2.47168569844140        0.22307803172271        6.61924306339846
C           -3.47005390069599        1.09513444528765        5.89579774658474
C           -4.68945283445735        0.43037970858455        5.88665535168119
C           -4.73249006221333       -0.96621556133987        5.69757685860588
C           -3.51723428770596       -1.70790311775089        5.89357778846186
O           -3.43140486407075        2.48845188491386        6.29261671948994
O           -2.82060511724995        1.71041216726434        3.40698946125274
C           -0.36597723960759        5.56202703936557        2.43898425505299
C           -6.04400454527110       -1.71363018143989        5.64425167902886
H            1.54563055140776        4.10415204691449        3.91020794921687
H           -2.40262362731796        4.22426477889113        2.58633107010030
H            3.49521210897336        0.61572854147826        6.62090741315339
H            1.20549250034337       -2.72897904595603        7.37718245319056
H           -3.47777645604836       -2.70771645471045        6.24524060999127
H           -5.62917385725841        0.98100865788572        5.80984397789886
O            0.64221774407650        6.25065944361696        2.42419263244524
O           -1.44433868058389        5.65295591541023        1.52592944532067
C           -1.16766438819380        6.81234501632509        0.73983810922924
C            3.51940865846454       -1.55358524042045        7.84427666570062
O            3.85778794302531       -2.71127625120860        7.93179450455861
O            4.43477010378262       -0.60480241158738        8.28562071070731
C            5.67092877559072       -1.14883031631434        8.53019637611369
O           -7.12710439737779       -1.11457022574832        5.64356181601262
O           -5.88375606492046       -3.05640141833168        5.60325092140153
C           -6.92618155261082       -3.81123180619687        4.94031218715775
C           -4.39113684301084        2.85825518971806        7.20438910712228
C           -3.99431094791981        2.23279089288876        2.70582517718152
H           -6.56229015216094       -4.64097821207387        4.44237174119213
H           -7.37326537459839       -3.04854043974719        4.31397867286049
H           -7.54266783985438       -4.04209932334516        5.76657939526559
H            6.05252844138665       -0.27488597327561        8.99067792168135
H            6.09413805155749       -1.49893412274086        7.51014392586197
H            5.56087796719537       -2.02617304660032        9.24252921512710
H           -4.49693056907029        1.38402542686693        2.16985655472827
H           -3.80862934011375        3.00265915716623        1.86502686413455
H           -4.71542722663386        2.68714163288749        3.30618078559532
H           -5.14320654379343        3.49371039267625        6.71604518625124
H           -3.92884534563712        3.57417891167874        7.95022383593070
H           -4.68450828232231        1.89369730704482        7.57246398958380
H           -1.39792951103322        6.61971208176902       -0.30080033928264
H           -0.04840067561709        7.05044475545604        0.79835353586591
H           -1.91951635763872        7.55623440152279        0.94945061392488
116
 energy: -22.819336454067 gnorm: 0.386591378615 xtb: 6.6.1 (8d0f1dd)
C           -3.19550208313566        0.79472487622670       -1.24017370790974
C           -2.50651986486679       -0.14478465140365       -0.51403697899146
C           -1.36260158685973        0.27080345420983        0.27997444682051
C           -0.71423800843923        1.51599664895325        0.08679327258966
C           -1.46355017815656        2.40393898918861       -0.60081251861206
C           -2.68952603138348        2.16366351509448       -1.20767571459467
C           -0.89387785175570       -0.48678317090363        1.38667502469603
C            0.40302314578961       -0.17996708443012        1.82138810667867
C            0.99204691719790        1.01877632451420        1.52686157876912
N            0.36864560490545        1.92421971049608        0.78638734506636
C           -1.61854169822578       -1.60060313781610        2.11816974703838
C           -0.75435435832669       -2.49972362194433        2.95636228428841
N            0.59956392249356       -2.35445323627007        3.15934925851194
C            1.05119085645625       -1.06727668581928        2.84591397352987
C            2.38658141937935       -0.75132195971386        3.40155155444629
C            2.85048791960851        0.54178029314846        3.11491920807130
C            2.09253342724015        1.35188856478449        2.26923955672900
C           -3.05967795630360       -1.81807968591431        2.25185663203273
C           -3.58603101245811       -3.01024622632759        2.77617958873271
C           -2.78267053531513       -3.94174932939454        3.51157097723129
C           -1.39746270032309       -3.64859571088812        3.52397114718109
O           -3.94958328296089       -0.85072092016851        1.76654270413992
O           -2.79258531580334       -1.51152252929977       -0.55750969902186
C           -3.39137148131072        3.17192678499413       -2.11690205983336
C           -3.38065390745783       -5.24440284078669        4.10180483657282
H           -0.99710479422629        3.39906461280468       -0.71790257854718
H           -4.05475783331199        0.65732546805082       -1.79512701264184
H            2.43968678161965        2.30487950204817        2.08620937248627
H            3.05608147816714       -1.46126834477652        3.81628692844134
H           -0.67502867902531       -4.31554765679428        4.05769079748163
H           -4.62204716715715       -3.12005838065987        3.00701677983884
O           -2.70312842889362        4.06887593627767       -2.45951903899191
O           -4.70468840487844        3.04381240166846       -2.53679708308294
C           -5.01606835215406        4.17509629395417       -3.33975694917153
C            4.09105403676864        1.16478089200107        3.53389050704221
O            4.74097196396356        0.70784754957495        4.47408885864269
O            4.51520253286139        2.09507238291506        2.64208991254064
C            5.80863085420072        2.40722202850455        2.99944262893015
O           -4.47449358422688       -5.56061392931292        3.82011276126360
O           -2.54147750935902       -6.01304007806178        4.88906045624151
C           -3.39285775699006       -6.83500629194451        5.68045998231789
C           -5.32759708455717       -1.36434403857449        1.46428887823737
C           -1.68800812144271       -2.27766688111686       -0.97036164993122
H           -3.02870053055872       -7.51088832328205        6.42519950617583
H           -3.75243452305329       -7.48530000082419        4.92285003492654
H           -4.19866889847819       -6.26437636766999        5.98862559447414
H            6.13168768497835        1.65139403296178        3.78809647135822
H            5.76833853718228        3.39319941305374        3.58624060015857
H            6.63174611215576        2.30920834800753        2.17904711014187
H           -1.90119544517838       -2.75625400045660       -1.88831614748015
H           -1.49135646319207       -3.03490720191388       -0.16974802599356
H           -0.89726019317437       -1.60599194491282       -1.32885761217060
H           -5.41610516895293       -2.38578581004421        0.96274218154694
H           -5.95777967009334       -0.73493758569675        0.75574596899140
H           -5.66314109752491       -1.57290863961866        2.46700020048596
H           -4.88443770532120        5.00247300645761       -2.64454470379206
H           -6.07190467890448        4.23311820333521       -3.65383397679026
H           -4.22639273226919        4.15397119888203       -4.19691958678750
C           -1.71605922410033        3.96721933287947        3.19668278678115
C           -1.95790518250861        2.79979224775747        3.94260848542366
C           -0.90251250369469        2.26759803606987        4.83884177155529
C            0.39348722648188        2.83769120775204        4.87936168654951
C            0.50608309652369        4.06624872335461        4.17305074855317
C           -0.51179290068160        4.69185357156686        3.40930955049352
C           -0.97560818660291        0.98467187905058        5.43534721990789
C            0.13881686276466        0.44893195913798        5.97216823506800
C            1.37591448698761        1.24051997162959        6.06460784865304
N            1.49879452748795        2.48559291183888        5.60589468431684
C           -2.11866632709296        0.16278297738791        5.65599664402827
C           -2.01990450099474       -1.24834655574563        5.90827466681490
N           -0.81910545747242       -1.75238453867973        6.30003607706405
C            0.22520231152664       -0.84894623797774        6.51385619668731
C            1.42645580219389       -1.37648069637992        7.01908724508831
C            2.59414678280258       -0.59019356559251        7.11510107196503
C            2.48297901109999        0.76377686169993        6.70320742588223
C           -3.44541738784904        0.75997001638174        5.82552146619764
C           -4.55075931126951       -0.06360347083885        5.61831476955818
C           -4.45368429314945       -1.45512848595874        5.65762546004219
C           -3.24074392362413       -1.98886417727202        6.01190603941396
O           -3.46911031919181        1.95578479012778        6.32720838619926
O           -3.10688975350115        2.09033084151327        3.76127257464343
C           -0.14705781289804        5.57251692005426        2.30297783250875
C           -5.58753798629407       -2.48036487445764        5.79570380015843
H            1.45329312046695        4.43949392338664        4.18493734589322
H           -2.40302237243170        4.35938067114242        2.44909977953653
H            3.33696388652174        1.43502482101761        6.65865695445341
H            1.45766120829317       -2.38237141034331        7.43485715378972
H           -3.27541283552102       -2.85517181824910        6.55748230541071
H           -5.44641010756255        0.40472944001872        5.33650284273820
O            0.97819677678631        6.06855077626809        2.28308968049310
O           -1.03328575919146        5.80930099853792        1.26700552142229
C           -0.42922050425977        6.53879981722344        0.26806475511831
C            3.87136103814316       -1.14741178527516        7.73390010475810
O            4.02956341022684       -2.36488171099286        7.83477614293572
O            4.89442067952441       -0.28350146758373        7.74753217321156
C            6.09908928523982       -0.96087527729494        7.59657379891908
O           -5.89310145849842       -2.85092854538847        6.94426300461227
O           -6.10271583996037       -3.13048947453372        4.63136912322352
C           -7.24836803990842       -3.96676313174708        4.79529715433597
C           -4.63335326019360        2.54215913637211        6.82596929051565
C           -4.20713622395904        2.71999780037047        3.18424105270598
H           -7.64824460124348       -4.33127214880292        3.73949078134603
H           -7.94485756951713       -3.51300744366462        5.55316139197211
H           -6.82297455431623       -4.92772501530769        5.15918604962909
H            6.96458673326079       -0.32057062535991        7.72015052877082
H            6.08540464475250       -1.73662131506539        6.79551829353546
H            6.03688199326605       -1.52285082707329        8.50484488631433
H           -4.31119708169182        2.51470274409097        2.13351133747891
H           -4.11871967374411        3.74571217896176        3.47107799586795
H           -5.12251067164196        2.23762100161360        3.63714476381480
H           -5.42162638706234        2.27340170934277        6.13079036665056
H           -4.53633643016540        3.60255699873889        6.92583371317359
H           -5.14973605392375        2.01627658283213        7.69335180183850
H           -0.16304335409372        7.46857061196297        0.81629655907948
H           -1.19482064670931        7.10704290145553       -0.33258288368282
H            0.36255764377613        5.95709392897391       -0.32031368139202
116
 energy: -22.868165072483 gnorm: 0.357530619367 xtb: 6.6.1 (8d0f1dd)
C           -2.92549095736526        0.62393910356812       -1.41011632627241
C           -2.34801413086479       -0.28964924923674       -0.57387409369476
C           -1.45115273854455        0.18516605730704        0.48190934234866
C           -1.06658699434527        1.55624132666199        0.45879417576904
C           -1.84223500106892        2.46466131993459       -0.21928244241952
C           -2.84936825688511        1.96785099464084       -0.97642348673406
C           -0.88831362568863       -0.58098380684910        1.55155547294341
C            0.42211920151037       -0.14188080321547        2.10031779290440
C            0.85263408407381        1.17425862336458        1.91807519395700
N            0.00006902171534        2.00108157251873        1.17876453924036
C           -1.62450279967176       -1.54293468389089        2.21737954011271
C           -0.88600756999940       -2.42247523759365        2.99573063442216
N            0.47184795310876       -2.33353495008177        3.07944571485706
C            1.11256204336885       -1.12590095802133        2.86237206868497
C            2.41357889583244       -0.79050046717511        3.28901531284805
C            2.95564748702665        0.45900170632732        3.00573054267991
C            2.24899047771044        1.43077838342671        2.31361641311087
C           -3.05460103759418       -1.58742588727191        2.20799470141587
C           -3.56010420986350       -2.67788174815479        2.92820767290025
C           -2.82641571669078       -3.55938736919470        3.70416657914894
C           -1.50270564206328       -3.45931043255853        3.69960593514535
O           -3.85090701677253       -0.51521558103511        1.67608611159697
O           -2.56392863211002       -1.69316846797015       -0.71825486597557
C           -3.53129837235009        3.01600564749925       -1.73620301646058
C           -3.46246077984028       -4.88233963317441        4.10845857590058
H           -1.80524116285759        3.56899287078407        0.02395697712957
H           -3.53862109835349        0.33475597823940       -2.16737792117745
H            2.61238981931292        2.41291021856250        2.24349247194111
H            2.98197578561322       -1.58388389414390        3.68926454999401
H           -0.80146548063636       -4.03831582444142        4.22215114777936
H           -4.66914311333290       -2.88179984140681        2.87757919786983
O           -3.42882965015216        4.18714426874493       -1.32658062528939