116
 energy: -22.928061455056 gnorm: 0.329736929581 xtb: 6.6.1 (8d0f1dd)
C           -3.31122850772930        0.79849766164622       -0.92477639677520
C           -2.44380812530352       -0.12270372891954       -0.27661132624697
C           -1.41337090092821        0.39579727573559        0.56335275196199
C           -0.89266158675590        1.65801491088749        0.27377586709581
C           -1.72665675402493        2.51431363229076       -0.49448366572522
C           -2.95444148494349        2.13954154133227       -1.01494489940871
C           -0.74098268209890       -0.43411532818871        1.49825021926784
C            0.56872586496315        0.03782116815119        1.86248088067890
C            1.03782416582094        1.29402317993033        1.50887470833621
N            0.31238977034758        2.07067427098208        0.65193736800696
C           -1.29695700510141       -1.39996043042223        2.41574187746061
C           -0.38243517664656       -2.18060797534842        3.13232615520648
N            0.91308504082021       -1.90366887689689        3.30325166013478
C            1.37712470144904       -0.74872102533751        2.81811050966982
C            2.52149331701875       -0.17739833758153        3.39379298866852
C            2.95849061756259        1.02681208890480        2.95105897606587
C            2.24288949469137        1.78498308775960        2.03503020483770
C           -2.74860936222260       -1.74497937691422        2.38401158947411
C           -3.09416315450955       -2.91614440870436        3.00571134491758
C           -2.16786021984049       -3.77788778654213        3.63251872101904
C           -0.85708937311598       -3.40495313382985        3.68547234358092
O           -3.71994433332149       -0.94984598373544        1.67726658385724
O           -2.55702603277562       -1.47241711578389       -0.57241635275616
C           -3.84297843593025        3.13357444054366       -1.60938954875544
C           -2.68769581069131       -5.03867041417370        4.30484659386931
H           -1.39666850744143        3.51251503834900       -0.76806311868865
H           -4.27662633836220        0.55105838579656       -1.33106614114542
H            2.66329581305412        2.73912661909249        1.72562431984580
H            3.05775395548473       -0.69369546277216        4.16536137542516
H           -0.24710966264510       -4.12034095424229        4.22946223699121
H           -4.11477991332403       -3.04712728052358        3.03244694615357
O           -4.21824883374556        4.03433712717988       -0.87713382485991
O           -4.44510595673734        2.90643496899600       -2.81853501752979
C           -5.44216520282800        3.83300025693726       -3.02488532025093
C            4.23586651889298        1.50004220933226        3.59165660008449
O            5.05927614697201        0.66079890002952        3.91714215179376
O            4.47001334453535        2.86385149488593        3.72605651435371
C            5.79457498613219        3.08584475587818        4.15829123132174
O           -3.82227255313510       -5.27347675879771        4.16636005494405
O           -1.85023202017753       -5.79767454267276        5.06656077253571
C           -2.55119635829503       -6.86252441382958        5.62930343183426
C           -5.07197156564436       -1.42399175670916        1.58830531863830
C           -1.33089900128490       -2.23622472573986       -0.99264499351172
H           -2.54510546830388       -7.76426885143998        4.99136022291012
H           -3.57194749219491       -6.44405511486021        5.74196173723541
H           -2.09133598235598       -7.02043774843818        6.64022264233588
H            5.72707967266424        3.46798026205549        5.10135971236643
H            6.34060091246885        3.78468702308830        3.50069950143490
H            6.17933064298187        2.03010500085905        4.19342358084693
H           -0.91862729772622       -2.57650129080332       -0.01361370304871
H           -0.49769766914251       -1.60651221708571       -1.34094446550576
H           -1.52632419730509       -2.94569707152159       -1.75361447637286
H           -5.11788846557077       -2.41810833635233        1.17520213188926
H           -5.67929807973498       -0.69619639428435        1.04301666067831
H           -5.57598832326623       -1.42383358739762        2.57928294206544
H           -6.13050215934830        3.76035386975488       -2.23272855695873
H           -5.86615610071888        3.45938329385866       -4.02668959924245
H           -5.13479557532099        4.87790991548477       -2.98314551356402
C           -1.38192942069774        3.73616555005018        2.91232598411686
C           -1.84821468128685        2.59982427735607        3.49755545445181
C           -1.05946531454833        2.05730632010638        4.60922730982276
C            0.19893954712228        2.69376791964407        4.86302140881997
C            0.50425395911860        3.94630308659851        4.28768785650746
C           -0.26031777722226        4.46998310053134        3.25072669343212
C           -1.20488993561782        0.74454293276906        5.14851520323437
C           -0.06287609782692        0.02744069315890        5.60930570802864
C            1.19208754369866        0.71421540266195        5.78882868583885
N            1.19428660993148        2.06344359410476        5.62744624321596
C           -2.41361422770794        0.07928500213936        5.25249410304426
C           -2.45851584031083       -1.32662100968547        5.60237876023992
N           -1.29466212405906       -1.98318595734370        5.89916817085159
C           -0.14475655767527       -1.32117560077092        5.98824682881008
C            0.97209270935794       -1.98958449505532        6.53157704134458
C            2.21982707914082       -1.36973967291181        6.68703967237737
C            2.30561929262884       -0.09745313075593        6.26436900324455
C           -3.73018485967715        0.71367583494582        5.25810242262992
C           -4.89964478833448       -0.06184623426677        5.21204641615509
C           -4.82617965800088       -1.39228978090841        5.46901303780036
C           -3.67144193418464       -1.98914944386360        5.67265433266067
O           -3.75568638935321        2.07705011038914        5.52067969627343
O           -2.94192434743730        1.91263938797883        3.01658762327703
C            0.21273512614467        5.50086066357994        2.34765104514621
C           -6.06660304520411       -2.17604633098929        5.80641622556876
H            1.41756699010566        4.38133362238595        4.66974005703471
H           -1.82880610647429        4.11982501512100        2.06992133318584
H            3.26888037378556        0.32655662585251        6.31721410015598
H            0.87146188387207       -3.08471526305024        6.57830423410869
H           -3.67716811065157       -3.05999292755990        5.83019634570050
H           -5.77379677507622        0.43595144608221        4.71017130754348
O            1.34459852619901        5.82615848916894        2.44941456579099
O           -0.74718748219123        6.07961784856304        1.59848183464284
C           -0.21473095568964        7.24015934882472        1.05753806029483
C            3.53228080814219       -2.00967610361154        7.02506769044485
O            3.64093082622715       -3.14437803815732        7.50071391725347
O            4.56565258381079       -1.22937033368332        6.69086985080897
C            5.72579357310716       -1.80692399125161        7.22246151275881
O           -7.04801223588612       -1.95726935745904        5.14194115322235
O           -6.01514389321278       -2.93743591896022        6.94765316328794
C           -7.21292732384718       -3.62681918543340        7.15115816329978
C           -4.95459780685163        2.65960679932188        5.86868674392943
C           -3.68284113682406        2.59129188358641        2.05479246020704
H           -7.43119628931628       -4.22607794725959        6.20622607140901
H           -8.06548455146707       -2.91765848248592        7.29781126410398
H           -7.07314693247270       -4.33087306029711        7.91223421050944
H            6.57332189837178       -1.29353136199234        6.78341268688262
H            5.74663761932316       -2.84282155125561        6.88089468184451
H            5.69426191474290       -1.72781984964892        8.29460302186842
H           -4.10481209541493        3.44288266176275        2.60483747673152
H           -4.49244774344916        1.87419893016926        1.82433103764650
H           -3.18901540870812        2.85154642679373        1.06781919454921
H           -5.55414326821421        2.76698137191684        4.93950725322359
H           -4.78658370641210        3.62090640967288        6.25983200635257
H           -5.43485580473958        1.97242995129449        6.65265772412460
H            0.89164886030839        7.38838561720231        1.13776105146914
H           -0.62894889903848        8.04195665205089        1.64837664327952
H           -0.59282546386754        7.45699159724320        0.03719083132488
116
 energy: -22.490527601973 gnorm: 0.631169464826 xtb: 6.6.1 (8d0f1dd)
C           -2.20901442210182        0.05437935625798       -1.58907357124458
C           -2.11886370206721       -0.53734785175420       -0.31683202543671
C           -1.17444560241507        0.02515649787758        0.63316926686083
C           -0.50692406415377        1.20187138893644        0.28282516150703
C           -0.99784167337399        1.90248459653354       -0.87415855549323
C           -1.94355034124053        1.49205881653242       -1.67893123896668
C           -0.55981411570117       -0.82335204868258        1.67785168109346
C            0.78664085462396       -0.30231408642886        1.90299837165942
C            1.33140915605950        0.95384996049233        1.78175363095586
N            0.55416679766269        1.84377341788072        1.02078593621446
C           -0.91675757555236       -2.11325521732544        2.29778194693431
C            0.11451599968590       -2.93527838744153        2.85232613483034
N            1.38423255709242       -2.55005725565153        2.86463275099088
C            1.69688437020925       -1.26453440631121        2.53419334813580
C            3.12625271365560       -1.07004799891324        2.67726440563110
C            3.56377931035948        0.17261314961901        2.55557918195681
C            2.65231424840014        1.14093035028788        2.29911933252157
C           -2.23964455592084       -2.33282532481013        2.71283040620038
C           -2.52115919270577       -3.71963802378514        3.09383878371607
C           -1.51809037811688       -4.60076379921567        3.12066689185482
C           -0.19833254379454       -4.26316011898733        3.04056495834062
O           -3.06798430175963       -1.30008415504343        2.22378596468859
O           -2.49013035377904       -1.92335368442715       -0.31538494007735
C           -2.26922899898567        2.35684036414287       -2.83365560517034
C           -1.89839272986797       -5.91443953025365        3.56783200549296
H           -0.54096430743505        2.87735196323575       -0.58446961070321
H           -3.02282711307078       -0.37885541101383       -2.20564986295151
H            3.14592924232513        2.08907755156846        2.38599306252229
H            3.92743993728299       -1.75819612296264        2.89164884433086
H            0.58749351108339       -5.04902194579128        3.14138283484450
H           -3.46889455178953       -4.03630396766824        2.91855211717669
O           -1.40309096362272        3.00691161683669       -3.31970509042072
O           -3.58240708860719        2.07422131134381       -3.39731763556277
C           -3.89672760324838        2.84630305211767       -4.58230301133969
C            4.94622214295188        0.52756537071708        2.78379499659937
O            5.74156678416386       -0.42518308705043        2.57841391198418
O            5.03823365513268        1.84375002141655        3.17710679322060
C            6.16880136581097        2.10849282052343        3.76381375190500
O           -2.92277910048513       -6.00346130853939        4.21628185756764
O           -1.07610820566241       -6.97001718087358        3.15197068234943
C           -1.81513649184970       -8.24962792692884        3.26431433609343
C           -4.49954911408654       -1.59221653127495        2.59868282001458
C           -1.81944672021936       -2.77639168022431       -1.11758245976620
H           -2.85331350283435       -8.27933994951052        3.60732109063320
H           -1.46385255068425       -8.94343078085442        4.13782948137045
H           -1.64915158779206       -8.93544675361597        2.53937059264986
H            6.95679725071149        1.24167225258152        3.67338064154200
H            5.93723832496922        2.73594407468555        4.62030113675590
H            6.57883092287537        3.12921946163372        3.33218017651311
H           -2.24949519465182       -3.75205993946842       -1.20473443538362
H           -0.64149768621371       -2.76632808023039       -0.60223449092153
H           -1.43817226983945       -2.28060940569260       -2.04864578320391
H           -5.11303184952749       -0.74376668941023        2.16319448288450
H           -4.85337430860323       -1.84844351465100        3.55226124371973
H           -4.94970032064488       -2.51866714796130        2.09396997847399
H           -4.11938546624878        2.04028746724456       -5.19915139067291
H           -2.97091642910502        3.32352991002300       -5.08706375492549
H           -4.71014812762676        3.54003679573266       -4.27689520090417
C           -2.70330686316079        4.81578687659160        4.13962047444642
C           -2.77170233129397        3.38786678305534        4.60091487772594
C           -1.66260963171965        2.50462674955309        5.02157152806181
C           -0.56061992289864        3.23734206635292        4.96883269049059
C           -0.35806023298595        4.41204901137684        4.24028396935924
C           -1.40616993645267        5.26165019316494        3.95382849119446
C           -1.77591526744094        1.21820640160468        5.59625680977423
C           -0.53769002450765        0.50505403440489        5.84048055231164
C            0.64012916628204        1.28642733387175        5.83269479275600
N            0.62718592880918        2.54933113726155        5.42056841377404
C           -3.01104432503663        0.57827639903590        6.06428382852244
C           -2.84154427088250       -0.77960068966880        6.10609355036961
N           -1.66131770973249       -1.48732125437853        6.18999726044173
C           -0.54999028577491       -0.83701188617234        6.04507072178872
C            0.71374063943596       -1.44725164073442        6.53322449799512
C            1.85528996381122       -0.63978862536673        6.51432929484044
C            1.82394520397405        0.67094275028408        6.12728812502372
C           -4.04257938873287        1.19674990378027        6.88598286534198
C           -5.21164430648917        0.49215716319683        6.96609090332628
C           -5.32758696278124       -0.90336042892144        6.74286262374962
C           -4.07380710073265       -1.46369607388511        6.45242449363908
O           -3.89260744427192        2.51745308472573        7.46004340928445
O           -3.97096492724228        2.84608278897520        4.47869439065120
C           -1.07639016744413        6.48916464946349        3.29636055182584
C           -6.70123641890730       -1.35235551868595        6.47752317034708
H            0.54882254327339        4.99410344435606        4.54580564239138
H           -3.64052163532472        5.35663862852623        4.10520877350296
H            2.74241144365028        1.28525413930789        6.04787191522286
H            0.56299225160056       -2.51479916159241        6.50453576413524
H           -4.10920094605979       -2.40450601879543        6.17980614673230
H           -6.09167337311677        1.04321154830600        6.71642628367535
O           -0.97291314305366        7.60366885362211        3.59662164576924
O           -0.92148727799350        6.43969131748607        1.92119972048458
C           -0.88943089504107        7.40782199286210        1.04990042949390
C            3.17754350347850       -1.25306575434163        6.51121399229223
O            3.13833136340039       -2.46529105280943        6.20805377668816
O            4.25509103490841       -0.51600587845813        6.69353253074956
C            5.43052935513631       -0.95242961079700        5.93456223374761
O           -6.94817072693632       -2.36644671048452        5.90011940963979
O           -7.68798767212794       -0.49940647311630        6.93954087975657
C           -9.00250338853711       -1.03484413753606        6.56993402757029
C           -4.92023598223279        3.14343294516862        8.42763875668030
C           -4.46611464583673        2.82615018508549        3.20386048589325
H           -8.97074439373246       -1.65762943999358        5.58300638814750
H           -9.66811305819765       -0.11761656931676        6.21557155265158
H           -9.47680506260068       -1.62570790716430        7.23473786907320
H            6.05481684469003       -0.04523793664443        5.84090100442483
H            5.23336667120069       -1.24353094461567        4.88396949470273
H            6.34078189281282       -1.47957162248432        6.41816128456829
H           -5.51654174822366        3.18210652062646        3.12554852109071
H           -4.63902963308602        1.81148605600095        2.92441957445964
H           -3.74182389829847        3.47087163297495        2.51988757418066
H           -5.91593623399247        3.28016748198440        8.12345227596259
H           -4.48415397533195        4.16320616963861        8.53910843172755
H           -4.87501614528076        2.69678128281603        9.27756759073170
H            0.02439395343647        8.17085706348351        0.82206602862842
H           -1.85804933466095        7.87839580701164        0.99231718642402
H           -0.71605362545572        6.88228090588196        0.07511003741590
116
 energy: -22.488036301554 gnorm: 0.622739307847 xtb: 6.6.1 (8d0f1dd)
C           -1.62496519152603        0.10258194311363       -1.73454844201095
C           -0.91690245789785       -0.79074442603517       -0.88002412214140
C           -0.26113885989827       -0.21811591701506        0.27309931881229
C            0.09004151874554        1.11903360013377        0.15679329107860
C           -0.78402873752120        1.97930805919619       -0.57150066541381
C           -1.78650790288213        1.39795569676210       -1.40572726712404
C            0.21685268801607       -0.95375570376105        1.41632043859958
C            1.44108111858783       -0.40023161613380        1.96067237736267
C            1.82545446057440        0.95468793770026        1.75679028586875
N            1.16017545624544        1.70745519190098        0.79540667289366
C           -0.44636115792050       -2.17515257883032        1.90068523608202
C            0.68478298786631       -3.09864468233815        2.15675419486117
N            1.91865674333433       -2.72290979775331        2.35688190020099
C            2.37869078589279       -1.37212653228253        2.31229897077963
C            3.66660956445509       -1.02360292997620        2.73569462701389
C            4.06012380676675        0.29623254342480        2.62923681797375
C            3.11630323041304        1.32412348708175        2.14488995339737
C           -1.71350790576309       -2.67091132547144        1.70950719489731
C           -1.83744737784346       -4.00363850810265        2.01421791664502
C           -0.83212397936941       -5.04000267406105        2.40602643848119
C            0.42459740685641       -4.46271675247587        2.52147503478225
O           -2.70916107324636       -1.86102713206930        1.41690530643293
O           -0.58946925516526       -2.05960086303542       -1.33697851887701
C           -2.43292958388582        2.09264657441470       -2.43628575321669
C           -1.32126913481618       -6.45445102379465        2.71736271319888
H           -0.83434567203276        3.02876219061817       -0.52341605724626
H           -2.21401755455650       -0.19462821789910       -2.62078953507669
H            3.32761471292056        2.36143099330093        2.22864313794711
H            4.37318922592244       -1.83405294664194        2.96808858170362
H            1.24064570181529       -4.98053680912514        2.92214328221369
H           -2.80043225382035       -4.51972953149408        1.84183607336146
O           -2.38697621516045        3.28980827203328       -2.34072435555851
O           -3.10298550173691        1.55628050338787       -3.51641251028397
C           -3.47011821022362        2.49670951784288       -4.46826103658761
C            5.26833321152926        0.64538080296884        3.30484857136579
O            5.39456198063022        1.56509392708016        4.17210628154515
O            6.19739230920063        0.12599839387320        2.59140825482445
C            7.51843319359188        0.36606035957457        3.14812615636602
O           -2.28796845475357       -6.83657096085705        1.96696107240784
O           -0.86653852640944       -7.18774630456110        3.74690739357810
C           -1.12351778531485       -8.65307912144747        3.62726184967185
C           -4.14968911075765       -2.23802985066907        1.31446552016244
C           -1.66131109679245       -2.88532922663437       -1.65861312579293
H           -0.98090763531461       -8.99191623491865        2.60935103975663
H           -2.35132783810353       -8.79951078338768        3.51305729670045
H           -0.72214529920128       -8.73624334199424        4.74476896072229
H            7.82585919940534        0.67399108269057        4.15855659127444
H            7.91408598282014        1.23649288445380        2.63632193451336
H            8.13706531038418       -0.69932903312319        3.01096503473796
H           -1.19563930800963       -3.83639963422712       -1.52690747035386
H           -2.06304031837800       -2.62517115017512       -2.83721866457012
H           -2.57133817031146       -2.82654485568541       -1.23150100540363
H           -4.50741025470858       -1.85261942634436        2.16123861406573
H           -4.17894998696834       -3.46604117949800        1.10279627048373
H           -4.43527590827111       -1.50066285088230        0.54969607774864
H           -4.29300411189585        3.08106871357067       -3.91652799551061
H           -3.92221937713060        1.98817573486374       -5.30302332885591
H           -2.60687189319768        3.38504120155718       -4.48585408888012
C           -3.41782284748376        4.65692674905160        3.45075350105316
C           -3.59678530957592        3.42462467902687        4.05103118108007
C           -2.34927349303215        2.83753698905233        4.60212952043781
C           -0.97264333641734        3.28783538051129        4.47406274404949
C           -1.08072806932762        4.52610713885764        3.95470569812625
C           -2.09696872637901        5.28845662847801        3.38042477807515
C           -2.53483125386412        1.63992956116708        5.43974931896868
C           -1.41323738982646        0.79687505917983        5.38484088798547
C           -0.04658604367946        1.21315907509461        4.97071072118717
N            0.16430149666340        2.51224839576216        4.80521642424525
C           -3.70829396802334        1.26881088269778        6.04163701840303
C           -3.75531359959838       -0.10656325230400        6.22021980943153
N           -2.77735862424329       -1.03348260154365        5.86749274828090
C           -1.57140189261049       -0.59353614187195        5.58781865116755
C           -0.40812373099750       -1.47819934693259        5.50585470676517
C            0.87823533523264       -0.98629270036721        5.59312833456470
C            1.00047077295323        0.37582282009674        5.33208325875312
C           -4.54352311960831        2.20664493996472        6.78758236395705
C           -5.60028458280234        1.59770673693347        7.39683726720575
C           -5.72250790278845        0.12709027303585        7.47559808366962
C           -4.68100783091783       -0.67963448990472        7.00147118217281
O           -4.21785657618628        3.57963213447534        7.00040964923683
O           -4.85504781450909        2.77870636702969        3.90843882462967
C           -2.25587102815494        6.78582134935114        3.00210767184734
C           -6.80985181184275       -0.47877854758302        8.25777926753114
H           -0.13645719670711        5.09478145815791        3.91533427269374
H           -4.16731701193429        5.27944252256365        3.07920560669840
H            1.98243250936752        1.01052707813830        5.30814447652292
H           -0.33679769972889       -2.53054713117252        5.34916841113640
H           -4.51012437805267       -1.62662131942669        7.32228883154137
H           -6.35881609632246        2.13854672431822        7.85688438756725
O           -3.11618311210276        7.43678206585305        2.51716787093574
O           -0.85041103162616        7.22585384549576        3.23384504944312
C           -0.37595556572592        8.46516038853688        3.07576352194987
C            2.28208067974229       -1.60765215985461        5.79902996521191
O            2.69283657193437       -2.63517427188784        5.32685386517768
O            2.85992238144532       -0.97877578501216        6.84563155278644
C            3.98077311151917       -1.67637183298717        7.36895273907193
O           -6.56349920157736       -1.64641167571876        8.73720110310731
O           -7.86794328121778        0.23350524297865        8.80410504199197
C           -8.14114279473370       -0.33667811157473       10.03239729548975
C           -4.30965652937244        4.02804822187190        8.27164232527293
C           -4.63473347037961        1.46177934171673        3.36830267752492
H           -8.15391419720986        0.01852529282465       11.17396794445750
H           -7.55540619521618       -1.27771871019963       10.13959005160021
H           -9.16733919269854       -0.58337496721093       10.01374836605189
H            4.51619653344019       -1.16757157574876        8.12920292702520
H            4.82965114495074       -1.89372708883410        6.68619977180521
H            3.67207644831450       -2.60243767169413        7.86063634817066
H           -4.98789316380511        0.70202697189164        4.10500110905807
H           -3.49910755116312        1.29562235494179        3.21495085976531
H           -5.12953159186281        1.30923701393289        2.43312201470060
H           -3.45364973257229        4.15767771058774        8.79141973267747
H           -5.18011155242426        3.70881725403710        9.02177896879164
H           -4.60082563424240        5.09678967628683        8.10959979931565
H           -0.83427803604780        9.46226916992813        3.46537864513946
H           -0.61789150021537        8.41558387900582        2.07007759533404
H            0.77217309507933        8.67503137930484        3.12017286186671
116
 energy: -22.521263077465 gnorm: 0.582012834920 xtb: 6.6.1 (8d0f1dd)
C           -2.33992988285998        0.39958580702687       -1.19961574468300
C           -1.54725332245443       -0.60334003071263       -0.82358897846094
C           -0.39391557338918       -0.31701619148151        0.02359908563179
C            0.13833334256994        1.05553902509741       -0.01813398532362
C           -0.87078717012450        2.07202162313158       -0.22187889048484
C           -2.07691053958275        1.74322610015948       -0.83353266072442
C            0.60025718633492       -1.21522273527579        0.49190708553678
C            1.87852687313129       -0.81959549946578        0.87869285817830
C            2.29359008099146        0.56731870214330        0.63333136086937
N            1.41623515726418        1.48402512785387        0.36489228935366
C            0.18882309667013       -2.41220811235941        1.26330808736685
C            1.23860249852517       -3.43998265833189        1.58737458798134
N            2.52957631601405       -3.12966533998528        1.45383938203162
C            2.83719238856209       -1.76190302435052        1.25666750076648
C            3.97857835223029       -1.35228466137002        1.92434243508944
C            4.29953854860431        0.03134440978812        1.82357031550797
C            3.54664600588098        0.99435893502203        1.05647798407045
C           -0.94220973469196       -2.63178376588382        2.07415527939602
C           -1.30535777425578       -3.98169106180603        2.41823440483439
C           -0.45471674594071       -5.00970739358480        2.29473464839790
C            0.88472159281432       -4.70629547698671        2.08428574588787
O           -1.80784586192704       -1.44892339810571        2.16512593163540
O           -1.63506167042758       -1.88400951350371       -1.54654315801123
C           -2.65593469198927        2.93972562507046       -1.69803402195522
C           -0.85619155578707       -6.34667960848153        2.69971240416608
H           -0.74252146647939        3.12210254805125       -0.11044439653966
H           -3.15409854948856        0.46041062201487       -1.83487255878438
H            3.63838530310275        2.10435728764893        0.92771764098914
H            4.55578380744034       -1.96863526939536        2.59418695532407
H            1.69933728756033       -5.29657796286392        2.18257756183921
H           -2.31489524512193       -4.17426004937292        2.62150058720449
O           -1.93755818938695        3.72629001008799       -2.37416092404267