Optimization of monomers started
      -----------------------------------------------------------      
     |                   =====================                   |     
     |                           x T B                           |     
     |                   =====================                   |     
     |                         S. Grimme                         |     
     |          Mulliken Center for Theoretical Chemistry        |     
     |                    University of Bonn                     |     
      -----------------------------------------------------------      

   * xtb version 6.7.1 (edcfbbe) compiled by 'runner@Mac-1732539442253.local' on 2024-11-25

   xtb is free software: you can redistribute it and/or modify it under
   the terms of the GNU Lesser General Public License as published by
   the Free Software Foundation, either version 3 of the License, or
   (at your option) any later version.
   
   xtb is distributed in the hope that it will be useful,
   but WITHOUT ANY WARRANTY; without even the implied warranty of
   MERCHANTABILITY or FITNESS FOR A PARTICULAR PURPOSE.  See the
   GNU Lesser General Public License for more details.
   
   Cite this work as:
   * C. Bannwarth, E. Caldeweyher, S. Ehlert, A. Hansen, P. Pracht,
     J. Seibert, S. Spicher, S. Grimme, WIREs Comput. Mol. Sci., 2020, 11,
     e01493. DOI: 10.1002/wcms.1493
   
   for GFN2-xTB:
   * C. Bannwarth, S. Ehlert and S. Grimme., J. Chem. Theory Comput., 2019,
     15, 1652-1671. DOI: 10.1021/acs.jctc.8b01176
   for GFN1-xTB:
   * S. Grimme, C. Bannwarth, P. Shushkov, J. Chem. Theory Comput., 2017,
     13, 1989-2009. DOI: 10.1021/acs.jctc.7b00118
   for GFN0-xTB:
   * P. Pracht, E. Caldeweyher, S. Ehlert, S. Grimme, ChemRxiv, 2019, preprint.
     DOI: 10.26434/chemrxiv.8326202.v1
   for GFN-FF:
   * S. Spicher and S. Grimme, Angew. Chem. Int. Ed., 2020, 59, 15665-15673.
     DOI: 10.1002/anie.202004239
   
   for ALPB and GBSA implicit solvation:
   * S. Ehlert, M. Stahn, S. Spicher, S. Grimme, J. Chem. Theory Comput.,
     2021, 17, 4250-4261. DOI: 10.1021/acs.jctc.1c00471
   
   for ddCOSMO and CPCM-X implicit solvation:
   * M. Stahn, S. Ehlert, S. Grimme, J. Phys. Chem. A,
     2023, XX, XXXX-XXXX. DOI: 10.1021/acs.jpca.3c04382
   
   for DFT-D4:
   * E. Caldeweyher, C. Bannwarth and S. Grimme, J. Chem. Phys., 2017,
     147, 034112. DOI: 10.1063/1.4993215
   * E. Caldeweyher, S. Ehlert, A. Hansen, H. Neugebauer, S. Spicher,
     C. Bannwarth and S. Grimme, J. Chem. Phys., 2019, 150, 154122.
     DOI: 10.1063/1.5090222
   * E. Caldeweyher, J.-M. Mewes, S. Ehlert and S. Grimme, Phys. Chem. Chem. Phys.
     2020, 22, 8499-8512. DOI: 10.1039/D0CP00502A
   
   for sTDA-xTB:
   * S. Grimme and C. Bannwarth, J. Chem. Phys., 2016, 145, 054103.
     DOI: 10.1063/1.4959605
   
   in the mass-spec context:
   * V. Asgeirsson, C. Bauer and S. Grimme, Chem. Sci., 2017, 8, 4879.
     DOI: 10.1039/c7sc00601b
   * J. Koopman and S. Grimme, ACS Omega 2019, 4, 12, 15120-15133.
     DOI: 10.1021/acsomega.9b02011
   
   for metadynamics refer to:
   * S. Grimme, J. Chem. Theory Comput., 2019, 155, 2847-2862
     DOI: 10.1021/acs.jctc.9b00143
   
   for SPH calculations refer to:
   * S. Spicher and S. Grimme, J. Chem. Theory Comput., 2021, 17, 1701-1714
     DOI: 10.1021/acs.jctc.0c01306
   
   for ONIOM refer to:
   * C. Plett, A. Katbashev, S. Ehlert, S. Grimme, M. Bursch,
     Phys. Chem. Chem. Phys., 2023, 25, 17860-17868. DOI: 10.1039/D3CP02178E
   
   for DIPRO refer to:
   * J. Kohn, N. Gildemeister, S. Grimme, D. Fazzi, A. Hansen,
     J. Chem. Phys., 2023, just accepted.
   
   for PTB refer to:
   * S. Grimme, M. Mueller, A. Hansen, J. Chem. Phys., 2023, 158, 124111.
     DOI: 10.1063/5.0137838
   
   with help from (in alphabetical order)
   P. Atkinson, C. Bannwarth, F. Bohle, G. Brandenburg, E. Caldeweyher
   M. Checinski, S. Dohm, S. Ehlert, S. Ehrlich, I. Gerasimov, C. Hölzer
   A. Katbashev, J. Kohn, J. Koopman, C. Lavigne, S. Lehtola, F. März, M. Müller,
   F. Musil, H. Neugebauer, J. Pisarek, C. Plett, P. Pracht, F. Pultar,
   J. Seibert, P. Shushkov, S. Spicher, M. Stahn, M. Steiner, T. Strunk,
   J. Stückrath, T. Rose, and J. Unsleber
   
 * started run on 2025/03/06 at 11:26:24.353     
   ID    Z sym.   atoms
    1    6 C      1-9, 11, 12, 14-21, 23-31, 33, 34, 36-43, 47, 48, 50-73,
                  77, 81
    2    7 N      10, 13, 32, 35, 46, 49
    3    8 O      22, 44
    4    5 B      45
    5    1 H      74-76, 78-80, 82-151

           -------------------------------------------------
          |                Calculation Setup                |
           -------------------------------------------------

          program call               : xtb Base2tBu.mol --opt --iterations 2000 --chrg 0 --uhf 1 --gfn 2
          coordinate file            : Base2tBu.mol
          omp threads                :                     8


           -------------------------------------------------
          |                 G F N 2 - x T B                 |
           -------------------------------------------------

        Reference                      10.1021/acs.jctc.8b01176
      * Hamiltonian:
        H0-scaling (s, p, d)           1.850000    2.230000    2.230000
        zeta-weighting                 0.500000
      * Dispersion:
        s8                             2.700000
        a1                             0.520000
        a2                             5.000000
        s9                             5.000000
      * Repulsion:
        kExp                           1.500000    1.000000
        rExp                           1.000000
      * Coulomb:
        alpha                          2.000000
        third order                    shell-resolved
        anisotropic                    true
        a3                             3.000000
        a5                             4.000000
        cn-shift                       1.200000
        cn-exp                         4.000000
        max-rad                        5.000000


          ...................................................
          :                      SETUP                      :
          :.................................................:
          :  # basis functions                 376          :
          :  # atomic orbitals                 376          :
          :  # shells                          226          :
          :  # electrons                       385          :
          :  max. iterations                  2000          :
          :  Hamiltonian                  GFN2-xTB          :
          :  restarted?                      false          :
          :  GBSA solvation                  false          :
          :  PC potential                    false          :
          :  electronic temp.          300.0000000     K    :
          :  accuracy                    1.0000000          :
          :  -> integral cutoff          0.2500000E+02      :
          :  -> integral neglect         0.1000000E-07      :
          :  -> SCF convergence          0.1000000E-05 Eh   :
          :  -> wf. convergence          0.1000000E-03 e    :
          :  Broyden damping             0.4000000          :
          :  net charge                          0          :
          :  unpaired electrons                  1          :
          ...................................................

 iter      E             dE          RMSdq      gap      omega  full diag
   1   -210.0986931 -0.210099E+03  0.370E+00    0.01       0.0  T
   2   -209.8837035  0.214990E+00  0.238E+00    0.15       1.0  T
   3   -209.3981856  0.485518E+00  0.227E+00    0.57       1.0  T
   4   -209.9035327 -0.505347E+00  0.148E+00    0.49       1.0  T
   5   -209.8345816  0.689511E-01  0.134E+00    0.35       1.0  T
   6   -210.3759956 -0.541414E+00  0.737E-01    0.10       1.0  T
   7   -210.4456028 -0.696071E-01  0.461E-01    0.01       1.0  T
   8   -210.4329941  0.126087E-01  0.438E-01    0.02       1.0  T
   9   -210.4610703 -0.280763E-01  0.330E-01    0.01       1.0  T
  10   -210.4617496 -0.679293E-03  0.288E-01    0.02       1.0  T
  11   -210.4531942  0.855546E-02  0.318E-01    0.05       1.0  T
  12   -210.4711444 -0.179503E-01  0.187E-01    0.02       1.0  T
  13   -210.4733886 -0.224418E-02  0.148E-01    0.03       1.0  T
  14   -210.4744783 -0.108968E-02  0.135E-01    0.01       1.0  T
  15   -210.4795035 -0.502521E-02  0.397E-02    0.01       1.0  T
  16   -210.4795774 -0.739426E-04  0.337E-02    0.01       1.0  T
  17   -210.4797635 -0.186021E-03  0.151E-02    0.01       1.0  T
  18   -210.4797736 -0.100921E-04  0.109E-02    0.01       1.0  T
  19   -210.4798061 -0.325555E-04  0.692E-03    0.01       1.2  T
  20   -210.4798183 -0.121561E-04  0.209E-03    0.01       3.9  T
  21   -210.4798179  0.338700E-06  0.192E-03    0.01       4.2  T
  22   -210.4798193 -0.134260E-05  0.727E-04    0.01      11.2  T
  23   -210.4798194 -0.108856E-06  0.196E-04    0.01      41.6  T
  24   -210.4798194 -0.546353E-08  0.120E-04    0.01      67.6  T

   *** convergence criteria satisfied after 24 iterations ***

         #    Occupation            Energy/Eh            Energy/eV
      -------------------------------------------------------------
         1        2.0000           -0.6798332             -18.4992
       ...           ...                  ...                  ...
       187        2.0000           -0.3617669              -9.8442
       188        2.0000           -0.3573831              -9.7249
       189        2.0000           -0.3528514              -9.6016
       190        2.0000           -0.3515468              -9.5661
       191        1.9745           -0.3413543              -9.2887
       192        1.8699           -0.3397126              -9.2440
       193        0.6187           -0.3355051              -9.1296 (HOMO)
       194        0.5369           -0.3352591              -9.1229 (LUMO)
       195                         -0.2699222              -7.3450
       196                         -0.2695632              -7.3352
       197                         -0.2305926              -6.2747
       198                         -0.2298010              -6.2532
       ...                                ...                  ...
       376                          0.7121280              19.3780
      -------------------------------------------------------------
                  HL-Gap            0.0002460 Eh            0.0067 eV
             Fermi-level           -0.3365896 Eh           -9.1591 eV

 SCC (total)                   0 d,  0 h,  0 min,  2.167 sec
 SCC setup                      ...        0 min,  0.001 sec (  0.060%)
 Dispersion                     ...        0 min,  0.002 sec (  0.101%)
 classical contributions        ...        0 min,  0.001 sec (  0.024%)
 integral evaluation            ...        0 min,  0.011 sec (  0.496%)
 iterations                     ...        0 min,  2.070 sec ( 95.561%)
 molecular gradient             ...        0 min,  0.074 sec (  3.431%)
 printout                       ...        0 min,  0.007 sec (  0.327%)

         :::::::::::::::::::::::::::::::::::::::::::::::::::::
         ::                     SUMMARY                     ::
         :::::::::::::::::::::::::::::::::::::::::::::::::::::
         :: total energy            -207.215854616493 Eh    ::
         :: gradient norm              0.000599258291 Eh/a0 ::
         :: HOMO-LUMO gap              0.006693070557 eV    ::
         ::.................................................::
         :: SCC energy              -210.471817836417 Eh    ::
         :: -> isotropic ES            0.148302022766 Eh    ::
         :: -> anisotropic ES          0.025698413302 Eh    ::
         :: -> anisotropic XC          0.117194749937 Eh    ::
         :: -> dispersion             -0.220899174087 Eh    ::
         :: repulsion energy           3.255963219925 Eh    ::
         :: add. restraining           0.000000000000 Eh    ::
         :: total charge               0.000000000000 e     ::
         :::::::::::::::::::::::::::::::::::::::::::::::::::::

      ----------------------------------------------------------- 
     |                   =====================                   |
     |                        A N C O P T                        |
     |                   =====================                   |
     |               Approximate Normal Coordinate               |
     |                Rational Function Optimizer                |
      ----------------------------------------------------------- 
      ----------------------------------------------------------- 
     |                   =====================                   |
     |                        A N C O P T                        |
     |                   =====================                   |
     |               Approximate Normal Coordinate               |
     |                Rational Function Optimizer                |
      ----------------------------------------------------------- 

          ...................................................
          :                      SETUP                      :
          :.................................................:
          :   optimization level            normal          :
          :   max. optcycles                   453          :
          :   ANC micro-cycles                  20          :
          :   degrees of freedom               447          :
          :.................................................:
          :   RF solver                   davidson          :
          :   write xtbopt.log                true          :
          :   linear?                        false          :
          :   energy convergence         0.5000000E-05 Eh   :
          :   grad. convergence          0.1000000E-02 Eh/α :
          :   maxmium RF displ.          1.0000000          :
          :   Hlow (freq-cutoff)         0.1000000E-01      :
          :   Hmax (freq-cutoff)         5.0000000          :
          :   S6 in model hess.         20.0000000          :
          ...................................................

generating ANC from exact Hessian ...
Using Lindh-Hessian (1995)
 Shifting diagonal of input Hessian by    9.9701085507022894E-003
 Lowest  eigenvalues of input Hessian
    0.000000    0.000000    0.000000    0.000000    0.000000    0.000000
    0.010000    0.010019    0.010071    0.010151    0.010211    0.010298
    0.010390    0.010405    0.010491    0.010536    0.010570    0.010655
 Highest eigenvalues
    2.085065    2.090343    2.185200    2.191577    2.192653    2.197186


........................................................................
.............................. CYCLE    1 ..............................
........................................................................

 iter      E             dE          RMSdq      gap      omega  full diag
   1   -210.4798194 -0.210480E+03  0.446E-05    0.01       0.0  T
   2   -210.4798193  0.137668E-06  0.579E-04    0.01      14.0  T
   3   -210.4798194 -0.133046E-06  0.129E-04    0.01      63.2  T
     SCC iter.                  ...        0 min,  0.228 sec
     gradient                   ...        0 min,  0.108 sec
 * total energy  :  -207.2158546 Eh     change       -0.3806235E-09 Eh
   gradient norm :     0.0005990 Eh/α   predicted     0.0000000E+00 (-100.00%)
   displ. norm   :     0.0212029 α      lambda       -0.2708857E-05
   maximum displ.:     0.0137436 α      in ANC's #1, #2, #16, ...

   *** GEOMETRY OPTIMIZATION CONVERGED AFTER 1 ITERATIONS ***

------------------------------------------------------------------------
 total energy gain   :        -0.0000000 Eh       -0.0000 kcal/mol
 total RMSD          :         0.0000000 a0        0.0000 Å
 total power (kW/mol):        -0.0000010 (step)   -0.0000 (real)
------------------------------------------------------------------------

 ANCopt (total)                0 d,  0 h,  0 min,  0.533 sec
 optimizer setup                ...        0 min,  0.001 sec (  0.110%)
 model hessian                  ...        0 min,  0.093 sec ( 17.398%)
 ANC generation                 ...        0 min,  0.049 sec (  9.254%)
 coordinate transformation      ...        0 min,  0.000 sec (  0.068%)
 single point calculation       ...        0 min,  0.386 sec ( 72.519%)
 optimization log               ...        0 min,  0.000 sec (  0.056%)
 hessian update                 ...        0 min,  0.000 sec (  0.000%)
 rational function              ...        0 min,  0.003 sec (  0.525%)

================
 final structure:
================
 xtb: 6.7.1 (edcfbbe)
          03062511263D

151162  0     0  0            999 V2000
    1.0530    1.6607    1.0502 C   0  0  0  0  0  0  0  0  0  0  0  0
    1.2122    0.3612    0.5482 C   0  0  0  0  0  0  0  0  0  0  0  0
    2.4892   -0.2759    0.7082 C   0  0  0  0  0  0  0  0  0  0  0  0
    3.5723    0.6196    1.0495 C   0  0  0  0  0  0  0  0  0  0  0  0
    3.3596    1.9793    1.3504 C   0  0  0  0  0  0  0  0  0  0  0  0
    2.0892    2.4783    1.4964 C   0  0  0  0  0  0  0  0  0  0  0  0
    2.8247   -1.6798    0.7370 C   0  0  0  0  0  0  0  0  0  0  0  0
    4.1115   -2.0234    1.2058 C   0  0  0  0  0  0  0  0  0  0  0  0
    5.1278   -1.0422    1.3238 C   0  0  0  0  0  0  0  0  0  0  0  0
    4.8454    0.2489    1.2017 N   0  0  0  0  0  0  0  0  0  0  0  0
    1.9968   -2.8134    0.4451 C   0  0  0  0  0  0  0  0  0  0  0  0
    2.3238   -4.0544    1.0893 C   0  0  0  0  0  0  0  0  0  0  0  0
    3.5077   -4.3100    1.6393 N   0  0  0  0  0  0  0  0  0  0  0  0
    4.4393   -3.3581    1.5715 C   0  0  0  0  0  0  0  0  0  0  0  0
    5.7624   -3.6794    1.9265 C   0  0  0  0  0  0  0  0  0  0  0  0
    6.7838   -2.7359    1.9138 C   0  0  0  0  0  0  0  0  0  0  0  0
    6.4535   -1.4227    1.6216 C   0  0  0  0  0  0  0  0  0  0  0  0
    0.9206   -2.8523   -0.4639 C   0  0  0  0  0  0  0  0  0  0  0  0
    0.0232   -3.9160   -0.4286 C   0  0  0  0  0  0  0  0  0  0  0  0
    0.1969   -5.0229    0.4087 C   0  0  0  0  0  0  0  0  0  0  0  0
    1.3804   -5.1062    1.1049 C   0  0  0  0  0  0  0  0  0  0  0  0
    0.0736   -0.1595    0.0943 O   0  0  0  0  0  0  0  0  0  0  0  0
   -3.6410   -2.2598   -1.3270 C   0  0  0  0  0  0  0  0  0  0  0  0
   -2.7888   -1.2132   -0.9449 C   0  0  0  0  0  0  0  0  0  0  0  0
   -3.3154    0.0919   -0.7359 C   0  0  0  0  0  0  0  0  0  0  0  0
   -4.7588    0.0995   -0.5981 C   0  0  0  0  0  0  0  0  0  0  0  0
   -5.5686   -0.9628   -1.0586 C   0  0  0  0  0  0  0  0  0  0  0  0
   -5.0212   -2.1521   -1.4686 C   0  0  0  0  0  0  0  0  0  0  0  0
   -2.6778    1.3839   -0.5433 C   0  0  0  0  0  0  0  0  0  0  0  0
   -3.4382    2.3123    0.2121 C   0  0  0  0  0  0  0  0  0  0  0  0
   -4.7869    2.0598    0.5779 C   0  0  0  0  0  0  0  0  0  0  0  0
   -5.4473    1.0368    0.0450 N   0  0  0  0  0  0  0  0  0  0  0  0
   -1.4869    1.9395   -1.1311 C   0  0  0  0  0  0  0  0  0  0  0  0
   -1.1663    3.3102   -0.8482 C   0  0  0  0  0  0  0  0  0  0  0  0
   -1.8015    4.0607    0.0517 N   0  0  0  0  0  0  0  0  0  0  0  0
   -2.9233    3.5855    0.5792 C   0  0  0  0  0  0  0  0  0  0  0  0
   -3.6364    4.4174    1.4668 C   0  0  0  0  0  0  0  0  0  0  0  0
   -4.9120    4.1037    1.9097 C   0  0  0  0  0  0  0  0  0  0  0  0
   -5.4914    2.9428    1.4187 C   0  0  0  0  0  0  0  0  0  0  0  0
   -0.6513    1.3276   -2.1047 C   0  0  0  0  0  0  0  0  0  0  0  0
    0.2874    2.0699   -2.8093 C   0  0  0  0  0  0  0  0  0  0  0  0
    0.5734    3.4131   -2.5448 C   0  0  0  0  0  0  0  0  0  0  0  0
   -0.1413    4.0019   -1.5375 C   0  0  0  0  0  0  0  0  0  0  0  0
   -1.5476   -1.6341   -0.7240 O   0  0  0  0  0  0  0  0  0  0  0  0
   -0.3567   -0.9093   -1.1091 B   0  0  0  0  0  0  0  0  0  0  0  0
    0.7607   -1.9084   -1.4665 N   0  0  0  0  0  0  0  0  0  0  0  0
    2.8242   -2.5780   -2.6316 C   0  0  0  0  0  0  0  0  0  0  0  0
    1.9590   -1.4270   -2.1238 C   0  0  0  0  0  0  0  0  0  0  0  0
   -0.7285   -0.0274   -2.3170 N   0  0  0  0  0  0  0  0  0  0  0  0
   -1.3344   -1.8901   -3.8436 C   0  0  0  0  0  0  0  0  0  0  0  0
   -0.7983   -0.4731   -3.6970 C   0  0  0  0  0  0  0  0  0  0  0  0
   -5.6339    5.0549    2.8500 C   0  0  0  0  0  0  0  0  0  0  0  0
   -7.0142    4.5361    3.2596 C   0  0  0  0  0  0  0  0  0  0  0  0
   -4.7886    5.2346    4.1183 C   0  0  0  0  0  0  0  0  0  0  0  0
   -5.8123    6.4072    2.1460 C   0  0  0  0  0  0  0  0  0  0  0  0
    1.6834    4.1078   -3.3129 C   0  0  0  0  0  0  0  0  0  0  0  0
    1.4373    3.9690   -4.8212 C   0  0  0  0  0  0  0  0  0  0  0  0
    1.7721    5.6000   -2.9833 C   0  0  0  0  0  0  0  0  0  0  0  0
    3.0126    3.4391   -2.9321 C   0  0  0  0  0  0  0  0  0  0  0  0
   -5.8987   -3.2850   -1.9705 C   0  0  0  0  0  0  0  0  0  0  0  0
   -6.7861   -2.7604   -3.1074 C   0  0  0  0  0  0  0  0  0  0  0  0
   -5.0842   -4.4662   -2.5040 C   0  0  0  0  0  0  0  0  0  0  0  0
   -6.7764   -3.7760   -0.8116 C   0  0  0  0  0  0  0  0  0  0  0  0
   -0.8118   -6.1576    0.4875 C   0  0  0  0  0  0  0  0  0  0  0  0
   -0.1980   -7.4162   -0.1408 C   0  0  0  0  0  0  0  0  0  0  0  0
   -1.1458   -6.4227    1.9619 C   0  0  0  0  0  0  0  0  0  0  0  0
   -2.1161   -5.8270   -0.2416 C   0  0  0  0  0  0  0  0  0  0  0  0
    8.2028   -3.1722    2.2441 C   0  0  0  0  0  0  0  0  0  0  0  0
    9.2040   -2.0170    2.1660 C   0  0  0  0  0  0  0  0  0  0  0  0
    8.2310   -3.7421    3.6687 C   0  0  0  0  0  0  0  0  0  0  0  0
    8.6337   -4.2514    1.2411 C   0  0  0  0  0  0  0  0  0  0  0  0
    1.8749    3.8508    2.1118 C   0  0  0  0  0  0  0  0  0  0  0  0
    2.6667    3.9368    3.4258 C   0  0  0  0  0  0  0  0  0  0  0  0
    2.4906    4.8991    3.9022 H   0  0  0  0  0  0  0  0  0  0  0  0
    3.7348    3.8328    3.2604 H   0  0  0  0  0  0  0  0  0  0  0  0
    2.3484    3.1513    4.1079 H   0  0  0  0  0  0  0  0  0  0  0  0
    2.3863    4.9114    1.1303 C   0  0  0  0  0  0  0  0  0  0  0  0
    3.4473    4.7786    0.9326 H   0  0  0  0  0  0  0  0  0  0  0  0
    2.2317    5.9083    1.5378 H   0  0  0  0  0  0  0  0  0  0  0  0
    1.8450    4.8292    0.1916 H   0  0  0  0  0  0  0  0  0  0  0  0
    0.4063    4.1312    2.4354 C   0  0  0  0  0  0  0  0  0  0  0  0
   -0.0064    3.3454    3.0647 H   0  0  0  0  0  0  0  0  0  0  0  0
   -0.1961    4.2183    1.5353 H   0  0  0  0  0  0  0  0  0  0  0  0
    0.3296    5.0725    2.9768 H   0  0  0  0  0  0  0  0  0  0  0  0
    8.9645   -1.2414    2.8895 H   0  0  0  0  0  0  0  0  0  0  0  0
    9.2219   -1.5819    1.1696 H   0  0  0  0  0  0  0  0  0  0  0  0
   10.2021   -2.3879    2.3896 H   0  0  0  0  0  0  0  0  0  0  0  0
    7.9011   -2.9890    4.3813 H   0  0  0  0  0  0  0  0  0  0  0  0
    9.2428   -4.0445    3.9296 H   0  0  0  0  0  0  0  0  0  0  0  0
    7.5815   -4.6077    3.7623 H   0  0  0  0  0  0  0  0  0  0  0  0
    3.0259    2.3929   -3.2268 H   0  0  0  0  0  0  0  0  0  0  0  0
    3.1646    3.4875   -1.8557 H   0  0  0  0  0  0  0  0  0  0  0  0
    3.8412    3.9442   -3.4238 H   0  0  0  0  0  0  0  0  0  0  0  0
    0.8265    6.0981   -3.1841 H   0  0  0  0  0  0  0  0  0  0  0  0
    2.5380    6.0634   -3.6018 H   0  0  0  0  0  0  0  0  0  0  0  0
    2.0435    5.7588   -1.9431 H   0  0  0  0  0  0  0  0  0  0  0  0
    0.4841    4.4203   -5.0889 H   0  0  0  0  0  0  0  0  0  0  0  0
    1.4219    2.9287   -5.1332 H   0  0  0  0  0  0  0  0  0  0  0  0
    2.2257    4.4747   -5.3745 H   0  0  0  0  0  0  0  0  0  0  0  0
   -6.3902    6.2824    1.2326 H   0  0  0  0  0  0  0  0  0  0  0  0
   -4.8536    6.8465    1.8851 H   0  0  0  0  0  0  0  0  0  0  0  0
   -6.3408    7.1003    2.7968 H   0  0  0  0  0  0  0  0  0  0  0  0
   -4.6434    4.2763    4.6125 H   0  0  0  0  0  0  0  0  0  0  0  0
   -5.2919    5.9065    4.8102 H   0  0  0  0  0  0  0  0  0  0  0  0
   -3.8121    5.6511    3.8885 H   0  0  0  0  0  0  0  0  0  0  0  0
   -6.9375    3.5692    3.7511 H   0  0  0  0  0  0  0  0  0  0  0  0
   -7.6710    4.4466    2.3977 H   0  0  0  0  0  0  0  0  0  0  0  0
   -7.4711    5.2346    3.9576 H   0  0  0  0  0  0  0  0  0  0  0  0
   -4.4008   -4.1455   -3.2871 H   0  0  0  0  0  0  0  0  0  0  0  0
   -5.7576   -5.2095   -2.9260 H   0  0  0  0  0  0  0  0  0  0  0  0
   -4.5171   -4.9429   -1.7092 H   0  0  0  0  0  0  0  0  0  0  0  0
   -7.4130   -2.9778   -0.4404 H   0  0  0  0  0  0  0  0  0  0  0  0
   -6.1541   -4.1259    0.0093 H   0  0  0  0  0  0  0  0  0  0  0  0
   -7.4090   -4.5974   -1.1412 H   0  0  0  0  0  0  0  0  0  0  0  0
   -6.1708   -2.3953   -3.9271 H   0  0  0  0  0  0  0  0  0  0  0  0
   -7.4216   -1.9473   -2.7695 H   0  0  0  0  0  0  0  0  0  0  0  0
   -7.4234   -3.5580   -3.4831 H   0  0  0  0  0  0  0  0  0  0  0  0
    8.5992   -3.8579    0.2272 H   0  0  0  0  0  0  0  0  0  0  0  0
    7.9853   -5.1216    1.2913 H   0  0  0  0  0  0  0  0  0  0  0  0
    9.6516   -4.5719    1.4518 H   0  0  0  0  0  0  0  0  0  0  0  0
    7.1796   -0.6282    1.6384 H   0  0  0  0  0  0  0  0  0  0  0  0
    5.9464   -4.7074    2.1947 H   0  0  0  0  0  0  0  0  0  0  0  0
    4.2441    2.5489    1.5820 H   0  0  0  0  0  0  0  0  0  0  0  0
    1.6660   -5.9868    1.6568 H   0  0  0  0  0  0  0  0  0  0  0  0
    0.0383    2.0203    1.0583 H   0  0  0  0  0  0  0  0  0  0  0  0
   -0.7997   -3.8672   -1.1180 H   0  0  0  0  0  0  0  0  0  0  0  0
   -3.1470   -3.2007   -1.5010 H   0  0  0  0  0  0  0  0  0  0  0  0
    0.8767    1.5443   -3.5436 H   0  0  0  0  0  0  0  0  0  0  0  0
   -6.6314   -0.8000   -0.9902 H   0  0  0  0  0  0  0  0  0  0  0  0
   -0.0027    5.0277   -1.2413 H   0  0  0  0  0  0  0  0  0  0  0  0
   -6.5078    2.6677    1.6429 H   0  0  0  0  0  0  0  0  0  0  0  0
   -3.1447    5.3339    1.7509 H   0  0  0  0  0  0  0  0  0  0  0  0
   -0.2634   -6.7151    2.5233 H   0  0  0  0  0  0  0  0  0  0  0  0
   -1.8797   -7.2222    2.0415 H   0  0  0  0  0  0  0  0  0  0  0  0
   -1.5601   -5.5265    2.4186 H   0  0  0  0  0  0  0  0  0  0  0  0
   -1.9549   -5.7398   -1.3140 H   0  0  0  0  0  0  0  0  0  0  0  0
   -2.5382   -4.8992    0.1379 H   0  0  0  0  0  0  0  0  0  0  0  0
   -2.8371   -6.6260   -0.0764 H   0  0  0  0  0  0  0  0  0  0  0  0
    0.7050   -7.7145    0.3845 H   0  0  0  0  0  0  0  0  0  0  0  0
    0.0584   -7.2318   -1.1821 H   0  0  0  0  0  0  0  0  0  0  0  0
   -0.9076   -8.2399   -0.1000 H   0  0  0  0  0  0  0  0  0  0  0  0
    0.1775   -0.4267   -4.2055 H   0  0  0  0  0  0  0  0  0  0  0  0
   -1.4643    0.2221   -4.2245 H   0  0  0  0  0  0  0  0  0  0  0  0
   -0.7291   -2.5731   -3.2562 H   0  0  0  0  0  0  0  0  0  0  0  0
   -1.2947   -2.1820   -4.8912 H   0  0  0  0  0  0  0  0  0  0  0  0
   -2.3639   -1.9441   -3.5027 H   0  0  0  0  0  0  0  0  0  0  0  0
    2.5699   -0.7598   -1.4980 H   0  0  0  0  0  0  0  0  0  0  0  0
    1.6323   -0.8322   -2.9748 H   0  0  0  0  0  0  0  0  0  0  0  0
    3.2467   -3.1495   -1.8083 H   0  0  0  0  0  0  0  0  0  0  0  0
    3.6416   -2.1837   -3.2308 H   0  0  0  0  0  0  0  0  0  0  0  0
    2.2279   -3.2500   -3.2446 H   0  0  0  0  0  0  0  0  0  0  0  0
  1  2  2  0  0  0  0
  1125  1  0  0  0  0
  2  3  1  0  0  0  0
  3  4  2  0  0  0  0
  3  7  1  0  0  0  0
  4  5  1  0  0  0  0
  5  6  2  0  0  0  0
  5123  1  0  0  0  0
  6  1  1  0  0  0  0
  6 72  1  0  0  0  0
  7  8  1  0  0  0  0
  7 11  2  0  0  0  0
  8  9  1  0  0  0  0
  9 10  2  0  0  0  0
 10  4  1  0  0  0  0
 11 12  1  0  0  0  0
 11 18  1  0  0  0  0
 12 13  2  0  0  0  0
 13 14  1  0  0  0  0
 14  8  1  0  0  0  0
 14 15  2  0  0  0  0
 15 16  1  0  0  0  0
 15122  1  0  0  0  0
 16 68  1  0  0  0  0
 16 17  2  0  0  0  0
 17  9  1  0  0  0  0
 17121  1  0  0  0  0
 18 46  1  0  0  0  0
 18 19  2  0  0  0  0
 19 20  1  0  0  0  0
 19126  1  0  0  0  0
 20 64  1  0  0  0  0
 20 21  2  0  0  0  0
 21 12  1  0  0  0  0
 21124  1  0  0  0  0
 22  2  1  0  0  0  0
 23 24  2  0  0  0  0
 23127  1  0  0  0  0
 24 25  1  0  0  0  0
 24 44  1  0  0  0  0
 25 26  2  0  0  0  0
 25 29  1  0  0  0  0
 26 27  1  0  0  0  0
 27 28  2  0  0  0  0
 27129  1  0  0  0  0
 28 60  1  0  0  0  0
 28 23  1  0  0  0  0
 29 33  2  0  0  0  0
 30 29  1  0  0  0  0
 30 31  1  0  0  0  0
 31 32  2  0  0  0  0
 32 26  1  0  0  0  0
 33 34  1  0  0  0  0
 33 40  1  0  0  0  0
 34 35  2  0  0  0  0
 35 36  1  0  0  0  0
 36 30  1  0  0  0  0
 36 37  2  0  0  0  0
 37 38  1  0  0  0  0
 37132  1  0  0  0  0
 38 52  1  0  0  0  0
 38 39  2  0  0  0  0
 39 31  1  0  0  0  0
 39131  1  0  0  0  0
 40 49  1  0  0  0  0
 40 41  2  0  0  0  0
 41 42  1  0  0  0  0
 41128  1  0  0  0  0
 42 56  1  0  0  0  0
 42 43  2  0  0  0  0
 43 34  1  0  0  0  0
 43130  1  0  0  0  0
 45 46  1  0  0  0  0
 45 49  1  0  0  0  0
 45 22  1  0  0  0  0
 45 44  1  0  0  0  0
 46 48  1  0  0  0  0
 47 48  1  0  0  0  0
 47149  1  0  0  0  0
 47150  1  0  0  0  0
 47151  1  0  0  0  0
 48147  1  0  0  0  0
 48148  1  0  0  0  0
 49 51  1  0  0  0  0
 50 51  1  0  0  0  0
 50144  1  0  0  0  0
 50145  1  0  0  0  0
 50146  1  0  0  0  0
 51142  1  0  0  0  0
 51143  1  0  0  0  0
 52 53  1  0  0  0  0
 52 54  1  0  0  0  0
 52 55  1  0  0  0  0
 53106  1  0  0  0  0
 53107  1  0  0  0  0
 53108  1  0  0  0  0
 54103  1  0  0  0  0
 54104  1  0  0  0  0
 54105  1  0  0  0  0
 55100  1  0  0  0  0
 55101  1  0  0  0  0
 55102  1  0  0  0  0
 56 57  1  0  0  0  0
 56 58  1  0  0  0  0
 56 59  1  0  0  0  0
 57 97  1  0  0  0  0
 57 98  1  0  0  0  0
 57 99  1  0  0  0  0
 58 94  1  0  0  0  0
 58 95  1  0  0  0  0
 58 96  1  0  0  0  0
 59 91  1  0  0  0  0
 59 92  1  0  0  0  0
 59 93  1  0  0  0  0
 60 61  1  0  0  0  0
 60 62  1  0  0  0  0
 60 63  1  0  0  0  0
 61115  1  0  0  0  0
 61116  1  0  0  0  0
 61117  1  0  0  0  0
 62109  1  0  0  0  0
 62110  1  0  0  0  0
 62111  1  0  0  0  0
 63112  1  0  0  0  0
 63113  1  0  0  0  0
 63114  1  0  0  0  0
 64 65  1  0  0  0  0
 64 66  1  0  0  0  0
 64 67  1  0  0  0  0
 65139  1  0  0  0  0
 65140  1  0  0  0  0
 65141  1  0  0  0  0
 66133  1  0  0  0  0
 66134  1  0  0  0  0
 66135  1  0  0  0  0
 67136  1  0  0  0  0
 67137  1  0  0  0  0
 67138  1  0  0  0  0
 68 69  1  0  0  0  0
 68 70  1  0  0  0  0
 68 71  1  0  0  0  0
 69 85  1  0  0  0  0
 69 86  1  0  0  0  0
 69 87  1  0  0  0  0
 70 88  1  0  0  0  0
 70 89  1  0  0  0  0
 70 90  1  0  0  0  0
 71118  1  0  0  0  0
 71119  1  0  0  0  0
 71120  1  0  0  0  0
 72 73  1  0  0  0  0
 72 77  1  0  0  0  0
 72 81  1  0  0  0  0
 73 74  1  0  0  0  0
 73 75  1  0  0  0  0
 73 76  1  0  0  0  0
 77 78  1  0  0  0  0
 77 79  1  0  0  0  0
 77 80  1  0  0  0  0
 81 82  1  0  0  0  0
 81 83  1  0  0  0  0
 81 84  1  0  0  0  0
M  CHG  1   8   1
M  CHG  1  45  -1
M  END

 Bond Distances (Angstroems)
 ---------------------------
C1-C2=1.4022         C1-C6=1.3933         C1-H125=1.0766       C2-C1=1.4022         C2-C3=1.4360         C2-O22=1.3318        
C3-C2=1.4360         C3-C4=1.4462         C3-C7=1.4437         C4-C3=1.4462         C4-C5=1.4087         C4-N10=1.3347        
C5-C4=1.4087         C5-C6=1.3727         C5-H123=1.0772       C6-C1=1.3933         C6-C5=1.3727         C6-C72=1.5193        
C7-C3=1.4437         C7-C8=1.4120         C7-C11=1.4338        C8-C7=1.4120         C8-C9=1.4176         C8-C14=1.4222        
C9-C8=1.4176         C9-N10=1.3273        C9-C17=1.4110        N10-C4=1.3347        N10-C9=1.3273        C11-C7=1.4338        
C11-C12=1.4360       C11-C18=1.4093       C12-C11=1.4360       C12-N13=1.3302       C12-C21=1.4130       N13-C12=1.3302       
N13-C14=1.3336       C14-C8=1.4222        C14-N13=1.3336       C14-C15=1.4071       C15-C14=1.4071       C15-C16=1.3905       
C15-H122=1.0782      C16-C15=1.3905       C16-C17=1.3853       C16-C68=1.5209       C17-C9=1.4110        C17-C16=1.3853       
C17-H121=1.0764      C18-C11=1.4093       C18-C19=1.3921       C18-N46=1.3863       C19-C18=1.3921       C19-C20=1.3987       
C19-H126=1.0746      C20-C19=1.3987       C20-C21=1.3756       C20-C64=1.5203       C21-C12=1.4130       C21-C20=1.3756       
C21-H124=1.0778      O22-C2=1.3318        O22-B45=1.4817       C23-C24=1.4027       C23-C28=1.3916       C23-H127=1.0768      
C24-C23=1.4027       C24-C25=1.4228       C24-O44=1.3291       C25-C24=1.4228       C25-C26=1.4500       C25-C29=1.4536       
C26-C25=1.4500       C26-C27=1.4129       C26-N32=1.3290       C27-C26=1.4129       C27-C28=1.3719       C27-H129=1.0774      
C28-C23=1.3916       C28-C27=1.3719       C28-C60=1.5183       C29-C25=1.4536       C29-C30=1.4180       C29-C33=1.4396       
C30-C29=1.4180       C30-C31=1.4201       C30-C36=1.4216       C31-C30=1.4201       C31-N32=1.3292       C31-C39=1.4082       
N32-C26=1.3290       N32-C31=1.3292       C33-C29=1.4396       C33-C34=1.4358       C33-C40=1.4215       C34-C33=1.4358       
C34-N35=1.3329       C34-C43=1.4157       N35-C34=1.3329       N35-C36=1.3276       C36-C30=1.4216       C36-N35=1.3276       
C36-C37=1.4101       C37-C36=1.4101       C37-C38=1.3863       C37-H132=1.0782      C38-C37=1.3863       C38-C39=1.3873       
C38-C52=1.5199       C39-C31=1.4082       C39-C38=1.3873       C39-H131=1.0766      C40-C33=1.4215       C40-C41=1.3888       
C40-N49=1.3737       C41-C40=1.3888       C41-C42=1.3986       C41-H128=1.0783      C42-C41=1.3986       C42-C43=1.3683       
C42-C56=1.5181       C43-C34=1.4157       C43-C42=1.3683       C43-H130=1.0767      O44-C24=1.3291       O44-B45=1.4463       
B45-O22=1.4817       B45-O44=1.4463       B45-N46=1.5409       B45-N49=1.5411       N46-C18=1.3863       N46-B45=1.5409       
N46-C48=1.4490       C47-C48=1.5268       C47-H149=1.0876      C47-H150=1.0875      C47-H151=1.0876      C48-N46=1.4490       
C48-C47=1.5268       C48-H147=1.1000      C48-H148=1.0884      N49-C40=1.3737       N49-B45=1.5411       N49-C51=1.4519       
C50-C51=1.5221       C50-H144=1.0853      C50-H145=1.0882      C50-H146=1.0858      C51-N49=1.4519       C51-C50=1.5221       
C51-H142=1.1013      C51-H143=1.0978      C52-C38=1.5199       C52-C53=1.5304       C52-C54=1.5347       C52-C55=1.5350       
C53-C52=1.5304       C53-H106=1.0874      C53-H107=1.0873      C53-H108=1.0881      C54-C52=1.5347       C54-H103=1.0880      
C54-H104=1.0879      C54-H105=1.0862      C55-C52=1.5350       C55-H100=1.0880      C55-H101=1.0864      C55-H102=1.0878      
C56-C42=1.5181       C56-C57=1.5345       C56-C58=1.5307       C56-C59=1.5359       C57-C56=1.5345       C57-H97=1.0881       
C57-H98=1.0862       C57-H99=1.0879       C58-C56=1.5307       C58-H94=1.0875       C58-H95=1.0881       C58-H96=1.0867       
C59-C56=1.5359       C59-H91=1.0870       C59-H92=1.0882       C59-H93=1.0879       C60-C28=1.5183       C60-C61=1.5347       
C60-C62=1.5308       C60-C63=1.5344       C61-C60=1.5347       C61-H115=1.0880      C61-H116=1.0859      C61-H117=1.0879      
C62-C60=1.5308       C62-H109=1.0877      C62-H110=1.0881      C62-H111=1.0865      C63-C60=1.5344       C63-H112=1.0864      
C63-H113=1.0879      C63-H114=1.0879      C64-C20=1.5203       C64-C65=1.5348       C64-C66=1.5348       C64-C67=1.5304       
C65-C64=1.5348       C65-H139=1.0864      C65-H140=1.0881      C65-H141=1.0880      C66-C64=1.5348       C66-H133=1.0860      
C66-H134=1.0882      C66-H135=1.0878      C67-C64=1.5304       C67-H136=1.0879      C67-H137=1.0877      C67-H138=1.0888      
C68-C16=1.5209       C68-C69=1.5307       C68-C70=1.5346       C68-C71=1.5350       C69-C68=1.5307       C69-H85=1.0874       
C69-H86=1.0874       C69-H87=1.0880       C70-C68=1.5346       C70-H88=1.0880       C70-H89=1.0878       C70-H90=1.0862       
C71-C68=1.5350       C71-H118=1.0881      C71-H119=1.0864      C71-H120=1.0878      C72-C6=1.5193        C72-C73=1.5365       
C72-C77=1.5329       C72-C81=1.5297       C73-C72=1.5365       C73-H74=1.0881       C73-H75=1.0858       C73-H76=1.0879       
H74-C73=1.0881       H75-C73=1.0858       H76-C73=1.0879       C77-C72=1.5329       C77-H78=1.0874       C77-H79=1.0880       
C77-H80=1.0867       H78-C77=1.0874       H79-C77=1.0880       H80-C77=1.0867       C81-C72=1.5297       C81-H82=1.0880       
C81-H83=1.0866       C81-H84=1.0886       H82-C81=1.0880       H83-C81=1.0866       H84-C81=1.0886       H85-C69=1.0874       
H86-C69=1.0874       H87-C69=1.0880       H88-C70=1.0880       H89-C70=1.0878       H90-C70=1.0862       H91-C59=1.0870       
H92-C59=1.0882       H93-C59=1.0879       H94-C58=1.0875       H95-C58=1.0881       H96-C58=1.0867       H97-C57=1.0881       
H98-C57=1.0862       H99-C57=1.0879       H100-C55=1.0880      H101-C55=1.0864      H102-C55=1.0878      H103-C54=1.0880      
H104-C54=1.0879      H105-C54=1.0862      H106-C53=1.0874      H107-C53=1.0873      H108-C53=1.0881      H109-C62=1.0877      
H110-C62=1.0881      H111-C62=1.0865      H112-C63=1.0864      H113-C63=1.0879      H114-C63=1.0879      H115-C61=1.0880      
H116-C61=1.0859      H117-C61=1.0879      H118-C71=1.0881      H119-C71=1.0864      H120-C71=1.0878      H121-C17=1.0764      
H122-C15=1.0782      H123-C5=1.0772       H124-C21=1.0778      H125-C1=1.0766       H126-C19=1.0746      H127-C23=1.0768      
H128-C41=1.0783      H129-C27=1.0774      H130-C43=1.0767      H131-C39=1.0766      H132-C37=1.0782      H133-C66=1.0860      
H134-C66=1.0882      H135-C66=1.0878      H136-C67=1.0879      H137-C67=1.0877      H138-C67=1.0888      H139-C65=1.0864      
H140-C65=1.0881      H141-C65=1.0880      H142-C51=1.1013      H143-C51=1.0978      H144-C50=1.0853      H145-C50=1.0882      
H146-C50=1.0858      H147-C48=1.1000      H148-C48=1.0884      H149-C47=1.0876      H150-C47=1.0875      H151-C47=1.0876      
 C  H  Rav=1.0863 sigma=0.0047  Rmin=1.0746  Rmax=1.1013    76
 C  C  Rav=1.4559 sigma=0.0605  Rmin=1.3683  Rmax=1.5365    68
 N  B  Rav=1.5410 sigma=0.0001  Rmin=1.5409  Rmax=1.5411     2
 N  C  Rav=1.3588 sigma=0.0449  Rmin=1.3273  Rmax=1.4519    12
 O  B  Rav=1.4640 sigma=0.0177  Rmin=1.4463  Rmax=1.4817     2
 O  C  Rav=1.3304 sigma=0.0013  Rmin=1.3291  Rmax=1.3318     2

 selected bond angles (degree)
 --------------------
C6-C1-C2=125.03                H125-C1-C2=114.79              H125-C1-C6=120.17              C3-C2-C1=118.18                
O22-C2-C1=112.79               O22-C2-C3=128.67               C4-C3-C2=114.68                C7-C3-C2=129.81                
C7-C3-C4=115.05                C5-C4-C3=122.34                N10-C4-C3=124.70               N10-C4-C5=112.81               
C6-C5-C4=120.89                H123-C5-C4=115.61              H123-C5-C6=123.01              C5-C6-C1=116.16                
C72-C6-C1=123.70               C72-C6-C5=120.13               C8-C7-C3=117.07                C11-C7-C3=129.09               
C11-C7-C8=113.67               C9-C8-C7=120.83                C14-C8-C7=121.59               C14-C8-C9=117.58               
N10-C9-C8=120.87               C17-C9-C8=120.30               C17-C9-N10=118.79              C9-N10-C4=118.92               

 selected dihedral angles (degree)
 ---------------------------------
C3-C2-C1-C6= 11.30            C3-C2-C1-H125=190.24          O22-C2-C1-C6=184.95           O22-C2-C1-H125=  3.90         
C4-C3-C2-C1=344.16            C4-C3-C2-O22=171.65           C7-C3-C2-C1=155.91            C7-C3-C2-O22=343.40           
C5-C4-C3-C2=  6.94            C5-C4-C3-C7=193.93            N10-C4-C3-C2=182.29           N10-C4-C3-C7=  9.28           
C6-C5-C4-C3=  8.26            C6-C5-C4-N10=192.40           H123-C5-C4-C3=180.48          H123-C5-C4-N10=  4.62         
C5-C6-C1-C2=  3.95            C5-C6-C1-H125=185.06          C72-C6-C1-C2=183.79           C72-C6-C1-H125=  4.90         
C1-C6-C5-C4=346.45            C1-C6-C5-H123=174.82          C72-C6-C5-C4=166.60           C72-C6-C5-H123=354.97         
C8-C7-C3-C2=193.89            C8-C7-C3-C4=  5.61            C11-C7-C3-C2=  8.80           C11-C7-C3-C4=180.52           
C9-C8-C7-C3=344.86            C9-C8-C7-C11=169.17           C14-C8-C7-C3=165.07           C14-C8-C7-C11=349.39          
N10-C9-C8-C7= 10.70           N10-C9-C8-C14=190.50          C17-C9-C8-C7=188.43           C17-C9-C8-C14=  8.22          
C9-N10-C4-C3=345.48           C9-N10-C4-C5=161.22           C4-N10-C9-C8=  4.20           C4-N10-C9-C17=186.44          
           -------------------------------------------------
          |                Final Singlepoint                |
           -------------------------------------------------

          ...................................................
          :                      SETUP                      :
          :.................................................:
          :  # basis functions                 376          :
          :  # atomic orbitals                 376          :
          :  # shells                          226          :
          :  # electrons                       385          :
          :  max. iterations                  2000          :
          :  Hamiltonian                  GFN2-xTB          :
          :  restarted?                      false          :
          :  GBSA solvation                  false          :
          :  PC potential                    false          :
          :  electronic temp.          300.0000000     K    :
          :  accuracy                    1.0000000          :
          :  -> integral cutoff          0.2500000E+02      :
          :  -> integral neglect         0.1000000E-07      :
          :  -> SCF convergence          0.1000000E-05 Eh   :
          :  -> wf. convergence          0.1000000E-03 e    :
          :  Broyden damping             0.4000000          :
          :  net charge                          0          :
          :  unpaired electrons                  1          :
          ...................................................

 iter      E             dE          RMSdq      gap      omega  full diag
   1   -210.4798194 -0.210480E+03  0.402E-05    0.01       0.0  T
   2   -210.4798192  0.162969E-06  0.634E-04    0.01      12.8  T
   3   -210.4798194 -0.163156E-06  0.371E-05    0.01     219.6  T

   *** convergence criteria satisfied after 3 iterations ***

         #    Occupation            Energy/Eh            Energy/eV
      -------------------------------------------------------------
         1        2.0000           -0.6798333             -18.4992
       ...           ...                  ...                  ...
       187        2.0000           -0.3617667              -9.8442
       188        2.0000           -0.3573832              -9.7249
       189        2.0000           -0.3528516              -9.6016
       190        2.0000           -0.3515465              -9.5661
       191        1.9746           -0.3413550              -9.2887
       192        1.8698           -0.3397121              -9.2440
       193        0.6186           -0.3355047              -9.1295 (HOMO)
       194        0.5370           -0.3352593              -9.1229 (LUMO)
       195                         -0.2699217              -7.3449
       196                         -0.2695637              -7.3352
       197                         -0.2305930              -6.2748
       198                         -0.2298014              -6.2532
       ...                                ...                  ...
       376                          0.7121282              19.3780
      -------------------------------------------------------------
                  HL-Gap            0.0002454 Eh            0.0067 eV
             Fermi-level           -0.3365894 Eh           -9.1591 eV

 SCC (total)                   0 d,  0 h,  0 min,  0.513 sec
 SCC setup                      ...        0 min,  0.001 sec (  0.168%)
 Dispersion                     ...        0 min,  0.002 sec (  0.452%)
 classical contributions        ...        0 min,  0.001 sec (  0.112%)
 integral evaluation            ...        0 min,  0.010 sec (  2.015%)
 iterations                     ...        0 min,  0.375 sec ( 73.145%)
 molecular gradient             ...        0 min,  0.101 sec ( 19.661%)
 printout                       ...        0 min,  0.023 sec (  4.442%)

         :::::::::::::::::::::::::::::::::::::::::::::::::::::
         ::                     SUMMARY                     ::
         :::::::::::::::::::::::::::::::::::::::::::::::::::::
         :: total energy            -207.215854621715 Eh    ::
         :: gradient norm              0.000599143519 Eh/a0 ::
         :: HOMO-LUMO gap              0.006678579214 eV    ::
         ::.................................................::
         :: SCC energy              -210.471817841640 Eh    ::
         :: -> isotropic ES            0.148301554601 Eh    ::
         :: -> anisotropic ES          0.025698404579 Eh    ::
         :: -> anisotropic XC          0.117194843259 Eh    ::
         :: -> dispersion             -0.220899217153 Eh    ::
         :: repulsion energy           3.255963219925 Eh    ::
         :: add. restraining           0.000000000000 Eh    ::
         :: total charge               0.000000000000 e     ::
         :::::::::::::::::::::::::::::::::::::::::::::::::::::

           -------------------------------------------------
          |                Property Printout                |
           -------------------------------------------------

    * Orbital Energies and Occupations

         #    Occupation            Energy/Eh            Energy/eV
      -------------------------------------------------------------
         1        2.0000           -0.6798333             -18.4992
       ...           ...                  ...                  ...
       181        2.0000           -0.3914743             -10.6526
       182        2.0000           -0.3909964             -10.6396
       183        2.0000           -0.3891084             -10.5882
       184        2.0000           -0.3817886             -10.3890
       185        2.0000           -0.3719891             -10.1223
       186        2.0000           -0.3680131             -10.0141
       187        2.0000           -0.3617667              -9.8442
       188        2.0000           -0.3573832              -9.7249
       189        2.0000           -0.3528516              -9.6016
       190        2.0000           -0.3515465              -9.5661
       191        1.9746           -0.3413550              -9.2887
       192        1.8698           -0.3397121              -9.2440
       193        0.6186           -0.3355047              -9.1295 (HOMO)
       194        0.5370           -0.3352593              -9.1229 (LUMO)
       195                         -0.2699217              -7.3449
       196                         -0.2695637              -7.3352
       197                         -0.2305930              -6.2748
       198                         -0.2298014              -6.2532
       199                         -0.2287753              -6.2253
       200                         -0.2276641              -6.1951
       201                         -0.2153815              -5.8608
       202                         -0.2128646              -5.7923
       203                         -0.1918542              -5.2206
       204                         -0.1913937              -5.2081
       ...                                ...                  ...
       376                          0.7121282              19.3780
      -------------------------------------------------------------
                  HL-Gap            0.0002454 Eh            0.0067 eV
             Fermi-level           -0.3365894 Eh           -9.1591 eV

     #   Z          covCN         q      C6AA      α(0)
     1   6 C        2.935    -0.065    29.623     8.926
     2   6 C        2.832     0.162    24.498     8.111
     3   6 C        2.965    -0.041    29.023     8.837
     4   6 C        2.963     0.088    26.043     8.371
     5   6 C        2.955    -0.059    29.463     8.903
     6   6 C        2.967     0.014    27.706     8.634
     7   6 C        2.973     0.032    27.279     8.567
     8   6 C        3.001    -0.033    28.804     8.804
     9   6 C        2.957     0.090    26.003     8.364
    10   7 N        1.871    -0.251    27.398     7.759
    11   6 C        2.986    -0.028    28.704     8.788
    12   6 C        2.970     0.091    25.969     8.359
    13   7 N        1.857    -0.251    27.395     7.758
    14   6 C        2.964     0.089    26.023     8.367
    15   6 C        2.931    -0.038    28.947     8.824
    16   6 C        2.966     0.014    27.701     8.633
    17   6 C        2.929    -0.043    29.058     8.840
    18   6 C        2.926     0.089    26.014     8.364
    19   6 C        2.934    -0.044    29.104     8.848
    20   6 C        2.967     0.014    27.690     8.631
    21   6 C        2.937    -0.049    29.224     8.866
    22   8 O        1.637    -0.397    20.793     6.155
    23   6 C        2.938    -0.066    29.650     8.930
    24   6 C        2.850     0.166    24.410     8.097
    25   6 C        2.966    -0.037    28.928     8.822
    26   6 C        2.971     0.091    25.976     8.360
    27   6 C        2.957    -0.056    29.383     8.891
    28   6 C        2.966     0.012    27.749     8.641
    29   6 C        2.966     0.037    27.165     8.549
    30   6 C        2.998    -0.030    28.741     8.794
    31   6 C        2.963     0.089    26.009     8.365
    32   7 N        1.872    -0.247    27.301     7.745
    33   6 C        2.977    -0.020    28.495     8.756
    34   6 C        2.970     0.093    25.924     8.352
    35   7 N        1.868    -0.255    27.494     7.772
    36   6 C        2.966     0.092    25.953     8.356
    37   6 C        2.935    -0.039    28.961     8.826
    38   6 C        2.966     0.015    27.679     8.630
    39   6 C        2.932    -0.041    29.024     8.835
    40   6 C        2.919     0.080    26.224     8.398
    41   6 C        2.936    -0.054    29.346     8.884
    42   6 C        2.967     0.012    27.751     8.641
    43   6 C        2.948    -0.056    29.380     8.890
    44   8 O        1.643    -0.361    20.118     6.055
    45   5 B        3.268     0.491    14.601     6.372
    46   7 N        2.663    -0.233    26.097     7.587
    47   6 C        3.752    -0.102    22.511     6.766
    48   6 C        3.744     0.025    20.219     6.414
    49   7 N        2.664    -0.231    26.066     7.583
    50   6 C        3.752    -0.115    22.754     6.802
    51   6 C        3.744     0.028    20.163     6.406
    52   6 C        3.903     0.026    20.079     6.369
    53   6 C        3.761    -0.111    22.665     6.787
    54   6 C        3.762    -0.108    22.615     6.779
    55   6 C        3.762    -0.108    22.610     6.778
    56   6 C        3.903     0.027    20.067     6.368
    57   6 C        3.761    -0.106    22.570     6.772
    58   6 C        3.761    -0.111    22.672     6.788
    59   6 C        3.762    -0.104    22.538     6.767
    60   6 C        3.903     0.027    20.066     6.367
    61   6 C        3.762    -0.109    22.627     6.781
    62   6 C        3.761    -0.111    22.677     6.789
    63   6 C        3.762    -0.108    22.609     6.778
    64   6 C        3.903     0.026    20.074     6.369
    65   6 C        3.761    -0.107    22.600     6.777
    66   6 C        3.762    -0.108    22.610     6.778
    67   6 C        3.761    -0.107    22.591     6.776
    68   6 C        3.903     0.026    20.082     6.370
    69   6 C        3.761    -0.111    22.662     6.786
    70   6 C        3.762    -0.108    22.604     6.777
    71   6 C        3.762    -0.108    22.601     6.777
    72   6 C        3.903     0.027    20.056     6.366
    73   6 C        3.762    -0.107    22.597     6.776
    74   1 H        0.925     0.038     2.473     2.459
    75   1 H        0.925     0.039     2.463     2.454
    76   1 H        0.925     0.034     2.535     2.490
    77   6 C        3.762    -0.106    22.569     6.772
    78   1 H        0.925     0.035     2.515     2.480
    79   1 H        0.925     0.039     2.458     2.452
    80   1 H        0.925     0.039     2.467     2.456
    81   6 C        3.761    -0.114    22.720     6.795
    82   1 H        0.925     0.032     2.564     2.504
    83   1 H        0.925     0.057     2.238     2.339
    84   1 H        0.925     0.035     2.519     2.482
    85   1 H        0.925     0.039     2.458     2.452
    86   1 H        0.925     0.039     2.467     2.456
    87   1 H        0.925     0.039     2.456     2.451
    88   1 H        0.925     0.036     2.502     2.474
    89   1 H        0.925     0.041     2.440     2.443
    90   1 H        0.925     0.040     2.447     2.446
    91   1 H        0.925     0.033     2.538     2.491
    92   1 H        0.925     0.038     2.478     2.462
    93   1 H        0.925     0.041     2.437     2.441
    94   1 H        0.925     0.039     2.466     2.456
    95   1 H        0.925     0.039     2.466     2.456
    96   1 H        0.925     0.041     2.436     2.441
    97   1 H        0.925     0.035     2.513     2.479
    98   1 H        0.925     0.035     2.513     2.479
    99   1 H        0.925     0.039     2.459     2.452
   100   1 H        0.925     0.036     2.506     2.476
   101   1 H        0.925     0.040     2.445     2.445
   102   1 H        0.925     0.041     2.435     2.440
   103   1 H        0.925     0.036     2.501     2.473
   104   1 H        0.925     0.041     2.442     2.444
   105   1 H        0.925     0.041     2.439     2.442
   106   1 H        0.925     0.039     2.461     2.453
   107   1 H        0.925     0.039     2.460     2.453
   108   1 H        0.925     0.040     2.455     2.450
   109   1 H        0.925     0.036     2.503     2.474
   110   1 H        0.925     0.038     2.476     2.461
   111   1 H        0.925     0.042     2.426     2.436
   112   1 H        0.925     0.041     2.439     2.442
   113   1 H        0.925     0.036     2.501     2.473
   114   1 H        0.925     0.040     2.451     2.448
   115   1 H        0.925     0.034     2.525     2.485
   116   1 H        0.925     0.041     2.436     2.441
   117   1 H        0.925     0.039     2.460     2.453
   118   1 H        0.925     0.035     2.518     2.482
   119   1 H        0.925     0.040     2.452     2.449
   120   1 H        0.925     0.041     2.441     2.443
   121   1 H        0.926     0.064     2.150     2.293
   122   1 H        0.926     0.057     2.235     2.338
   123   1 H        0.926     0.054     2.265     2.354
   124   1 H        0.926     0.055     2.253     2.347
   125   1 H        0.926     0.053     2.283     2.363
   126   1 H        0.926     0.067     2.114     2.273
   127   1 H        0.926     0.059     2.205     2.322
   128   1 H        0.926     0.034     2.533     2.489
   129   1 H        0.926     0.057     2.237     2.339
   130   1 H        0.926     0.060     2.193     2.316
   131   1 H        0.926     0.065     2.141     2.288
   132   1 H        0.926     0.059     2.205     2.322
   133   1 H        0.925     0.040     2.447     2.446
   134   1 H        0.925     0.039     2.467     2.456
   135   1 H        0.925     0.037     2.486     2.466
   136   1 H        0.925     0.035     2.515     2.480
   137   1 H        0.925     0.043     2.411     2.428
   138   1 H        0.925     0.036     2.502     2.473
   139   1 H        0.925     0.040     2.454     2.450
   140   1 H        0.925     0.034     2.527     2.486
   141   1 H        0.925     0.040     2.446     2.446
   142   1 H        0.923     0.017     2.779     2.607
   143   1 H        0.924     0.027     2.623     2.533
   144   1 H        0.925     0.059     2.209     2.324
   145   1 H        0.925     0.038     2.482     2.464
   146   1 H        0.925     0.045     2.387     2.416
   147   1 H        0.923     0.019     2.742     2.590
   148   1 H        0.925     0.036     2.510     2.477
   149   1 H        0.925     0.034     2.525     2.485
   150   1 H        0.925     0.037     2.492     2.469
   151   1 H        0.925     0.043     2.412     2.429

 Mol. C6AA /au·bohr⁶  :     242940.030593
 Mol. C8AA /au·bohr⁸  :    5759761.324314
 Mol. α(0) /au        :        764.995987


Wiberg/Mayer (AO) data.
largest (>0.10) Wiberg bond orders for each atom

 ---------------------------------------------------------------------------
     #   Z sym  total        # sym  WBO       # sym  WBO       # sym  WBO
 ---------------------------------------------------------------------------
     1   6 C    3.901 --     2 C    1.360     6 C    1.355   125 H    0.958
     2   6 C    3.918 --     1 C    1.360     3 C    1.233    22 O    1.143
     3   6 C    3.952 --     2 C    1.233     7 C    1.217     4 C    1.181
     4   6 C    3.971 --    10 N    1.350     5 C    1.258     3 C    1.181
     5   6 C    3.905 --     6 C    1.471     4 C    1.258   123 H    0.961
     6   6 C    3.970 --     5 C    1.471     1 C    1.355    72 C    0.982
     7   6 C    3.982 --     8 C    1.309     3 C    1.217    11 C    1.210
     8   6 C    3.979 --     7 C    1.309     9 C    1.198    14 C    1.195
     9   6 C    3.979 --    10 N    1.349    17 C    1.254     8 C    1.198
    10   7 N    2.941 --     4 C    1.350     9 C    1.349
    11   6 C    3.939 --    18 C    1.263     7 C    1.210    12 C    1.183
    12   6 C    3.971 --    13 N    1.367    21 C    1.240    11 C    1.183
    13   7 N    2.938 --    12 C    1.367    14 C    1.332
    14   6 C    3.978 --    13 N    1.332    15 C    1.274     8 C    1.195
    15   6 C    3.827 --    16 C    1.406    14 C    1.274   122 H    0.962
    16   6 C    3.975 --    17 C    1.431    15 C    1.406    68 C    0.982
    17   6 C    3.832 --    16 C    1.431     9 C    1.254   121 H    0.961
    18   6 C    3.966 --    19 C    1.375    11 C    1.263    46 N    1.128
    19   6 C    3.867 --    18 C    1.375    20 C    1.343   126 H    0.955
    20   6 C    3.976 --    21 C    1.485    19 C    1.343    64 C    0.982
    21   6 C    3.891 --    20 C    1.485    12 C    1.240   124 H    0.960
    22   8 O    2.188 --     2 C    1.143    45 B    0.781
    23   6 C    3.886 --    28 C    1.358    24 C    1.343   127 H    0.957
    24   6 C    3.922 --    23 C    1.343    25 C    1.268    44 O    1.141
    25   6 C    3.952 --    24 C    1.268    29 C    1.191    26 C    1.173
    26   6 C    3.969 --    32 N    1.369    27 C    1.243    25 C    1.173
    27   6 C    3.900 --    28 C    1.475    26 C    1.243   129 H    0.960
    28   6 C    3.975 --    27 C    1.475    23 C    1.358    60 C    0.983
    29   6 C    3.980 --    30 C    1.309    33 C    1.234    25 C    1.191
    30   6 C    3.980 --    29 C    1.309    36 C    1.196    31 C    1.196
    31   6 C    3.977 --    32 N    1.334    39 C    1.270    30 C    1.196
    32   7 N    2.941 --    26 C    1.369    31 C    1.334
    33   6 C    3.952 --    40 C    1.236    29 C    1.234    34 C    1.202
    34   6 C    3.973 --    35 N    1.347    43 C    1.237    33 C    1.202
    35   7 N    2.949 --    36 C    1.347    34 C    1.347
    36   6 C    3.976 --    35 N    1.347    37 C    1.256    30 C    1.196
    37   6 C    3.825 --    38 C    1.424    36 C    1.256   132 H    0.961
    38   6 C    3.974 --    37 C    1.424    39 C    1.412    52 C    0.982
    39   6 C    3.827 --    38 C    1.412    31 C    1.270   131 H    0.961
    40   6 C    3.969 --    41 C    1.400    33 C    1.236    49 N    1.146
    41   6 C    3.882 --    40 C    1.400    42 C    1.327   128 H    0.959
    42   6 C    3.973 --    43 C    1.501    41 C    1.327    56 C    0.983
    43   6 C    3.905 --    42 C    1.501    34 C    1.237   130 H    0.959
    44   8 O    2.232 --    24 C    1.141    45 B    0.832
    45   5 B    3.391 --    44 O    0.832    49 N    0.826    46 N    0.803
                            22 O    0.781
    46   7 N    3.167 --    18 C    1.128    48 C    1.008    45 B    0.803
    47   6 C    3.990 --    48 C    1.009   151 H    0.987   150 H    0.986
                           149 H    0.984
    48   6 C    3.977 --    47 C    1.009    46 N    1.008   148 H    0.961
                           147 H    0.942
    49   7 N    3.231 --    40 C    1.146    51 C    0.997    45 B    0.826
    50   6 C    3.988 --    51 C    1.014   145 H    0.985   146 H    0.982
                           144 H    0.979
    51   6 C    3.979 --    50 C    1.014    49 N    0.997   143 H    0.972
                           142 H    0.948
    52   6 C    3.990 --    53 C    1.000    54 C    0.987    55 C    0.986
                            38 C    0.982
    53   6 C    3.995 --    52 C    1.000   106 H    0.985   108 H    0.984
                           107 H    0.984
    54   6 C    3.993 --    52 C    0.987   103 H    0.987   104 H    0.984
                           105 H    0.983
    55   6 C    3.993 --   100 H    0.987    52 C    0.986   102 H    0.984
                           101 H    0.983
    56   6 C    3.989 --    58 C    1.000    57 C    0.989    59 C    0.984
                            42 C    0.983
    57   6 C    3.994 --    56 C    0.989    97 H    0.987    99 H    0.984
                            98 H    0.983
    58   6 C    3.995 --    56 C    1.000    94 H    0.985    95 H    0.984
                            96 H    0.981
    59   6 C    3.993 --    92 H    0.986    91 H    0.984    93 H    0.984
                            56 C    0.984
    60   6 C    3.990 --    62 C    1.000    61 C    0.988    63 C    0.985
                            28 C    0.983
    61   6 C    3.994 --    60 C    0.988   115 H    0.987   117 H    0.984
                           116 H    0.983
    62   6 C    3.995 --    60 C    1.000   109 H    0.985   110 H    0.984
                           111 H    0.982
    63   6 C    3.994 --   113 H    0.987    60 C    0.985   112 H    0.984
                           114 H    0.984
    64   6 C    3.989 --    67 C    0.999    66 C    0.988    65 C    0.985
                            20 C    0.982
    65   6 C    3.994 --   140 H    0.987    64 C    0.985   141 H    0.984
                           139 H    0.984
    66   6 C    3.994 --    64 C    0.988   135 H    0.987   134 H    0.984
                           133 H    0.983
    67   6 C    3.996 --    64 C    0.999   138 H    0.984   136 H    0.983
                           137 H    0.983
    68   6 C    3.990 --    69 C    1.000    71 C    0.987    70 C    0.986
                            16 C    0.982
    69   6 C    3.996 --    68 C    1.000    86 H    0.985    87 H    0.984
                            85 H    0.984
    70   6 C    3.994 --    88 H    0.987    68 C    0.986    89 H    0.984
                            90 H    0.983
    71   6 C    3.993 --   118 H    0.987    68 C    0.987   120 H    0.984
                           119 H    0.983
    72   6 C    3.989 --    81 C    1.000    73 C    0.988    77 C    0.985
                             6 C    0.982
    73   6 C    3.994 --    72 C    0.988    76 H    0.987    74 H    0.984
                            75 H    0.982
    74   1 H    0.998 --    73 C    0.984
    75   1 H    0.998 --    73 C    0.982
    76   1 H    0.999 --    73 C    0.987
    77   6 C    3.993 --    78 H    0.985    72 C    0.985    79 H    0.984
                            80 H    0.979
    78   1 H    0.999 --    77 C    0.985
    79   1 H    0.997 --    77 C    0.984
    80   1 H    0.998 --    77 C    0.979
    81   6 C    3.991 --    72 C    1.000    82 H    0.986    84 H    0.984
                            83 H    0.968
    82   1 H    0.999 --    81 C    0.986
    83   1 H    0.996 --    81 C    0.968
    84   1 H    0.998 --    81 C    0.984
    85   1 H    0.998 --    69 C    0.984
    86   1 H    0.998 --    69 C    0.985
    87   1 H    0.998 --    69 C    0.984
    88   1 H    0.999 --    70 C    0.987
    89   1 H    0.997 --    70 C    0.984
    90   1 H    0.998 --    70 C    0.983
    91   1 H    0.999 --    59 C    0.984
    92   1 H    0.999 --    59 C    0.986
    93   1 H    0.997 --    59 C    0.984
    94   1 H    0.998 --    58 C    0.985
    95   1 H    0.998 --    58 C    0.984
    96   1 H    0.998 --    58 C    0.981
    97   1 H    0.999 --    57 C    0.987
    98   1 H    0.999 --    57 C    0.983
    99   1 H    0.998 --    57 C    0.984
   100   1 H    0.999 --    55 C    0.987
   101   1 H    0.998 --    55 C    0.983
   102   1 H    0.997 --    55 C    0.984
   103   1 H    0.999 --    54 C    0.987
   104   1 H    0.997 --    54 C    0.984
   105   1 H    0.998 --    54 C    0.983
   106   1 H    0.998 --    53 C    0.985
   107   1 H    0.998 --    53 C    0.984
   108   1 H    0.998 --    53 C    0.984
   109   1 H    0.999 --    62 C    0.985
   110   1 H    0.998 --    62 C    0.984
   111   1 H    0.998 --    62 C    0.982
   112   1 H    0.998 --    63 C    0.984
   113   1 H    0.999 --    63 C    0.987
   114   1 H    0.997 --    63 C    0.984
   115   1 H    0.999 --    61 C    0.987
   116   1 H    0.998 --    61 C    0.983
   117   1 H    0.998 --    61 C    0.984
   118   1 H    0.999 --    71 C    0.987
   119   1 H    0.998 --    71 C    0.983
   120   1 H    0.997 --    71 C    0.984
   121   1 H    0.995 --    17 C    0.961
   122   1 H    0.996 --    15 C    0.962
   123   1 H    0.996 --     5 C    0.961
   124   1 H    0.996 --    21 C    0.960
   125   1 H    0.997 --     1 C    0.958
   126   1 H    0.995 --    19 C    0.955
   127   1 H    0.996 --    23 C    0.957
   128   1 H    0.998 --    41 C    0.959
   129   1 H    0.996 --    27 C    0.960
   130   1 H    0.996 --    43 C    0.959
   131   1 H    0.995 --    39 C    0.961
   132   1 H    0.996 --    37 C    0.961
   133   1 H    0.998 --    66 C    0.983
   134   1 H    0.997 --    66 C    0.984
   135   1 H    0.999 --    66 C    0.987
   136   1 H    0.999 --    67 C    0.983
   137   1 H    0.998 --    67 C    0.983
   138   1 H    0.998 --    67 C    0.984
   139   1 H    0.998 --    65 C    0.984
   140   1 H    0.999 --    65 C    0.987
   141   1 H    0.998 --    65 C    0.984
   142   1 H    0.988 --    51 C    0.948
   143   1 H    0.995 --    51 C    0.972
   144   1 H    0.996 --    50 C    0.979
   145   1 H    0.998 --    50 C    0.985
   146   1 H    0.998 --    50 C    0.982
   147   1 H    0.989 --    48 C    0.942
   148   1 H    0.997 --    48 C    0.961
   149   1 H    0.999 --    47 C    0.984
   150   1 H    0.998 --    47 C    0.986
   151   1 H    0.997 --    47 C    0.987
 ---------------------------------------------------------------------------

Topologies differ in bond orders
Writing corrected topology to xtbtopo.mol

molecular dipole:
                 x           y           z       tot (Debye)
 q only:       -0.034      -0.011      -0.521
   full:        0.197      -0.085      -0.742       1.962
molecular quadrupole (traceless):
                xx          xy          yy          xz          yz          zz
 q only:        8.521      -1.919       7.715      -1.977       9.716     -16.236
  q+dip:        6.369      -0.727       6.699      -5.124      10.736     -13.068
   full:        1.963      -2.901       1.108      -5.116       8.399      -3.071

           -------------------------------------------------
          |                Geometry Summary                 |
           -------------------------------------------------

      molecular mass/u    :      996.1621235
   center of mass at/Å    :       -0.0022099      -0.1470350       0.0247042
  moments of inertia/u·Å² :        0.1421648E+05   0.2177358E+05   0.2857377E+05
rotational constants/cm⁻¹ :        0.1185781E-02   0.7742243E-03   0.5899688E-03

 * 150 selected distances

     #   Z          #   Z                                           value/Å
     1   6 C        2   6 C                                       1.4021588
     4   6 C        5   6 C                                       1.4087464
     1   6 C        6   6 C                                       1.3932965
     5   6 C        6   6 C                                       1.3726739
     7   6 C        8   6 C                                       1.4119805
     8   6 C        9   6 C                                       1.4175837
     4   6 C       10   7 N                                       1.3346787
     9   6 C       10   7 N                                       1.3272519
     7   6 C       11   6 C                                       1.4337620
    11   6 C       12   6 C                                       1.4359680
    12   6 C       13   7 N                                       1.3302071
     8   6 C       14   6 C                                       1.4221863
    13   7 N       14   6 C                                       1.3336376
    14   6 C       15   6 C                                       1.4070724
    15   6 C       16   6 C                                       1.3905437
     9   6 C       17   6 C                                       1.4110088
    16   6 C       17   6 C                                       1.3852702
    11   6 C       18   6 C                                       1.4092555
    18   6 C       19   6 C                                       1.3921318
    19   6 C       20   6 C                                       1.3987391
    12   6 C       21   6 C                                       1.4129864
    20   6 C       21   6 C                                       1.3756111
     2   6 C       22   8 O                                       1.3317522
    23   6 C       24   6 C                                       1.4027178
    24   6 C       25   6 C                                       1.4227702
    26   6 C       27   6 C                                       1.4129112
    23   6 C       28   6 C                                       1.3916186
    27   6 C       28   6 C                                       1.3719262
    29   6 C       30   6 C                                       1.4180142
    30   6 C       31   6 C                                       1.4200556
    26   6 C       32   7 N                                       1.3289626
    31   6 C       32   7 N                                       1.3291501
    33   6 C       34   6 C                                       1.4358397
    34   6 C       35   7 N                                       1.3328727
    30   6 C       36   6 C                                       1.4215917
    35   7 N       36   6 C                                       1.3275944
    36   6 C       37   6 C                                       1.4101076
    37   6 C       38   6 C                                       1.3862625
    31   6 C       39   6 C                                       1.4081741
    38   6 C       39   6 C                                       1.3872543
    33   6 C       40   6 C                                       1.4214592
    40   6 C       41   6 C                                       1.3887507
    41   6 C       42   6 C                                       1.3985503
    34   6 C       43   6 C                                       1.4157008
    42   6 C       43   6 C                                       1.3682599
    24   6 C       44   8 O                                       1.3291092
    22   8 O       45   5 B                                       1.4817321
    44   8 O       45   5 B                                       1.4463334
    18   6 C       46   7 N                                       1.3862620
    45   5 B       46   7 N                                       1.5409474
    46   7 N       48   6 C                                       1.4490385
    47   6 C       48   6 C                                       1.5268377
    40   6 C       49   7 N                                       1.3737017
    45   5 B       49   7 N                                       1.5411054 (max)
    49   7 N       51   6 C                                       1.4518681
    50   6 C       51   6 C                                       1.5220986
    52   6 C       53   6 C                                       1.5304098
    52   6 C       54   6 C                                       1.5347343
    52   6 C       55   6 C                                       1.5349783
    56   6 C       57   6 C                                       1.5345358
    56   6 C       58   6 C                                       1.5307401
    56   6 C       59   6 C                                       1.5358846
    60   6 C       61   6 C                                       1.5346745
    60   6 C       62   6 C                                       1.5307731
    60   6 C       63   6 C                                       1.5344341
    64   6 C       65   6 C                                       1.5347918
    64   6 C       66   6 C                                       1.5348257
    64   6 C       67   6 C                                       1.5303863
    68   6 C       69   6 C                                       1.5306824
    68   6 C       70   6 C                                       1.5346227
    68   6 C       71   6 C                                       1.5350430
    72   6 C       73   6 C                                       1.5365350
    73   6 C       74   1 H                                       1.0881129
    73   6 C       75   1 H                                       1.0858227
    73   6 C       76   1 H                                       1.0879273
    72   6 C       77   6 C                                       1.5328878
    77   6 C       78   1 H                                       1.0874017
    77   6 C       79   1 H                                       1.0880107
    77   6 C       80   1 H                                       1.0867016
    72   6 C       81   6 C                                       1.5297475
    81   6 C       82   1 H                                       1.0880357
    81   6 C       83   1 H                                       1.0865783
    81   6 C       84   1 H                                       1.0885967
    69   6 C       85   1 H                                       1.0873675
    69   6 C       86   1 H                                       1.0874031
    69   6 C       87   1 H                                       1.0880108
    70   6 C       88   1 H                                       1.0880223
    70   6 C       89   1 H                                       1.0877748
    70   6 C       90   1 H                                       1.0862204
    59   6 C       91   1 H                                       1.0869957
    59   6 C       92   1 H                                       1.0881561
    59   6 C       93   1 H                                       1.0878755
    58   6 C       94   1 H                                       1.0874667
    58   6 C       95   1 H                                       1.0880647
    58   6 C       96   1 H                                       1.0866884
    57   6 C       97   1 H                                       1.0880834
    57   6 C       98   1 H                                       1.0861885
    57   6 C       99   1 H                                       1.0878640
    55   6 C      100   1 H                                       1.0880456
    55   6 C      101   1 H                                       1.0863513
    55   6 C      102   1 H                                       1.0877687
    54   6 C      103   1 H                                       1.0879595
    54   6 C      104   1 H                                       1.0878816
    54   6 C      105   1 H                                       1.0862011
    53   6 C      106   1 H                                       1.0873596
    53   6 C      107   1 H                                       1.0873216
    53   6 C      108   1 H                                       1.0880552
    62   6 C      109   1 H                                       1.0877177
    62   6 C      110   1 H                                       1.0881391
    62   6 C      111   1 H                                       1.0865324
    63   6 C      112   1 H                                       1.0863574
    63   6 C      113   1 H                                       1.0879174
    63   6 C      114   1 H                                       1.0878957
    61   6 C      115   1 H                                       1.0880259
    61   6 C      116   1 H                                       1.0858952
    61   6 C      117   1 H                                       1.0878730
    71   6 C      118   1 H                                       1.0881296
    71   6 C      119   1 H                                       1.0863659
    71   6 C      120   1 H                                       1.0877662
    17   6 C      121   1 H                                       1.0764450
    15   6 C      122   1 H                                       1.0782261
     5   6 C      123   1 H                                       1.0772294
    21   6 C      124   1 H                                       1.0777836
     1   6 C      125   1 H                                       1.0765659
    19   6 C      126   1 H                                       1.0746248 (min)
    23   6 C      127   1 H                                       1.0768496
    41   6 C      128   1 H                                       1.0782980
    27   6 C      129   1 H                                       1.0773702
    43   6 C      130   1 H                                       1.0766663
    39   6 C      131   1 H                                       1.0765755
    37   6 C      132   1 H                                       1.0781717
    66   6 C      133   1 H                                       1.0859547
    66   6 C      134   1 H                                       1.0881847
    66   6 C      135   1 H                                       1.0878392
    67   6 C      136   1 H                                       1.0879482
    67   6 C      137   1 H                                       1.0876588
    67   6 C      138   1 H                                       1.0888220
    65   6 C      139   1 H                                       1.0864309
    65   6 C      140   1 H                                       1.0881407
    65   6 C      141   1 H                                       1.0879700
    51   6 C      142   1 H                                       1.1013224
    51   6 C      143   1 H                                       1.0977775
    50   6 C      144   1 H                                       1.0853184
    50   6 C      145   1 H                                       1.0882314
    50   6 C      146   1 H                                       1.0858173
    48   6 C      147   1 H                                       1.0999911
    48   6 C      148   1 H                                       1.0884490
    47   6 C      149   1 H                                       1.0876312
    47   6 C      150   1 H                                       1.0874999
    47   6 C      151   1 H                                       1.0876244

 * 6 distinct bonds (by element types)

   Z      Z             #   av. dist./Å        max./Å        min./Å
   1 H    6 C          76     1.0862940     1.1013224     1.0746248
   6 C    6 C          56     1.4502243     1.5365350     1.3682599
   5 B    7 N           2     1.5410264     1.5411054     1.5409474
   6 C    7 N          12     1.3587688     1.4518681     1.3272519
   5 B    8 O           2     1.4640328     1.4817321     1.4463334
   6 C    8 O           2     1.3304307     1.3317522     1.3291092


[...]


optimized geometry written to: xtbopt.mol


           -------------------------------------------------
          | TOTAL ENERGY             -414.483470737074 Eh   |
          | GRADIENT NORM               0.000323148293 Eh/α |
          | HOMO-LUMO GAP               0.007273380080 eV   |
           -------------------------------------------------
########################################################################
[WARNING] Runtime exception occurred
-3- restart_readRestart: Dimension missmatch in restart file.
-2- restart_readRestart: Multiplicity missmatch in restart file.
-1- restart_readRestart: Number of electron missmatch in restart file.
########################################################################
Note: The following floating-point exceptions are signalling: IEEE_UNDERFLOW_FLAG
normal termination of xtb

------------------------------------------------------------------------
 * finished run on 2025/03/06 at 11:42:55.391     
------------------------------------------------------------------------
 total:
 * wall-time:     0 d,  0 h, 12 min, 16.622 sec
 *  cpu-time:     0 d,  0 h, 51 min, 25.067 sec
 * ratio c/w:     4.188 speedup
 SCF:
 * wall-time:     0 d,  0 h,  0 min, 19.750 sec
 *  cpu-time:     0 d,  0 h,  1 min, 31.916 sec
 * ratio c/w:     4.654 speedup
 ANC optimizer:
 * wall-time:     0 d,  0 h, 11 min, 56.797 sec
 *  cpu-time:     0 d,  0 h, 49 min, 53.000 sec
 * ratio c/w:     4.176 speedup

      -----------------------------------------------------------      
     |                   =====================                   |     
     |                           x T B                           |     
     |                   =====================                   |     
     |                         S. Grimme                         |     
     |          Mulliken Center for Theoretical Chemistry        |     
     |                    University of Bonn                     |     
      -----------------------------------------------------------      

   * xtb version 6.7.1 (edcfbbe) compiled by 'runner@Mac-1732539442253.local' on 2024-11-25

   xtb is free software: you can redistribute it and/or modify it under
   the terms of the GNU Lesser General Public License as published by
   the Free Software Foundation, either version 3 of the License, or
   (at your option) any later version.
   
   xtb is distributed in the hope that it will be useful,
   but WITHOUT ANY WARRANTY; without even the implied warranty of
   MERCHANTABILITY or FITNESS FOR A PARTICULAR PURPOSE.  See the
   GNU Lesser General Public License for more details.
   
   Cite this work as:
   * C. Bannwarth, E. Caldeweyher, S. Ehlert, A. Hansen, P. Pracht,
     J. Seibert, S. Spicher, S. Grimme, WIREs Comput. Mol. Sci., 2020, 11,
     e01493. DOI: 10.1002/wcms.1493
   
   for GFN2-xTB:
   * C. Bannwarth, S. Ehlert and S. Grimme., J. Chem. Theory Comput., 2019,
     15, 1652-1671. DOI: 10.1021/acs.jctc.8b01176
   for GFN1-xTB:
   * S. Grimme, C. Bannwarth, P. Shushkov, J. Chem. Theory Comput., 2017,
     13, 1989-2009. DOI: 10.1021/acs.jctc.7b00118
   for GFN0-xTB:
   * P. Pracht, E. Caldeweyher, S. Ehlert, S. Grimme, ChemRxiv, 2019, preprint.
     DOI: 10.26434/chemrxiv.8326202.v1
   for GFN-FF:
   * S. Spicher and S. Grimme, Angew. Chem. Int. Ed., 2020, 59, 15665-15673.
     DOI: 10.1002/anie.202004239
   
   for ALPB and GBSA implicit solvation:
   * S. Ehlert, M. Stahn, S. Spicher, S. Grimme, J. Chem. Theory Comput.,
     2021, 17, 4250-4261. DOI: 10.1021/acs.jctc.1c00471
   
   for ddCOSMO and CPCM-X implicit solvation:
   * M. Stahn, S. Ehlert, S. Grimme, J. Phys. Chem. A,
     2023, XX, XXXX-XXXX. DOI: 10.1021/acs.jpca.3c04382
   
   for DFT-D4:
   * E. Caldeweyher, C. Bannwarth and S. Grimme, J. Chem. Phys., 2017,
     147, 034112. DOI: 10.1063/1.4993215
   * E. Caldeweyher, S. Ehlert, A. Hansen, H. Neugebauer, S. Spicher,
     C. Bannwarth and S. Grimme, J. Chem. Phys., 2019, 150, 154122.
     DOI: 10.1063/1.5090222
   * E. Caldeweyher, J.-M. Mewes, S. Ehlert and S. Grimme, Phys. Chem. Chem. Phys.
     2020, 22, 8499-8512. DOI: 10.1039/D0CP00502A
   
   for sTDA-xTB:
   * S. Grimme and C. Bannwarth, J. Chem. Phys., 2016, 145, 054103.
     DOI: 10.1063/1.4959605
   
   in the mass-spec context:
   * V. Asgeirsson, C. Bauer and S. Grimme, Chem. Sci., 2017, 8, 4879.
     DOI: 10.1039/c7sc00601b
   * J. Koopman and S. Grimme, ACS Omega 2019, 4, 12, 15120-15133.
     DOI: 10.1021/acsomega.9b02011
   
   for metadynamics refer to:
   * S. Grimme, J. Chem. Theory Comput., 2019, 155, 2847-2862
     DOI: 10.1021/acs.jctc.9b00143
   
   for SPH calculations refer to:
   * S. Spicher and S. Grimme, J. Chem. Theory Comput., 2021, 17, 1701-1714
     DOI: 10.1021/acs.jctc.0c01306
   
   for ONIOM refer to:
   * C. Plett, A. Katbashev, S. Ehlert, S. Grimme, M. Bursch,
     Phys. Chem. Chem. Phys., 2023, 25, 17860-17868. DOI: 10.1039/D3CP02178E
   
   for DIPRO refer to:
   * J. Kohn, N. Gildemeister, S. Grimme, D. Fazzi, A. Hansen,
     J. Chem. Phys., 2023, just accepted.
   
   for PTB refer to:
   * S. Grimme, M. Mueller, A. Hansen, J. Chem. Phys., 2023, 158, 124111.
     DOI: 10.1063/5.0137838
   
   with help from (in alphabetical order)
   P. Atkinson, C. Bannwarth, F. Bohle, G. Brandenburg, E. Caldeweyher
   M. Checinski, S. Dohm, S. Ehlert, S. Ehrlich, I. Gerasimov, C. Hölzer
   A. Katbashev, J. Kohn, J. Koopman, C. Lavigne, S. Lehtola, F. März, M. Müller,
   F. Musil, H. Neugebauer, J. Pisarek, C. Plett, P. Pracht, F. Pultar,
   J. Seibert, P. Shushkov, S. Spicher, M. Stahn, M. Steiner, T. Strunk,
   J. Stückrath, T. Rose, and J. Unsleber
   
 * started run on 2025/03/06 at 11:42:55.439     
   ID    Z sym.   atoms
    1    6 C      1-9, 11, 12, 14-21, 23-31, 33, 34, 36-43, 47, 48, 50-73,
                  77, 81, 152-160, 162, 163, 165-172, 174-182, 184, 185,
                  187-194, 198, 199, 201-224, 228, 232
    2    7 N      10, 13, 32, 35, 46, 49, 161, 164, 183, 186, 197, 200
    3    8 O      22, 44, 173, 195
    4    5 B      45, 196
    5    1 H      74-76, 78-80, 82-151, 225-227, 229-231, 233-302

           -------------------------------------------------
          |                Calculation Setup                |
           -------------------------------------------------

          program call               : xtb opt_dimer.mol --dipro 0.3 --chrg 0 --uhf 2 --gfn 2
          coordinate file            : opt_dimer.mol
          omp threads                :                     8


molecular fragmentation (1/2 indicates fragments):
111111111111111111111111111111111111111111111111111111111111111111111111
111111111111111111111111111111111111111111111111111111111111111111111111
111111122222222222222222222222222222222222222222222222222222222222222222
222222222222222222222222222222222222222222222222222222222222222222222222
22222222222222
# atoms in fragment 1/2:   151   151
 fragment masses (1/2) :      996.16      996.16
CMA distance (Bohr)    :  13.627
constraining FC (au)   :  0.0500

           -------------------------------------------------
          |                 G F N 2 - x T B                 |
           -------------------------------------------------

        Reference                      10.1021/acs.jctc.8b01176
      * Hamiltonian:
        H0-scaling (s, p, d)           1.850000    2.230000    2.230000
        zeta-weighting                 0.500000
      * Dispersion:
        s8                             2.700000
        a1                             0.520000
        a2                             5.000000
        s9                             5.000000
      * Repulsion:
        kExp                           1.500000    1.000000
        rExp                           1.000000
      * Coulomb:
        alpha                          2.000000
        third order                    shell-resolved
        anisotropic                    true
        a3                             3.000000
        a5                             4.000000
        cn-shift                       1.200000
        cn-exp                         4.000000
        max-rad                        5.000000

q/qsh data taken from xtbrestart
CAMM data taken from xtbrestart
           -------------------------------------------------
          |                    D I P R O                    |
           -------------------------------------------------
Calculation for dimer 
--------------------- 
  
charge of dimer :   0.
unpaired e- of dimer :  2
repulsion energy          6.5145234167408E+00 Eh
dispersion energy         4.5340844236267E-02 Eh
number of electrons       7.7000000000000E+02 e
integral cutoff           1.9311100799991E+01 bohr

------------------------------------------------------------
  cycle        total energy    energy error   density error
------------------------------------------------------------
      1     -413.3633548913  -4.1992322E+02   1.2794558E-01
      2     -413.2696695244   9.3685367E-02   7.1075600E-02
      3     -407.9785363203   5.2911332E+00   7.7271203E-02
      4     -404.6406175313   3.3379188E+00   7.9719925E-02
      5     -412.6509462883  -8.0103288E+00   4.8310428E-02
      6     -413.4201969667  -7.6925068E-01   3.6398571E-02
      7     -413.5994198865  -1.7922292E-01   3.3150750E-02
      8     -414.2398122628  -6.4039238E-01   2.2530674E-02
      9     -414.2707253799  -3.0913117E-02   2.0648975E-02
     10     -414.3965820612  -1.2585668E-01   1.2814616E-02
     11     -413.9623060940   4.3427597E-01   2.3637807E-02
     12     -414.3837414177  -4.2143532E-01   1.3781522E-02
     13     -414.4166525202  -3.2911103E-02   9.9017773E-03
     14     -414.4146996902   1.9528300E-03   1.0442371E-02
     15     -414.3355320683   7.9167622E-02   1.2103200E-02
     16     -414.4383681114  -1.0283604E-01   8.2625811E-03
     17     -414.4597494871  -2.1381376E-02   6.4431724E-03
     18     -414.4686125752  -8.8630881E-03   4.7453661E-03
     19     -414.4765926505  -7.9800753E-03   3.4760361E-03
     20     -414.4775577151  -9.6506455E-04   2.9906557E-03
     21     -414.4769787498   5.7896531E-04   3.0305082E-03
     22     -414.4816136422  -4.6348925E-03   1.4313201E-03
     23     -414.4824877709  -8.7412865E-04   9.1963546E-04
     24     -414.4828818734  -3.9410247E-04   6.2228271E-04
     25     -414.4830750746  -1.9320121E-04   3.8320566E-04
     26     -414.4830501771   2.4897476E-05   3.9347541E-04
     27     -414.4831598076  -1.0963045E-04   1.5777212E-04
     28     -414.4831780259  -1.8218384E-05   7.1863093E-05
     29     -414.4831809494  -2.9234742E-06   5.0165388E-05
     30     -414.4831812555  -3.0605253E-07   4.7437458E-05
     31     -414.4831822884  -1.0328981E-06   2.3175079E-05
     32     -414.4831825934  -3.0504998E-07   1.0316553E-05
------------------------------------------------------------

electronic energy        -4.2104304685439E+02 Eh
total energy             -4.1448318259341E+02 Eh

 total:                                  15.221 sec
 - repulsion                              0.000 sec (  0%)
 - dispersion                             0.039 sec (  0%)
 - coulomb                                0.008 sec (  0%)
 - hamiltonian                            0.029 sec (  0%)
 - scc                                   15.144 sec ( 99%)

Found 2 fragments!
Fragment 1:  1-151
Fragment 2:  152-302

[Info] Fragment spin read from .UHFfrag
Calculation for fragment 1
 ------------------------------
   
charge of fragment :   0.
unpaired e- of fragment :  1
------------------------------------------------------------
  cycle        total energy    energy error   density error
------------------------------------------------------------
      1     -206.6524465929  -2.0991847E+02   1.2863390E-01
      2     -206.6033902519   4.9056341E-02   7.2298874E-02
      3     -205.3967982035   1.2065920E+00   7.0025567E-02
      4     -206.4344363955  -1.0376382E+00   5.1488326E-02
      5     -206.8395909920  -4.0515460E-01   3.9524610E-02
      6     -207.0958712885  -2.5628030E-01   2.5312499E-02
      7     -207.1638305839  -6.7959295E-02   1.7382110E-02
      8     -207.1160864745   4.7744109E-02   1.9933723E-02
      9     -207.0711412823   4.4945192E-02   2.1399994E-02
     10     -207.1749826717  -1.0384139E-01   1.2894999E-02
     11     -207.1987752199  -2.3792548E-02   8.7006061E-03
     12     -207.2029658818  -4.1906618E-03   7.3065462E-03
     13     -207.2108693034  -7.9034216E-03   4.6610735E-03
     14     -207.2157416766  -4.8723731E-03   2.3525166E-03
     15     -207.2134179289   2.3237476E-03   3.6558205E-03
     16     -207.2169307330  -3.5128041E-03   1.2537123E-03
     17     -207.2172582202  -3.2748719E-04   6.0882575E-04
     18     -207.2172393758   1.8844381E-05   6.8046646E-04
     19     -207.2173678716  -1.2849580E-04   2.5942543E-04
     20     -207.2173814821  -1.3610513E-05   1.1099764E-04
     21     -207.2173855116  -4.0294566E-06   3.5897831E-05
     22     -207.2173858737  -3.6211500E-07   1.2915470E-05
------------------------------------------------------------

 total:                                   2.997 sec
Calculation for fragment 2
 ------------------------------
   
charge of fragment :   0.
unpaired e- of fragment :  1
------------------------------------------------------------
  cycle        total energy    energy error   density error
------------------------------------------------------------
      1     -206.6611717003  -2.0992560E+02   1.2748797E-01
      2     -206.7419559542  -8.0784254E-02   7.0155207E-02
      3     -205.4204087130   1.3215472E+00   6.8293236E-02
      4     -206.4513712758  -1.0309626E+00   4.9902062E-02
      5     -206.8228163417  -3.7144507E-01   3.8328492E-02
      6     -207.1122568118  -2.8944047E-01   2.4267421E-02
      7     -207.1961873772  -8.3930565E-02   1.3765541E-02
      8     -207.2075282651  -1.1340888E-02   7.5449600E-03
      9     -207.1386669614   6.8861304E-02   1.6213182E-02
     10     -207.2068754998  -6.8208538E-02   7.8972294E-03
     11     -207.1982975778   8.5779221E-03   7.1542293E-03
     12     -207.2051316983  -6.8341205E-03   6.1892701E-03
     13     -207.2162683672  -1.1136669E-02   3.4556246E-03
     14     -207.2178813334  -1.6129662E-03   2.1904489E-03
     15     -207.2184400716  -5.5873815E-04   1.6726213E-03
     16     -207.2192735091  -8.3343748E-04   8.1196291E-04
     17     -207.2192191171   5.4391936E-05   8.0132870E-04
     18     -207.2194085666  -1.8944950E-04   3.3556792E-04
     19     -207.2194514975  -4.2930894E-05   1.2228354E-04
     20     -207.2194516708  -1.7322742E-07   1.1254297E-04
     21     -207.2194567185  -5.0476905E-06   1.9683446E-05
     22     -207.2194567071   1.1336965E-08   1.8741646E-05
------------------------------------------------------------

 total:                                   1.855 sec
   
   ::::::::::::::::::::::::::::::::::::::::::::::
   ::     D I P R O      C O U P L I N G S     ::
   ::::::::::::::::::::::::::::::::::::::::::::::
   
energy threshhold for near-degenerate orbitals near HOMO and LUMO considered for DIPRO:  0.300 eV
no. of orbitals within energy window of frag 1         4
no. of orbitals within energy window of frag 2         4
   
  Fragment 1 SOMO-1  Fragment 2 SOMO-1
--------------------------------------
E_mon(orb) frag1 frag2              -9.281    -9.272 eV
J(AB):               -0.016 eV
S(AB):             0.00070993 Eh
|J(AB,eff)|:            0.009 eV
   
  Fragment 1 SOMO-1  Fragment 2 SOMO 
--------------------------------------
E_mon(orb) frag1 frag2              -9.281    -9.187 eV
J(AB):               -0.004 eV
S(AB):             0.00017904 Eh
|J(AB,eff)|:            0.002 eV
   
  Fragment 1 SOMO-1  Fragment 2 LUMO 
--------------------------------------
E_mon(orb) frag1 frag2              -9.281    -9.114 eV
J(AB):                0.001 eV
S(AB):            -0.00003568 Eh
|J(AB,eff)|:            0.000 eV
   
  Fragment 1 SOMO-1  Fragment 2 LUMO+1
--------------------------------------
E_mon(orb) frag1 frag2              -9.281    -9.096 eV
J(AB):               -0.005 eV
S(AB):             0.00021146 Eh
|J(AB,eff)|:            0.003 eV
   
  Fragment 1 SOMO   Fragment 2 SOMO-1
--------------------------------------
E_mon(orb) frag1 frag2              -9.201    -9.272 eV
J(AB):               -0.006 eV
S(AB):             0.00019746 Eh
|J(AB,eff)|:            0.004 eV
   
  Fragment 1 SOMO   Fragment 2 SOMO 
--------------------------------------
E_mon(orb) frag1 frag2              -9.201    -9.187 eV
J(AB):               -0.000 eV
S(AB):             0.00000503 Eh
|J(AB,eff)|:            0.000 eV
   
  Fragment 1 SOMO   Fragment 2 LUMO 
--------------------------------------
E_mon(orb) frag1 frag2              -9.201    -9.114 eV
J(AB):               -0.000 eV
S(AB):             0.00000716 Eh
|J(AB,eff)|:            0.000 eV
   
  Fragment 1 SOMO   Fragment 2 LUMO+1
--------------------------------------
E_mon(orb) frag1 frag2              -9.201    -9.096 eV
J(AB):               -0.002 eV
S(AB):             0.00006138 Eh
|J(AB,eff)|:            0.001 eV
   
  Fragment 1 LUMO   Fragment 2 SOMO-1
--------------------------------------
E_mon(orb) frag1 frag2              -9.120    -9.272 eV
J(AB):                0.013 eV
S(AB):            -0.00061992 Eh
|J(AB,eff)|:            0.008 eV
   
  Fragment 1 LUMO   Fragment 2 SOMO 
--------------------------------------
E_mon(orb) frag1 frag2              -9.120    -9.187 eV
J(AB):               -0.008 eV
S(AB):             0.00047349 Eh
|J(AB,eff)|:            0.004 eV
   
  Fragment 1 LUMO   Fragment 2 LUMO 
--------------------------------------
E_mon(orb) frag1 frag2              -9.120    -9.114 eV
J(AB):               -0.001 eV
S(AB):             0.00002278 Eh
|J(AB,eff)|:            0.001 eV
   
  Fragment 1 LUMO   Fragment 2 LUMO+1
--------------------------------------
E_mon(orb) frag1 frag2              -9.120    -9.096 eV
J(AB):                0.003 eV
S(AB):            -0.00011997 Eh
|J(AB,eff)|:            0.002 eV
   
  Fragment 1 LUMO+1  Fragment 2 SOMO-1
--------------------------------------
E_mon(orb) frag1 frag2              -9.103    -9.272 eV
J(AB):               -0.029 eV
S(AB):             0.00131525 Eh
|J(AB,eff)|:            0.016 eV
   
  Fragment 1 LUMO+1  Fragment 2 SOMO 
--------------------------------------
E_mon(orb) frag1 frag2              -9.103    -9.187 eV
J(AB):               -0.008 eV
S(AB):             0.00036987 Eh
|J(AB,eff)|:            0.004 eV
   
  Fragment 1 LUMO+1  Fragment 2 LUMO 
--------------------------------------
E_mon(orb) frag1 frag2              -9.103    -9.114 eV
J(AB):               -0.002 eV
S(AB):             0.00007157 Eh
|J(AB,eff)|:            0.001 eV
   
  Fragment 1 LUMO+1  Fragment 2 LUMO+1
--------------------------------------
E_mon(orb) frag1 frag2              -9.103    -9.096 eV
J(AB):               -0.014 eV
S(AB):             0.00065144 Eh
|J(AB,eff)|:            0.008 eV
   
..............................................................................
:  total |J(AB,eff)| for hole transport (occ. MOs) :               0.010 eV  :
:  total |J(AB,eff)| for charge transport (unocc. MOs) :           0.009 eV  :
:  total |J(AB,eff)| for charge transfer (CT) :                    0.019 eV  :
..............................................................................
  
 Please remember, DIPRO is not available for restart!
   
normal termination of dipro
----------------------------------------------------------
 * finished run on 2025/03/06 at 11:43:15.563     
----------------------------------------------------------
 dipro:
 * wall-time:     0 d,  0 h,  0 min, 20.113 sec
 *  cpu-time:     0 d,  0 h,  1 min, 26.921 sec
 * ratio c/w:     4.322 speedup
Reorganization energy (electron): 0.030299060442198215 eV
Reorganization energy (hole): 0.028721067491879495 eV
Electron Transfer integral J: 0.009 eV
Hole Transfer integral J: 0.01 eV
