302
 energy: -414.408762178814 gnorm: 0.155881360850 xtb: 6.7.1 (edcfbbe)
C            2.06150000000000        0.97960000000000        0.90860000000000
C            1.71660000000000       -0.24700000000000        1.46840000000000
C            2.75450000000000       -1.09850000000000        1.97930000000000
C            4.05970000000000       -0.53960000000000        2.08400000000000
C            4.33450000000000        0.70330000000000        1.48850000000000
C            3.36600000000000        1.45920000000000        0.88100000000000
C            2.58000000000000       -2.45480000000000        2.45410000000000
C            3.58190000000000       -2.92190000000000        3.33070000000000
C            4.81020000000000       -2.22180000000000        3.46450000000000
N            5.07990000000000       -1.10430000000000        2.76890000000000
C            1.53830000000000       -3.38960000000000        2.15090000000000
C            1.41110000000000       -4.53170000000000        2.99720000000000
N            2.27420000000000       -4.84760000000000        3.98620000000000
C            3.37690000000000       -4.09320000000000        4.10480000000000
C            4.35180000000000       -4.47190000000000        5.04070000000000
C            5.54400000000000       -3.78740000000000        5.18920000000000
C            5.76990000000000       -2.69120000000000        4.37430000000000
C            0.63610000000000       -3.30480000000000        1.01940000000000
C           -0.42510000000000       -4.23450000000000        0.93650000000000
C           -0.60360000000000       -5.27230000000000        1.82690000000000
C            0.34120000000000       -5.42490000000000        2.81770000000000
O            0.35990000000000       -0.55300000000000        1.53160000000000
C           -3.80610000000000       -2.35990000000000        0.13590000000000
C           -2.88960000000000       -1.46350000000000        0.68220000000000
C           -3.36190000000000       -0.27550000000000        1.32210000000000
C           -4.73720000000000       -0.28410000000000        1.70720000000000
C           -5.61670000000000       -1.22050000000000        1.12580000000000
C           -5.18080000000000       -2.21930000000000        0.29100000000000
C           -2.55590000000000        0.87030000000000        1.69290000000000
C           -3.10200000000000        1.65010000000000        2.74050000000000
C           -4.40700000000000        1.38420000000000        3.24930000000000
N           -5.24490000000000        0.50290000000000        2.67790000000000
C           -1.48820000000000        1.48000000000000        0.93520000000000
C           -1.12060000000000        2.80950000000000        1.33270000000000
N           -1.37270000000000        3.32550000000000        2.56430000000000
C           -2.41620000000000        2.79620000000000        3.22820000000000
C           -2.96900000000000        3.53390000000000        4.29120000000000
C           -4.22190000000000        3.26000000000000        4.81210000000000
C           -4.91870000000000        2.19060000000000        4.27770000000000
C           -1.00460000000000        1.06110000000000       -0.38240000000000
C           -0.68680000000000        2.07400000000000       -1.32170000000000
C           -0.55210000000000        3.40410000000000       -0.97430000000000
C           -0.66120000000000        3.72670000000000        0.36490000000000
O           -1.57780000000000       -1.88080000000000        0.72190000000000
B           -0.31200000000000       -1.21380000000000        0.38440000000000
N            0.71560000000000       -2.32540000000000        0.02560000000000
C            2.07060000000000       -2.99370000000000       -1.90470000000000
C            1.89900000000000       -2.04890000000000       -0.73420000000000
N           -0.69480000000000       -0.22990000000000       -0.72410000000000
C           -1.32780000000000       -2.05720000000000       -2.25400000000000
C           -0.68330000000000       -0.70030000000000       -2.07830000000000
C           -4.92440000000000        4.23760000000000        5.76790000000000
C           -5.85510000000000        3.47780000000000        6.73230000000000
C           -3.90430000000000        5.02950000000000        6.60400000000000
C           -5.75740000000000        5.22530000000000        4.93390000000000
C           -0.36710000000000        4.47370000000000       -2.06470000000000
C           -1.55820000000000        4.39560000000000       -3.03810000000000
C           -0.32310000000000        5.89300000000000       -1.46610000000000
C            0.93950000000000        4.23530000000000       -2.83640000000000
C           -6.18040000000000       -3.20310000000000       -0.33220000000000
C           -7.36770000000000       -2.42670000000000       -0.93420000000000
C           -5.53000000000000       -4.02440000000000       -1.46250000000000
C           -6.69160000000000       -4.16270000000000        0.75470000000000
C           -1.74080000000000       -6.29480000000000        1.68110000000000
C           -1.19280000000000       -7.54860000000000        0.98110000000000
C           -2.29850000000000       -6.68040000000000        3.06600000000000
C           -2.90280000000000       -5.72070000000000        0.85210000000000
C            6.54650000000000       -4.23300000000000        6.26330000000000
C            7.81590000000000       -3.36020000000000        6.25820000000000
C            5.88480000000000       -4.11370000000000        7.64680000000000
C            6.95690000000000       -5.69420000000000        6.00740000000000
C            3.70980000000000        2.75610000000000        0.13800000000000
C            5.16040000000000        3.20480000000000        0.40250000000000
H            5.37000000000000        4.14790000000000       -0.10190000000000
H            5.87530000000000        2.47110000000000        0.03170000000000
H            5.33500000000000        3.35310000000000        1.46800000000000
C            3.54350000000000        2.49770000000000       -1.36800000000000
H            4.20200000000000        1.69240000000000       -1.69280000000000
H            3.79050000000000        3.38550000000000       -1.94910000000000
H            2.52170000000000        2.20050000000000       -1.60080000000000
C            2.77630000000000        3.88730000000000        0.59800000000000
H            2.86230000000000        4.04160000000000        1.67290000000000
H            1.73910000000000        3.65560000000000        0.37420000000000
H            3.02230000000000        4.82580000000000        0.10190000000000
H            7.57560000000000       -2.31800000000000        6.46700000000000
H            8.32500000000000       -3.41370000000000        5.29640000000000
H            8.51730000000000       -3.69430000000000        7.02250000000000
H            5.56760000000000       -3.08860000000000        7.83610000000000
H            6.57460000000000       -4.40360000000000        8.43870000000000
H            5.00500000000000       -4.75080000000000        7.72320000000000
H            0.97520000000000        3.23420000000000       -3.26380000000000
H            1.79640000000000        4.36070000000000       -2.17810000000000
H            1.04380000000000        4.94950000000000       -3.65290000000000
H           -1.24040000000000        6.11780000000000       -0.92240000000000
H           -0.21430000000000        6.64040000000000       -2.25180000000000
H            0.51990000000000        6.00700000000000       -0.78510000000000
H           -2.49830000000000        4.54460000000000       -2.50750000000000
H           -1.60240000000000        3.42510000000000       -3.53070000000000
H           -1.48210000000000        5.15950000000000       -3.81150000000000
H           -6.50240000000000        4.69820000000000        4.33860000000000
H           -5.12050000000000        5.78620000000000        4.25040000000000
H           -6.27670000000000        5.93720000000000        5.57490000000000
H           -3.23050000000000        4.35010000000000        7.11750000000000
H           -4.40320000000000        5.63820000000000        7.35770000000000
H           -3.30870000000000        5.69940000000000        5.98560000000000
H           -5.31950000000000        2.66390000000000        7.21370000000000
H           -6.71390000000000        3.05440000000000        6.21390000000000
H           -6.23660000000000        4.13790000000000        7.51080000000000
H           -5.08670000000000       -3.37050000000000       -2.21310000000000
H           -6.26990000000000       -4.65090000000000       -1.96020000000000
H           -4.75370000000000       -4.68430000000000       -1.07910000000000
H           -7.18680000000000       -3.61590000000000        1.55610000000000
H           -5.86900000000000       -4.72700000000000        1.19220000000000
H           -7.40610000000000       -4.87450000000000        0.34230000000000
H           -7.01950000000000       -1.69950000000000       -1.66730000000000
H           -7.92640000000000       -1.89140000000000       -0.16810000000000
H           -8.06150000000000       -3.10260000000000       -1.43340000000000
H            7.40270000000000       -5.80090000000000        5.01890000000000
H            6.09880000000000       -6.36270000000000        6.06160000000000
H            7.68590000000000       -6.02890000000000        6.74500000000000
H            6.68370000000000       -2.13340000000000        4.45220000000000
H            4.14780000000000       -5.33070000000000        5.65270000000000
H            5.34890000000000        1.05180000000000        1.53800000000000
H            0.29000000000000       -6.26980000000000        3.47850000000000
H            1.27170000000000        1.56720000000000        0.48440000000000
H           -1.12090000000000       -4.10550000000000        0.13120000000000
H           -3.41290000000000       -3.21620000000000       -0.37620000000000
H           -0.46710000000000        1.79450000000000       -2.33460000000000
H           -6.65710000000000       -1.15170000000000        1.38460000000000
H           -0.51530000000000        4.73980000000000        0.68920000000000
H           -5.92120000000000        1.98650000000000        4.60410000000000
H           -2.42120000000000        4.39300000000000        4.62860000000000
H           -1.55820000000000       -7.20780000000000        3.66530000000000
H           -3.16280000000000       -7.33680000000000        2.96720000000000
H           -2.61260000000000       -5.79420000000000        3.61530000000000
H           -2.60030000000000       -5.53420000000000       -0.17750000000000
H           -3.25660000000000       -4.78790000000000        1.28880000000000
H           -3.74080000000000       -6.41690000000000        0.82370000000000
H           -0.38300000000000       -7.99330000000000        1.55880000000000
H           -0.80200000000000       -7.29980000000000       -0.00530000000000
H           -1.97230000000000       -8.30000000000000        0.85750000000000
H            0.34800000000000       -0.69470000000000       -2.44310000000000
H           -1.22070000000000        0.02270000000000       -2.70130000000000
H           -0.86540000000000       -2.79560000000000       -1.60110000000000
H           -1.25330000000000       -2.42250000000000       -3.28070000000000
H           -2.38600000000000       -2.01640000000000       -1.99620000000000
H            2.76300000000000       -2.13430000000000       -0.06880000000000
H            1.87540000000000       -1.00340000000000       -1.05700000000000
H            2.09120000000000       -4.03030000000000       -1.56410000000000
H            2.99690000000000       -2.80460000000000       -2.45170000000000
H            1.24730000000000       -2.90700000000000       -2.61370000000000
C            1.02740000000000        2.06100000000000        9.78070000000000
C            1.38560000000000        0.79590000000000        9.30880000000000
C            2.63130000000000        0.20370000000000        9.75880000000000
C            3.46590000000000        1.04670000000000       10.55780000000000
C            3.04610000000000        2.33450000000000       10.93710000000000
C            1.81950000000000        2.83860000000000       10.61120000000000
C            3.10410000000000       -1.16730000000000        9.58740000000000
C            4.22500000000000       -1.55720000000000       10.35710000000000
C            5.01730000000000       -0.59010000000000       11.02500000000000
N            4.67120000000000        0.70190000000000       11.06820000000000
C            2.55680000000000       -2.23180000000000        8.79790000000000
C            2.86550000000000       -3.58350000000000        9.14830000000000
N            3.88550000000000       -3.93070000000000        9.95520000000000
C            4.60840000000000       -2.92470000000000       10.47090000000000
C            5.76940000000000       -3.25780000000000       11.18720000000000
C            6.57570000000000       -2.30900000000000       11.78530000000000
C            6.18390000000000       -0.98560000000000       11.69760000000000
C            1.71460000000000       -2.05470000000000        7.64360000000000
C            0.93250000000000       -3.14710000000000        7.20640000000000
C            1.09730000000000       -4.42890000000000        7.68690000000000
C            2.10600000000000       -4.63710000000000        8.60540000000000
O            0.40040000000000        0.29490000000000        8.45290000000000
C           -2.83870000000000       -1.70450000000000        5.98750000000000
C           -2.09070000000000       -0.77410000000000        6.70710000000000
C           -2.75610000000000        0.36570000000000        7.28760000000000
C           -4.17060000000000        0.19650000000000        7.46710000000000
C           -4.87030000000000       -0.75230000000000        6.68920000000000
C           -4.22140000000000       -1.65650000000000        5.88600000000000
C           -2.18050000000000        1.61830000000000        7.77350000000000
C           -2.96100000000000        2.27840000000000        8.74840000000000
C           -4.23530000000000        1.76940000000000        9.13700000000000
N           -4.88240000000000        0.83370000000000        8.42100000000000
C           -1.10460000000000        2.40260000000000        7.22270000000000
C           -0.96970000000000        3.75960000000000        7.65450000000000
N           -1.56210000000000        4.25630000000000        8.76240000000000
C           -2.54600000000000        3.52130000000000        9.30320000000000
C           -3.28530000000000        4.08430000000000       10.35620000000000
C           -4.45410000000000        3.51940000000000       10.82960000000000
C           -4.92900000000000        2.38760000000000       10.19010000000000
C           -0.25810000000000        2.02040000000000        6.11520000000000
C            0.36570000000000        3.01790000000000        5.33270000000000
C            0.41170000000000        4.34000000000000        5.71420000000000
C           -0.21690000000000        4.67850000000000        6.89430000000000
O           -0.78680000000000       -1.16220000000000        6.90620000000000
B            0.31840000000000       -0.22870000000000        7.04900000000000
N            1.68970000000000       -0.88610000000000        6.91120000000000
C            3.78680000000000       -0.49110000000000        5.73210000000000
C            2.77650000000000        0.02460000000000        6.72350000000000
N            0.10490000000000        0.73010000000000        5.86860000000000
C            0.26790000000000       -1.21430000000000        4.34170000000000
C            0.43140000000000        0.27370000000000        4.54800000000000
C           -5.22290000000000        4.21000000000000       11.96430000000000
C           -6.42530000000000        3.36780000000000       12.43160000000000
C           -4.28290000000000        4.41880000000000       13.16660000000000
C           -5.73890000000000        5.57130000000000       11.46530000000000
C            1.21730000000000        5.34420000000000        4.87790000000000
C            0.67000000000000        5.36930000000000        3.44040000000000
C            1.12840000000000        6.76770000000000        5.45820000000000
C            2.69510000000000        4.91120000000000        4.85980000000000
C           -4.96800000000000       -2.68400000000000        5.02780000000000
C           -6.32330000000000       -2.11870000000000        4.56340000000000
C           -4.13770000000000       -3.03030000000000        3.77460000000000
C           -5.19790000000000       -3.95910000000000        5.85290000000000
C            0.23330000000000       -5.60460000000000        7.21060000000000
C            1.12140000000000       -6.63140000000000        6.48780000000000
C           -0.43770000000000       -6.26610000000000        8.42810000000000
C           -0.87370000000000       -5.13740000000000        6.24690000000000
C            7.84390000000000       -2.74930000000000       12.53090000000000
C            8.61790000000000       -1.54510000000000       13.10060000000000
C            7.45180000000000       -3.67290000000000       13.69830000000000
C            8.76800000000000       -3.50490000000000       11.55810000000000
C            1.33260000000000        4.19440000000000       11.14590000000000
C            2.27970000000000        4.76030000000000       12.22220000000000
H            1.88890000000000        5.69350000000000       12.62750000000000
H            3.26550000000000        4.97210000000000       11.80910000000000
H            2.39290000000000        4.06100000000000       13.05020000000000
C            1.26020000000000        5.19890000000000        9.98840000000000
H            2.23440000000000        5.31870000000000        9.51510000000000
H            0.92520000000000        6.17610000000000       10.33510000000000
H            0.56090000000000        4.85470000000000        9.23310000000000
C           -0.05800000000000        4.02060000000000       11.78220000000000
H           -0.01900000000000        3.30870000000000       12.60610000000000
H           -0.77760000000000        3.64900000000000       11.05690000000000
H           -0.43320000000000        4.96760000000000       12.16890000000000
H            8.01260000000000       -0.99430000000000       13.82010000000000
H            8.91980000000000       -0.86210000000000       12.30690000000000
H            9.52090000000000       -1.87400000000000       13.61440000000000
H            6.77960000000000       -3.15960000000000       14.38550000000000
H            8.33150000000000       -3.98850000000000       14.25880000000000
H            6.94470000000000       -4.56840000000000       13.34160000000000
H            2.81420000000000        3.92620000000000        4.40970000000000
H            3.09450000000000        4.86510000000000        5.87260000000000
H            3.30120000000000        5.61400000000000        4.28850000000000
H            0.09470000000000        7.11110000000000        5.49500000000000
H            1.68910000000000        7.47120000000000        4.84310000000000
H            1.54270000000000        6.80780000000000        6.46530000000000
H           -0.37990000000000        5.66010000000000        3.43260000000000
H            0.74480000000000        4.38790000000000        2.97530000000000
H            1.22200000000000        6.07630000000000        2.82150000000000
H           -6.39420000000000        5.44250000000000       10.60410000000000
H           -4.91580000000000        6.21830000000000       11.16420000000000
H           -6.30130000000000        6.08540000000000       12.24450000000000
H           -3.87900000000000        3.46620000000000       13.50850000000000
H           -4.81270000000000        4.87960000000000       14.00000000000000
H           -3.44450000000000        5.06480000000000       12.90990000000000
H           -6.10550000000000        2.37870000000000       12.75870000000000
H           -7.15740000000000        3.24880000000000       11.63350000000000
H           -6.93080000000000        3.84740000000000       13.26960000000000
H           -3.85410000000000       -2.12540000000000        3.24030000000000
H           -4.70580000000000       -3.66220000000000        3.09330000000000
H           -3.22480000000000       -3.56520000000000        4.03010000000000
H           -5.79090000000000       -3.74340000000000        6.74120000000000
H           -4.24970000000000       -4.38540000000000        6.17970000000000
H           -5.72410000000000       -4.71330000000000        5.26810000000000
H           -6.18790000000000       -1.16380000000000        4.05750000000000
H           -7.00150000000000       -1.96710000000000        5.40180000000000
H           -6.81180000000000       -2.80200000000000        3.86960000000000
H            9.03440000000000       -2.87280000000000       10.71130000000000
H            8.28640000000000       -4.40070000000000       11.16820000000000
H            9.68890000000000       -3.81140000000000       12.05380000000000
H            6.76070000000000       -0.21490000000000       12.17300000000000
H            6.02710000000000       -4.29830000000000       11.25820000000000
H            3.71840000000000        2.89890000000000       11.55620000000000
H            2.32470000000000       -5.63360000000000        8.94260000000000
H            0.07880000000000        2.44360000000000        9.45750000000000
H            0.19550000000000       -2.95600000000000        6.45250000000000
H           -2.31230000000000       -2.53240000000000        5.55300000000000
H            0.90920000000000        2.71740000000000        4.45680000000000
H           -5.94080000000000       -0.77350000000000        6.77550000000000
H           -0.18990000000000        5.69380000000000        7.24270000000000
H           -5.87840000000000        1.96770000000000       10.46430000000000
H           -2.94190000000000        5.01820000000000       10.76150000000000
H            0.30240000000000       -6.66150000000000        9.12250000000000
H           -1.07960000000000       -7.09090000000000        8.11960000000000
H           -1.05030000000000       -5.54400000000000        8.96730000000000
H           -0.45170000000000       -4.68550000000000        5.35000000000000
H           -1.52330000000000       -4.40860000000000        6.73020000000000
H           -1.49440000000000       -5.97690000000000        5.93550000000000
H            1.88350000000000       -7.03360000000000        7.15410000000000
H            1.62870000000000       -6.17060000000000        5.64260000000000
H            0.52920000000000       -7.46600000000000        6.11320000000000
H            1.45030000000000        0.58980000000000        4.30220000000000
H           -0.22390000000000        0.81050000000000        3.85010000000000
H            1.02710000000000       -1.77570000000000        4.88540000000000
H            0.33560000000000       -1.49660000000000        3.29210000000000
H           -0.70690000000000       -1.54250000000000        4.69110000000000
H            3.26410000000000        0.21820000000000        7.67960000000000
H            2.36530000000000        0.98910000000000        6.40590000000000
H            4.19280000000000       -1.44760000000000        6.06400000000000
H            4.62190000000000        0.19820000000000        5.58950000000000
H            3.32460000000000       -0.65830000000000        4.75970000000000
302
 energy: -414.440618970862 gnorm: 0.074256686277 xtb: 6.7.1 (edcfbbe)
C            2.06122923514591        0.98166405757321        0.90790640952105
C            1.70874927125097       -0.24486150374602        1.45655789652569
C            2.73180029677279       -1.09629049138392        1.98111484342771
C            4.04738622980562       -0.53943013495754        2.08866451208986
C            4.34111309230132        0.69990733731194        1.48680863458504
C            3.37597337321149        1.45801732887020        0.87443497180424
C            2.57271472804341       -2.45334310353798        2.44534652518190
C            3.57604222746614       -2.91994731277975        3.32214360276408
C            4.80355631972140       -2.21816787606312        3.46252963045886
N            5.06285684801396       -1.11123456676485        2.76063309884720
C            1.53927211188631       -3.39333009797349        2.12498936356285
C            1.41342861033750       -4.53327392689571        2.98474099338745
N            2.27299129060665       -4.83558533448706        3.97249201975551
C            3.37798391379218       -4.09607491993046        4.09419590800786
C            4.35041514961170       -4.47460760687386        5.04200443160666
C            5.54692055378955       -3.78598118994937        5.19111671551212
C            5.77349232576926       -2.68923330577296        4.37061988036130
C            0.63870716179066       -3.31400792502031        1.01446657741085
C           -0.41634461190753       -4.23198540855336        0.93313198748835
C           -0.60222914693178       -5.27823495622287        1.83043338496088
C            0.34163269810445       -5.43232373535689        2.82087658632709
O            0.36942870744725       -0.54018724356896        1.52044058795224
C           -3.79365013781458       -2.36154743248400        0.14740184846273
C           -2.87214744985203       -1.46759427264420        0.69625254550813
C           -3.34106373321125       -0.28552974670489        1.32317369196443
C           -4.72226480308055       -0.29122275807750        1.70800990149138
C           -5.61526847960358       -1.21945712013336        1.12737130021134
C           -5.17759133896987       -2.22120785237402        0.29444735316384
C           -2.55454059699198        0.86978393225079        1.67657696722750
C           -3.10000438600322        1.64339171742249        2.73118162039791
C           -4.40281848857408        1.38290251790807        3.24265734279902
N           -5.22655589737489        0.50197000431320        2.66574373641864
C           -1.50132842364884        1.47745215071495        0.91069504641003
C           -1.14153112996959        2.80596139518423        1.31500751520307
N           -1.40245727176496        3.32113974720918        2.53451916266914
C           -2.42165690815379        2.79303176053941        3.21647689833345
C           -2.96507249511980        3.53587736044250        4.28917817163896
C           -4.22804167335913        3.27204461038517        4.80094287888198
C           -4.92279135904893        2.19100424661929        4.27325730110885
C           -0.98889934269007        1.06442990298836       -0.38574437618295
C           -0.68590719714839        2.07807965882940       -1.31726920911073
C           -0.57250791436248        3.42025874618114       -0.97314322121547
C           -0.65955060437559        3.73484930425856        0.36777250626047
O           -1.58617065949003       -1.88580741538862        0.75209744652161
B           -0.33330358606633       -1.21452561341863        0.39602346649455
N            0.68564729704703       -2.33498076076500        0.02150305034253
C            2.06441742409012       -3.00359835309041       -1.90314359242211
C            1.89625862082363       -2.06281931743389       -0.71595040493984
N           -0.70374009072239       -0.22559213122982       -0.71966837243964
C           -1.33403854010112       -2.05332414956212       -2.25682402173596
C           -0.69212985203096       -0.68499783851914       -2.08914004308467
C           -4.92422375216653        4.23698542476939        5.76585103809832
C           -5.85717598404497        3.48208010606504        6.72355353651681
C           -3.91080686690488        5.03168936868350        6.59594481321476
C           -5.75461014924120        5.22046514889817        4.92748144386751
C           -0.36975698691344        4.47912157514264       -2.06087518716349
C           -1.55838421394089        4.39348668853106       -3.03235513267386
C           -0.32355684682964        5.89299980489614       -1.46664844123022
C            0.93374197633686        4.23798856423586       -2.83393654140631
C           -6.17409597145008       -3.19913802911363       -0.33480132887201
C           -7.36203389016209       -2.42597692273754       -0.93207948597088
C           -5.52976215957455       -4.02206759145251       -1.46043359851115
C           -6.68755940199580       -4.15666366809720        0.75205774260523
C           -1.74084237651419       -6.29180660718752        1.68329634348660
C           -1.18988005801412       -7.54363145957089        0.98376547831184
C           -2.29641052275457       -6.67946155134429        3.06335069292453
C           -2.89965318829985       -5.72243887649630        0.85501337138742
C            6.54984106031234       -4.23118308598098        6.25745286234503
C            7.81476920222719       -3.36176573229371        6.25564376101448
C            5.88544044178472       -4.11367916287054        7.63676784402263
C            6.95490243290672       -5.69124795624244        6.00376541903693
C            3.71505151956349        2.75593807302555        0.14302953655410
C            5.16060907113911        3.20363799851679        0.40222078795359
H            5.35655520687159        4.14657363461002       -0.10561873458850
H            5.87406475452227        2.47287547221891        0.02755018721754
H            5.33297571797005        3.35317763437267        1.46630672838867
C            3.54593460793995        2.49078828152912       -1.36036599872271
H            4.20725309656249        1.68808734268678       -1.68300009909666
H            3.79291733891128        3.38050164686736       -1.93752251896010
H            2.52418323832525        2.19678044473900       -1.59060963956653