Optimization of monomers started
      -----------------------------------------------------------      
     |                   =====================                   |     
     |                           x T B                           |     
     |                   =====================                   |     
     |                         S. Grimme                         |     
     |          Mulliken Center for Theoretical Chemistry        |     
     |                    University of Bonn                     |     
      -----------------------------------------------------------      

   * xtb version 6.7.1 (edcfbbe) compiled by 'runner@Mac-1732539442253.local' on 2024-11-25

   xtb is free software: you can redistribute it and/or modify it under
   the terms of the GNU Lesser General Public License as published by
   the Free Software Foundation, either version 3 of the License, or
   (at your option) any later version.
   
   xtb is distributed in the hope that it will be useful,
   but WITHOUT ANY WARRANTY; without even the implied warranty of
   MERCHANTABILITY or FITNESS FOR A PARTICULAR PURPOSE.  See the
   GNU Lesser General Public License for more details.
   
   Cite this work as:
   * C. Bannwarth, E. Caldeweyher, S. Ehlert, A. Hansen, P. Pracht,
     J. Seibert, S. Spicher, S. Grimme, WIREs Comput. Mol. Sci., 2020, 11,
     e01493. DOI: 10.1002/wcms.1493
   
   for GFN2-xTB:
   * C. Bannwarth, S. Ehlert and S. Grimme., J. Chem. Theory Comput., 2019,
     15, 1652-1671. DOI: 10.1021/acs.jctc.8b01176
   for GFN1-xTB:
   * S. Grimme, C. Bannwarth, P. Shushkov, J. Chem. Theory Comput., 2017,
     13, 1989-2009. DOI: 10.1021/acs.jctc.7b00118
   for GFN0-xTB:
   * P. Pracht, E. Caldeweyher, S. Ehlert, S. Grimme, ChemRxiv, 2019, preprint.
     DOI: 10.26434/chemrxiv.8326202.v1
   for GFN-FF:
   * S. Spicher and S. Grimme, Angew. Chem. Int. Ed., 2020, 59, 15665-15673.
     DOI: 10.1002/anie.202004239
   
   for ALPB and GBSA implicit solvation:
   * S. Ehlert, M. Stahn, S. Spicher, S. Grimme, J. Chem. Theory Comput.,
     2021, 17, 4250-4261. DOI: 10.1021/acs.jctc.1c00471
   
   for ddCOSMO and CPCM-X implicit solvation:
   * M. Stahn, S. Ehlert, S. Grimme, J. Phys. Chem. A,
     2023, XX, XXXX-XXXX. DOI: 10.1021/acs.jpca.3c04382
   
   for DFT-D4:
   * E. Caldeweyher, C. Bannwarth and S. Grimme, J. Chem. Phys., 2017,
     147, 034112. DOI: 10.1063/1.4993215
   * E. Caldeweyher, S. Ehlert, A. Hansen, H. Neugebauer, S. Spicher,
     C. Bannwarth and S. Grimme, J. Chem. Phys., 2019, 150, 154122.
     DOI: 10.1063/1.5090222
   * E. Caldeweyher, J.-M. Mewes, S. Ehlert and S. Grimme, Phys. Chem. Chem. Phys.
     2020, 22, 8499-8512. DOI: 10.1039/D0CP00502A
   
   for sTDA-xTB:
   * S. Grimme and C. Bannwarth, J. Chem. Phys., 2016, 145, 054103.
     DOI: 10.1063/1.4959605
   
   in the mass-spec context:
   * V. Asgeirsson, C. Bauer and S. Grimme, Chem. Sci., 2017, 8, 4879.
     DOI: 10.1039/c7sc00601b
   * J. Koopman and S. Grimme, ACS Omega 2019, 4, 12, 15120-15133.
     DOI: 10.1021/acsomega.9b02011
   
   for metadynamics refer to:
   * S. Grimme, J. Chem. Theory Comput., 2019, 155, 2847-2862
     DOI: 10.1021/acs.jctc.9b00143
   
   for SPH calculations refer to:
   * S. Spicher and S. Grimme, J. Chem. Theory Comput., 2021, 17, 1701-1714
     DOI: 10.1021/acs.jctc.0c01306
   
   for ONIOM refer to:
   * C. Plett, A. Katbashev, S. Ehlert, S. Grimme, M. Bursch,
     Phys. Chem. Chem. Phys., 2023, 25, 17860-17868. DOI: 10.1039/D3CP02178E
   
   for DIPRO refer to:
   * J. Kohn, N. Gildemeister, S. Grimme, D. Fazzi, A. Hansen,
     J. Chem. Phys., 2023, just accepted.
   
   for PTB refer to:
   * S. Grimme, M. Mueller, A. Hansen, J. Chem. Phys., 2023, 158, 124111.
     DOI: 10.1063/5.0137838
   
   with help from (in alphabetical order)
   P. Atkinson, C. Bannwarth, F. Bohle, G. Brandenburg, E. Caldeweyher
   M. Checinski, S. Dohm, S. Ehlert, S. Ehrlich, I. Gerasimov, C. Hölzer
   A. Katbashev, J. Kohn, J. Koopman, C. Lavigne, S. Lehtola, F. März, M. Müller,
   F. Musil, H. Neugebauer, J. Pisarek, C. Plett, P. Pracht, F. Pultar,
   J. Seibert, P. Shushkov, S. Spicher, M. Stahn, M. Steiner, T. Strunk,
   J. Stückrath, T. Rose, and J. Unsleber
   
 * started run on 2025/02/28 at 12:16:56.549     
   ID    Z sym.   atoms
    1    6 C      1-9, 11, 12, 14-33
    2    7 N      10, 13
    3    1 H      34-66, 68
    4    8 O      67

           -------------------------------------------------
          |                Calculation Setup                |
           -------------------------------------------------

          program call               : xtb ClosedN.mol --opt tight --cycles 500 --chrg 0 --uhf 0 --spinpol --tblite
          coordinate file            : ClosedN.mol
          omp threads                :                     8


molecular fragmentation (1/2 indicates fragments):
11111111111111111111111111211211211111122211211211222211222211211211
# atoms in fragment 1/2:    50    18
 fragment masses (1/2) :      399.46       51.15
CMA distance (Bohr)    :   2.745
constraining FC (au)   :  0.0500
repulsion energy          1.9556615279396E-01 Eh
dispersion energy        -2.2906750727847E-05 Eh
interaction energy        0.0000000000000E+00 Eh
number of electrons       1.7400000000000E+02 e
integral cutoff           1.7347787504999E+01 bohr

------------------------------------------------------------
  cycle        total energy    energy error   density error
------------------------------------------------------------
      1     -90.49425729589  -9.0689801E+01   1.3548439E-01
      2     -89.96186668981   5.3239061E-01   1.0081161E-01
      3     -89.66620740279   2.9565929E-01   9.2477188E-02
      4     -90.53846026354  -8.7225286E-01   5.1415314E-02
      5     -90.88250564589  -3.4404538E-01   1.9659707E-02
      6     -90.91822783645  -3.5722191E-02   1.0787214E-02
      7     -90.93058599444  -1.2358158E-02   6.2036059E-03
      8     -90.92891790105   1.6680934E-03   5.7951016E-03
      9     -90.93410150581  -5.1836048E-03   2.0528302E-03
     10     -90.93449692868  -3.9542287E-04   1.0317198E-03
     11     -90.93464602278  -1.4909410E-04   4.6852126E-04
     12     -90.93466639298  -2.0370192E-05   2.6664068E-04
     13     -90.93466950018  -3.1072054E-06   1.9531844E-04
     14     -90.93467420271  -4.7025290E-06   7.5034093E-05
     15     -90.93467477080  -5.6808615E-07   3.9974671E-05
     16     -90.93467501692  -2.4612187E-07   1.7227821E-05
------------------------------------------------------------

electronic energy        -9.1130218262962E+01 Eh
total energy             -9.0934675016919E+01 Eh

 total:                                   0.675 sec
 - repulsion                              0.000 sec (  0%)
 - dispersion                             0.004 sec (  0%)
 - coulomb                                0.003 sec (  0%)
 - hamiltonian                            0.008 sec (  1%)
 - scc                                    0.659 sec ( 97%)

      ----------------------------------------------------------- 
     |                   =====================                   |
     |                        A N C O P T                        |
     |                   =====================                   |
     |               Approximate Normal Coordinate               |
     |                Rational Function Optimizer                |
      ----------------------------------------------------------- 
      ----------------------------------------------------------- 
     |                   =====================                   |
     |                        A N C O P T                        |
     |                   =====================                   |
     |               Approximate Normal Coordinate               |
     |                Rational Function Optimizer                |
      ----------------------------------------------------------- 

          ...................................................
          :                      SETUP                      :
          :.................................................:
          :   optimization level             tight          :
          :   max. optcycles                   500          :
          :   ANC micro-cycles                  20          :
          :   degrees of freedom               198          :
          :.................................................:
          :   RF solver                   davidson          :
          :   write xtbopt.log                true          :
          :   linear?                        false          :
          :   energy convergence         0.1000000E-05 Eh   :
          :   grad. convergence          0.8000000E-03 Eh/α :
          :   maxmium RF displ.          1.0000000          :
          :   Hlow (freq-cutoff)         0.1000000E-01      :
          :   Hmax (freq-cutoff)         5.0000000          :
          :   S6 in model hess.         20.0000000          :
          ...................................................

generating ANC from exact Hessian ...
Using Lindh-Hessian (1995)
 Shifting diagonal of input Hessian by    1.0533574551043475E-002
 Lowest  eigenvalues of input Hessian
    0.010000    0.010061    0.010077    0.010102    0.010113    0.010132
    0.010139    0.010157    0.010169    0.010179    0.010186    0.010200
    0.010210    0.010213    0.010246    0.010251    0.010340    0.010345
 Highest eigenvalues
    0.715143    0.719237    0.722284    0.729514    0.741744    0.791730


........................................................................
.............................. CYCLE    1 ..............................
........................................................................
------------------------------------------------------------
  cycle        total energy    energy error   density error
------------------------------------------------------------
      1     -90.93467396977  -9.1130217E+01   8.0381555E-05
      2     -90.93466693766   7.0321065E-06   2.1648840E-04
      3     -90.93467490550  -7.9678384E-06   2.5433942E-05
      4     -90.93467503183  -1.2632671E-07   5.2539974E-06
------------------------------------------------------------

 total:                                   0.173 sec
 * total energy  :   -90.9346750 Eh     change       -0.1491108E-07 Eh
   gradient norm :     0.5444218 Eh/α   predicted     0.0000000E+00 (-100.00%)
   displ. norm   :     0.8986503 α      lambda       -0.4825156E+00
   maximum displ.:     0.4743325 α      in ANC's #129, #124, #125, ...

........................................................................
.............................. CYCLE    2 ..............................
........................................................................
------------------------------------------------------------
  cycle        total energy    energy error   density error
------------------------------------------------------------
      1     -91.39468070633  -9.1650915E+01   1.2059011E-02
      2     -91.39318017989   1.5005264E-03   7.7362575E-03
      3     -91.38348658529   9.6935946E-03   9.6410807E-03
      4     -91.39428447257  -1.0797887E-02   4.3301743E-03
      5     -91.39636502708  -2.0805545E-03   2.0039428E-03
      6     -91.39708414804  -7.1912097E-04   7.0398223E-04
      7     -91.39714015677  -5.6008726E-05   4.0721379E-04
      8     -91.39713963081   5.2595763E-07   3.0816148E-04
      9     -91.39715302818  -1.3397363E-05   8.4712747E-05
     10     -91.39715354415  -5.1597553E-07   5.5229941E-05
     11     -91.39715396589  -4.2174339E-07   2.2369165E-05
     12     -91.39715403255  -6.6657890E-08   1.0235344E-05
------------------------------------------------------------

 total:                                   0.527 sec
 * total energy  :   -91.3971540 Eh     change       -0.4624790E+00 Eh
   gradient norm :     0.4977279 Eh/α   predicted    -0.4368251E+00 (  -5.55%)
   displ. norm   :     0.9554370 α      lambda       -0.4740748E+00
   maximum displ.:     0.4527974 α      in ANC's #129, #124, #144, ...

........................................................................
.............................. CYCLE    3 ..............................
........................................................................
------------------------------------------------------------
  cycle        total energy    energy error   density error
------------------------------------------------------------
      1     -91.83674872977  -9.2196320E+01   1.2001273E-02
      2     -91.83673063128   1.8098488E-05   7.2662600E-03
      3     -91.82917536815   7.5552631E-03   8.1221569E-03
      4     -91.83789009827  -8.7147301E-03   3.9058809E-03
      5     -91.83935957460  -1.4694763E-03   1.9463717E-03
      6     -91.83990589721  -5.4632261E-04   6.2526914E-04
      7     -91.83993477640  -2.8879192E-05   3.8325737E-04
      8     -91.83994418975  -9.4133502E-06   2.4284452E-04
      9     -91.83995136805  -7.1782963E-06   9.3134789E-05
     10     -91.83995181955  -4.5150523E-07   6.4231415E-05
     11     -91.83995238371  -5.6415185E-07   1.7420414E-05
------------------------------------------------------------

 total:                                   0.423 sec
 * total energy  :   -91.8399524 Eh     change       -0.4427984E+00 Eh
   gradient norm :     0.4282047 Eh/α   predicted    -0.4534347E+00 (   2.40%)
   displ. norm   :     0.9304352 α      lambda       -0.3967572E+00
   maximum displ.:     0.4300431 α      in ANC's #124, #129, #125, ...

........................................................................
.............................. CYCLE    4 ..............................
........................................................................
------------------------------------------------------------
  cycle        total energy    energy error   density error
------------------------------------------------------------
      1     -92.19889620636  -9.2701833E+01   1.1133614E-02
      2     -92.19931751275  -4.2130638E-04   6.6374694E-03
      3     -92.19431548131   5.0020314E-03   6.8827540E-03
      4     -92.20028352529  -5.9680440E-03   3.0948064E-03
      5     -92.20125731176  -9.7378647E-04   1.4049612E-03
      6     -92.20153152169  -2.7420993E-04   4.9926125E-04
      7     -92.20154912178  -1.7600091E-05   2.8807848E-04
      8     -92.20155287396  -3.7521869E-06   1.8424263E-04
      9     -92.20155723924  -4.3652773E-06   6.4359711E-05
     10     -92.20155740407  -1.6482977E-07   4.5902933E-05
     11     -92.20155770061  -2.9654259E-07   1.0286821E-05
------------------------------------------------------------

 total:                                   0.356 sec
 * total energy  :   -92.2015577 Eh     change       -0.3616053E+00 Eh
   gradient norm :     0.3484924 Eh/α   predicted    -0.3701168E+00 (   2.35%)
   displ. norm   :     0.9144579 α      lambda       -0.3160083E+00
   maximum displ.:     0.4570340 α      in ANC's #124, #125, #129, ...

........................................................................
.............................. CYCLE    5 ..............................
........................................................................
------------------------------------------------------------
  cycle        total energy    energy error   density error
------------------------------------------------------------
      1     -92.48381596411  -9.3147544E+01   9.6831928E-03
      2     -92.48388271898  -6.6754874E-05   5.9482895E-03
      3     -92.48085893926   3.0237797E-03   5.7357439E-03
      4     -92.48523882337  -4.3798841E-03   1.7005611E-03
      5     -92.48553251881  -2.9369544E-04   6.7739704E-04
      6     -92.48558731661  -5.4797794E-05   2.7586056E-04
      7     -92.48558793536  -6.1875599E-07   1.9514601E-04
      8     -92.48559091804  -2.9826764E-06   1.0319598E-04
      9     -92.48559209124  -1.1732001E-06   4.5471623E-05
     10     -92.48559220867  -1.1743104E-07   2.6157816E-05
     11     -92.48559231469  -1.0601964E-07   6.7064327E-06
------------------------------------------------------------

 total:                                   0.355 sec
 * total energy  :   -92.4855923 Eh     change       -0.2840346E+00 Eh
   gradient norm :     0.2763664 Eh/α   predicted    -0.2901326E+00 (   2.15%)
   displ. norm   :     0.9116251 α      lambda       -0.2491091E+00
   maximum displ.:     0.4636317 α      in ANC's #124, #125, #120, ...

........................................................................
.............................. CYCLE    6 ..............................
........................................................................
------------------------------------------------------------
  cycle        total energy    energy error   density error
------------------------------------------------------------
      1     -92.70929194769  -9.3513541E+01   8.1586209E-03
      2     -92.70828819953   1.0037482E-03   5.8813091E-03
      3     -92.70766633144   6.2186809E-04   4.9261841E-03
      4     -92.71043493877  -2.7686073E-03   1.5235534E-03
      5     -92.71075229117  -3.1735240E-04   6.0860671E-04
      6     -92.71080329326  -5.1002091E-05   2.2608767E-04
      7     -92.71080527103  -1.9777644E-06   1.5889444E-04
      8     -92.71080684257  -1.5715459E-06   4.9571544E-05
      9     -92.71080709363  -2.5105213E-07   2.5484000E-05
     10     -92.71080716462  -7.0998425E-08   1.1258313E-05
------------------------------------------------------------

 total:                                   0.559 sec
 * total energy  :   -92.7108072 Eh     change       -0.2252148E+00 Eh
   gradient norm :     0.2217213 Eh/α   predicted    -0.2280674E+00 (   1.27%)
   displ. norm   :     0.9129821 α      lambda       -0.1997968E+00
   maximum displ.:     0.4281633 α      in ANC's #124, #125, #120, ...

........................................................................
.............................. CYCLE    7 ..............................
........................................................................
------------------------------------------------------------
  cycle        total energy    energy error   density error
------------------------------------------------------------
      1     -92.88944584605  -9.3812898E+01   7.3502840E-03
      2     -92.88694796175   2.4978843E-03   6.7749596E-03
      3     -92.89107703066  -4.1290689E-03   3.5693754E-03
      4     -92.89155970634  -4.8267568E-04   1.6554489E-03
      5     -92.89192202248  -3.6231614E-04   4.2440080E-04
      6     -92.89194583871  -2.3816224E-05   1.6441407E-04
      7     -92.89194668653  -8.4782279E-07   1.1497417E-04
      8     -92.89194757762  -8.9109399E-07   4.3343624E-05
      9     -92.89194776638  -1.8875025E-07   1.8347962E-05
------------------------------------------------------------

 total:                                   0.461 sec
 * total energy  :   -92.8919478 Eh     change       -0.1811406E+00 Eh
   gradient norm :     0.1803171 Eh/α   predicted    -0.1831685E+00 (   1.12%)
   displ. norm   :     0.9123831 α      lambda       -0.1618848E+00
   maximum displ.:     0.3816313 α      in ANC's #124, #125, #75, ...

........................................................................
.............................. CYCLE    8 ..............................
........................................................................
------------------------------------------------------------
  cycle        total energy    energy error   density error
------------------------------------------------------------
      1     -93.03558271118  -9.4060118E+01   7.3494334E-03
      2     -93.03282585993   2.7568512E-03   7.4619544E-03
      3     -93.03876953900  -5.9436791E-03   3.1216252E-03
      4     -93.03879336548  -2.3826482E-05   1.9791222E-03
      5     -93.03915283259  -3.5946710E-04   6.3559389E-04
      6     -93.03920783451  -5.5001925E-05   1.7100654E-04
      7     -93.03920973364  -1.8991271E-06   1.1333155E-04
      8     -93.03921101958  -1.2859411E-06   4.3229456E-05
      9     -93.03921110864  -8.9064713E-08   1.6554580E-05
------------------------------------------------------------

 total:                                   0.350 sec
 * total energy  :   -93.0392111 Eh     change       -0.1472633E+00 Eh
   gradient norm :     0.1493601 Eh/α   predicted    -0.1483223E+00 (   0.72%)
   displ. norm   :     0.9058467 α      lambda       -0.1322192E+00
   maximum displ.:     0.3284087 α      in ANC's #124, #75, #50, ...

........................................................................
.............................. CYCLE    9 ..............................
........................................................................
------------------------------------------------------------
  cycle        total energy    energy error   density error
------------------------------------------------------------
      1     -93.15297945569  -9.4263074E+01   8.0229332E-03
      2     -93.14993941712   3.0400386E-03   8.4003141E-03
      3     -93.15790649463  -7.9670775E-03   3.1973363E-03
      4     -93.15756304567   3.4344897E-04   2.5634075E-03
      5     -93.15810863388  -5.4558821E-04   1.2318972E-03
      6     -93.15833062466  -2.2199078E-04   2.3280859E-04
      7     -93.15833600665  -5.3819921E-06   1.1795596E-04
      8     -93.15833709580  -1.0891530E-06   4.9016228E-05
      9     -93.15833705498   4.0823011E-08   3.8649666E-05
     10     -93.15833728787  -2.3288814E-07   1.0945295E-05
------------------------------------------------------------

 total:                                   0.365 sec
 * total energy  :   -93.1583373 Eh     change       -0.1191262E+00 Eh
   gradient norm :     0.1201907 Eh/α   predicted    -0.1203564E+00 (   1.03%)
   displ. norm   :     0.8956151 α      lambda       -0.1045133E+00
   maximum displ.:     0.3082778 α      in ANC's #50, #84, #124, ...

........................................................................
.............................. CYCLE   10 ..............................
........................................................................
------------------------------------------------------------
  cycle        total energy    energy error   density error
------------------------------------------------------------
      1     -93.24600979187  -9.4431980E+01   8.0542376E-03
      2     -93.24528885230   7.2093958E-04   7.2097987E-03
      3     -93.24982094871  -4.5320964E-03   3.3455932E-03
      4     -93.25003756430  -2.1661559E-04   1.6034275E-03
      5     -93.25019680078  -1.5923648E-04   6.8974852E-04
      6     -93.25025972786  -6.2927077E-05   2.8638273E-04
      7     -93.25027122857  -1.1500716E-05   1.4665954E-04
      8     -93.25027373793  -2.5093600E-06   4.4443207E-05
      9     -93.25027371101   2.6917633E-08   3.6418294E-05
     10     -93.25027387357  -1.6255157E-07   1.4902533E-05
------------------------------------------------------------

 total:                                   0.407 sec
 * total energy  :   -93.2502739 Eh     change       -0.9193659E-01 Eh
   gradient norm :     0.0917664 Eh/α   predicted    -0.9417318E-01 (   2.43%)
   displ. norm   :     0.8833512 α      lambda       -0.7805599E-01
   maximum displ.:     0.3492427 α      in ANC's #50, #84, #51, ...

........................................................................
.............................. CYCLE   11 ..............................
........................................................................
------------------------------------------------------------
  cycle        total energy    energy error   density error
------------------------------------------------------------
      1     -93.31191615405  -9.4572965E+01   7.5986517E-03
      2     -93.30951467923   2.4014748E-03   6.8530416E-03
      3     -93.31325215387  -3.7374746E-03   4.0253242E-03
      4     -93.31346314003  -2.1098617E-04   3.1685907E-03
      5     -93.31479874481  -1.3356048E-03   8.4841583E-04
      6     -93.31489092749  -9.2182674E-05   3.4196881E-04
      7     -93.31490689251  -1.5965020E-05   1.5120514E-04
      8     -93.31491015749  -3.2649794E-06   5.9337603E-05
      9     -93.31491030214  -1.4465667E-07   3.7704176E-05
     10     -93.31491042201  -1.1986822E-07   2.2906206E-05
     11     -93.31491050422  -8.2205958E-08   6.1391682E-06
------------------------------------------------------------

 total:                                   0.478 sec
 * total energy  :   -93.3149105 Eh     change       -0.6463663E-01 Eh
   gradient norm :     0.0696879 Eh/α   predicted    -0.6948192E-01 (   7.50%)
   displ. norm   :     0.8909370 α      lambda       -0.5907560E-01
   maximum displ.:     0.3206040 α      in ANC's #50, #84, #36, ...

........................................................................
.............................. CYCLE   12 ..............................
........................................................................
------------------------------------------------------------
  cycle        total energy    energy error   density error
------------------------------------------------------------
      1     -93.34901755926  -9.4668270E+01   1.0990429E-02
      2     -93.33626958610   1.2747973E-02   1.1182710E-02
      3     -93.35091003467  -1.4640449E-02   6.4617168E-03
      4     -93.35318292808  -2.2728934E-03   2.8533618E-03
      5     -93.35452216529  -1.3392372E-03   1.2183310E-03
      6     -93.35474195565  -2.1979036E-04   5.1975593E-04
      7     -93.35477507382  -3.3118166E-05   2.5481948E-04
      8     -93.35477987032  -4.7965041E-06   1.3991303E-04
      9     -93.35478224933  -2.3790136E-06   6.7776951E-05
     10     -93.35478279146  -5.4212636E-07   2.7444495E-05
     11     -93.35478284054  -4.9075524E-08   1.0056633E-05
------------------------------------------------------------

 total:                                   0.437 sec
 * total energy  :   -93.3547828 Eh     change       -0.3987234E-01 Eh
   gradient norm :     0.0757669 Eh/α   predicted    -0.5298400E-01 (  32.88%)
   displ. norm   :     0.8337988 α      lambda       -0.4766974E-01
   maximum displ.:     0.3313937 α      in ANC's #50, #36, #51, ...

........................................................................
.............................. CYCLE   13 ..............................
........................................................................
------------------------------------------------------------
  cycle        total energy    energy error   density error
------------------------------------------------------------
      1     -93.39066556485  -9.4740013E+01   5.8204067E-03
      2     -93.39064250955   2.3055305E-05   3.9158929E-03
      3     -93.38978076420   8.6174535E-04   3.2199926E-03
      4     -93.39069929114  -9.1852694E-04   1.8295152E-03
      5     -93.39122596772  -5.2667658E-04   4.3582318E-04
      6     -93.39125037153  -2.4403801E-05   1.9311333E-04
      7     -93.39125615797  -5.7864481E-06   7.9090831E-05
      8     -93.39125692325  -7.6527419E-07   3.5702523E-05
      9     -93.39125700344  -8.0189736E-08   1.9495181E-05
------------------------------------------------------------

 total:                                   0.336 sec
 * total energy  :   -93.3912570 Eh     change       -0.3647416E-01 Eh
   gradient norm :     0.0688870 Eh/α   predicted    -0.4040536E-01 (  10.78%)
   displ. norm   :     0.8788560 α      lambda       -0.4488527E-01
   maximum displ.:     0.3599387 α      in ANC's #36, #50, #28, ...

........................................................................
.............................. CYCLE   14 ..............................
........................................................................
------------------------------------------------------------
  cycle        total energy    energy error   density error
------------------------------------------------------------
      1     -93.41988937844  -9.4778219E+01   8.1056425E-03
      2     -93.41747927003   2.4101084E-03   6.6120606E-03
      3     -93.41950712803  -2.0278580E-03   4.7339095E-03
      4     -93.42143693452  -1.9298065E-03   1.5904878E-03
      5     -93.42179623616  -3.5930165E-04   6.0832648E-04
      6     -93.42185177444  -5.5538273E-05   2.1090844E-04
      7     -93.42185558341  -3.8089696E-06   1.1666804E-04
      8     -93.42185674063  -1.1572282E-06   6.1092871E-05
      9     -93.42185712581  -3.8517544E-07   2.2841450E-05
     10     -93.42185715855  -3.2741568E-08   1.1069453E-05
------------------------------------------------------------

 total:                                   0.407 sec
 * total energy  :   -93.4218572 Eh     change       -0.3060016E-01 Eh
   gradient norm :     0.0976112 Eh/α   predicted    -0.3977706E-01 (  29.99%)
   displ. norm   :     0.7860355 α      lambda       -0.4608164E-01
   maximum displ.:     0.3494068 α      in ANC's #36, #50, #28, ...

........................................................................
.............................. CYCLE   15 ..............................
........................................................................
------------------------------------------------------------
  cycle        total energy    energy error   density error
------------------------------------------------------------
      1     -93.46482777656  -9.4810703E+01   5.0007591E-03
      2     -93.46425341238   5.7436418E-04   3.9749188E-03
      3     -93.46578860036  -1.5351880E-03   2.3771346E-03
      4     -93.46605683915  -2.6823879E-04   8.7607331E-04
      5     -93.46615300973  -9.6170584E-05   3.7002906E-04
      6     -93.46617233445  -1.9324718E-05   1.3547052E-04
      7     -93.46617429860  -1.9641471E-06   6.3172725E-05
      8     -93.46617472216  -4.2355693E-07   2.7808177E-05
      9     -93.46617478966  -6.7505056E-08   1.3873737E-05
------------------------------------------------------------

 total:                                   0.475 sec
 * total energy  :   -93.4661748 Eh     change       -0.4431763E-01 Eh
   gradient norm :     0.0843729 Eh/α   predicted    -0.3727665E-01 ( -15.89%)
   displ. norm   :     0.8951515 α      lambda       -0.6069067E-01
   maximum displ.:     0.3338284 α      in ANC's #36, #50, #28, ...

........................................................................
.............................. CYCLE   16 ..............................
........................................................................
------------------------------------------------------------
  cycle        total energy    energy error   density error
------------------------------------------------------------
      1     -93.51349334251  -9.4821359E+01   8.0409006E-03
      2     -93.51361802970  -1.2468719E-04   5.9650694E-03
      3     -93.51512426289  -1.5062332E-03   3.6384503E-03
      4     -93.51587270953  -7.4844664E-04   9.1314809E-04
      5     -93.51597883225  -1.0612272E-04   2.6872838E-04
      6     -93.51598638951  -7.5572624E-06   1.1725975E-04
      7     -93.51598731628  -9.2677369E-07   5.7027804E-05
      8     -93.51598754344  -2.2715793E-07   2.4161278E-05
      9     -93.51598756179  -1.8349823E-08   1.2063195E-05
------------------------------------------------------------

 total:                                   0.310 sec
 * total energy  :   -93.5159876 Eh     change       -0.4981277E-01 Eh
   gradient norm :     0.0734635 Eh/α   predicted    -0.5466094E-01 (   9.73%)
   displ. norm   :     0.9455459 α      lambda       -0.5242510E-01
   maximum displ.:     0.3937584 α      in ANC's #36, #50, #28, ...

........................................................................
.............................. CYCLE   17 ..............................
........................................................................
------------------------------------------------------------
  cycle        total energy    energy error   density error
------------------------------------------------------------
      1     -93.55858505482  -9.4857678E+01   4.2895848E-03
      2     -93.55869618801  -1.1113319E-04   3.5351267E-03
      3     -93.55928915381  -5.9296581E-04   1.8562705E-03
      4     -93.55937318474  -8.4030922E-05   5.0274592E-04
      5     -93.55941235424  -3.9169506E-05   1.4428373E-04
      6     -93.55941387285  -1.5186061E-06   6.7848446E-05
      7     -93.55941405896  -1.8611333E-07   4.1686131E-05
      8     -93.55941412282  -6.3858934E-08   1.4061933E-05
------------------------------------------------------------

 total:                                   0.361 sec
 * total energy  :   -93.5594141 Eh     change       -0.4342656E-01 Eh
   gradient norm :     0.0825030 Eh/α   predicted    -0.4964809E-01 (  14.33%)
   displ. norm   :     0.8981765 α      lambda       -0.4781879E-01
   maximum displ.:     0.4179214 α      in ANC's #36, #28, #50, ...

........................................................................
.............................. CYCLE   18 ..............................
........................................................................
------------------------------------------------------------
  cycle        total energy    energy error   density error
------------------------------------------------------------
      1     -93.59930191033  -9.4930048E+01   4.5944155E-03
      2     -93.59941050439  -1.0859406E-04   3.0735672E-03
      3     -93.59936483633   4.5668058E-05   2.0456078E-03
      4     -93.59962393173  -2.5909540E-04   5.3780511E-04
      5     -93.59966431441  -4.0382683E-05   1.5152015E-04
      6     -93.59966700845  -2.6940411E-06   5.5989711E-05
      7     -93.59966707787  -6.9417396E-08   3.2503613E-05
      8     -93.59966714768  -6.9813566E-08   8.8965131E-06
------------------------------------------------------------

 total:                                   0.368 sec
 * total energy  :   -93.5996671 Eh     change       -0.4025302E-01 Eh
   gradient norm :     0.0792455 Eh/α   predicted    -0.4319762E-01 (   7.32%)
   displ. norm   :     0.8442488 α      lambda       -0.4854489E-01
   maximum displ.:     0.4111203 α      in ANC's #36, #28, #32, ...

........................................................................
.............................. CYCLE   19 ..............................
........................................................................
------------------------------------------------------------
  cycle        total energy    energy error   density error
------------------------------------------------------------
      1     -93.63098075049  -9.5027066E+01   6.7878853E-03
      2     -93.63112357145  -1.4282096E-04   4.1715329E-03
      3     -93.63043142422   6.9214723E-04   2.6499356E-03
      4     -93.63128872964  -8.5730542E-04   5.5411306E-04
      5     -93.63132885606  -4.0126426E-05   1.5564708E-04
      6     -93.63133047176  -1.6157020E-06   6.9434224E-05
      7     -93.63133072367  -2.5190450E-07   2.8956968E-05
      8     -93.63133075058  -2.6907671E-08   1.3107594E-05
------------------------------------------------------------

 total:                                   0.289 sec
 * total energy  :   -93.6313308 Eh     change       -0.3166360E-01 Eh
   gradient norm :     0.0815834 Eh/α   predicted    -0.4157277E-01 (  31.30%)
   displ. norm   :     0.8500988 α      lambda       -0.4591552E-01
   maximum displ.:     0.3941167 α      in ANC's #36, #28, #50, ...

........................................................................
.............................. CYCLE   20 ..............................
........................................................................
------------------------------------------------------------
  cycle        total energy    energy error   density error
------------------------------------------------------------
      1     -93.66421723551  -9.5043616E+01   5.1313631E-03
      2     -93.66442296455  -2.0572904E-04   3.5860410E-03
      3     -93.66434204234   8.0922210E-05   2.0053078E-03
      4     -93.66469934349  -3.5730115E-04   4.4302208E-04
      5     -93.66471839036  -1.9046863E-05   1.7224561E-04
      6     -93.66472159673  -3.2063736E-06   7.1112744E-05
      7     -93.66472183721  -2.4047560E-07   4.2729009E-05
      8     -93.66472198761  -1.5039859E-07   1.1781459E-05
------------------------------------------------------------

 total:                                   0.441 sec
 * total energy  :   -93.6647220 Eh     change       -0.3339124E-01 Eh
   gradient norm :     0.0572055 Eh/α   predicted    -0.3954860E-01 (  18.44%)
   displ. norm   :     0.8950034 α      lambda       -0.3465845E-01
   maximum displ.:     0.4732476 α      in ANC's #36, #28, #32, ...
 * RMSD in coord.:     1.6535066 α      energy gain  -0.2730047E+01 Eh

generating ANC from exact Hessian ...
Using Lindh-Hessian (1995)
 Shifting diagonal of input Hessian by    9.8328384847730186E-003
 Lowest  eigenvalues of input Hessian
    0.000000    0.000000    0.000000    0.000000    0.000000    0.000000
    0.010000    0.010055    0.010077    0.010149    0.010568    0.010646
    0.010731    0.010898    0.012363    0.013028    0.013397    0.013800
 Highest eigenvalues
    1.896877    1.919490    1.945421    2.050456    2.119983    2.147870


........................................................................
.............................. CYCLE   21 ..............................
........................................................................
------------------------------------------------------------
  cycle        total energy    energy error   density error
------------------------------------------------------------
      1     -93.69153107818  -9.5097524E+01   4.8822776E-03
      2     -93.69161516353  -8.4085350E-05   2.9613201E-03
      3     -93.69145363451   1.6152902E-04   1.5505436E-03
      4     -93.69166550567  -2.1187116E-04   2.6698276E-04
      5     -93.69167276210  -7.2564345E-06   1.1137670E-04
      6     -93.69167366686  -9.0475297E-07   5.5799647E-05
      7     -93.69167385257  -1.8571080E-07   1.8705620E-05
------------------------------------------------------------

 total:                                   0.235 sec
 * total energy  :   -93.6916739 Eh     change       -0.2695186E-01 Eh
   gradient norm :     0.0563841 Eh/α   predicted     0.0000000E+00 (-100.00%)
   displ. norm   :     0.7445123 α      lambda       -0.2519842E-01
   maximum displ.:     0.5346755 α      in ANC's #13, #14, #15, ...

........................................................................
.............................. CYCLE   22 ..............................
........................................................................
------------------------------------------------------------
  cycle        total energy    energy error   density error
------------------------------------------------------------
      1     -93.71363539966  -9.5132049E+01   3.2770072E-03
      2     -93.71366000437  -2.4604711E-05   1.9459861E-03
      3     -93.71362653660   3.3467766E-05   5.6030682E-04
      4     -93.71366443352  -3.7896921E-05   1.4080424E-04
      5     -93.71366653334  -2.0998199E-06   5.7858366E-05
      6     -93.71366686526  -3.3191407E-07   2.2326413E-05
      7     -93.71366687388  -8.6252498E-09   1.0595646E-05
------------------------------------------------------------

 total:                                   0.202 sec
 * total energy  :   -93.7136669 Eh     change       -0.2199302E-01 Eh
   gradient norm :     0.0319917 Eh/α   predicted    -0.1958317E-01 ( -10.96%)
   displ. norm   :     0.8561284 α      lambda       -0.2222201E-01
   maximum displ.:     0.6171426 α      in ANC's #13, #14, #15, ...

........................................................................
.............................. CYCLE   23 ..............................
........................................................................
------------------------------------------------------------
  cycle        total energy    energy error   density error
------------------------------------------------------------
      1     -93.73297868026  -9.5176937E+01   3.2612892E-03
      2     -93.73301321528  -3.4535026E-05   1.9666166E-03
      3     -93.73291483322   9.8382063E-05   1.0482382E-03
      4     -93.73303123595  -1.1640273E-04   1.9391829E-04
      5     -93.73303593813  -4.7021800E-06   7.4509952E-05
      6     -93.73303648227  -5.4413935E-07   2.9974974E-05
      7     -93.73303651919  -3.6924177E-08   1.4632190E-05
------------------------------------------------------------

 total:                                   0.187 sec
 * total energy  :   -93.7330365 Eh     change       -0.1936965E-01 Eh
   gradient norm :     0.0218080 Eh/α   predicted    -0.1925489E-01 (  -0.59%)
   displ. norm   :     0.8438005 α      lambda       -0.1662525E-01
   maximum displ.:     0.6213256 α      in ANC's #13, #14, #15, ...

........................................................................
.............................. CYCLE   24 ..............................
........................................................................
------------------------------------------------------------
  cycle        total energy    energy error   density error
------------------------------------------------------------
      1     -93.74734905958  -9.5216980E+01   2.7401942E-03
      2     -93.74737400745  -2.4947869E-05   1.6858831E-03
      3     -93.74729292582   8.1081632E-05   1.0865413E-03
      4     -93.74740423128  -1.1130546E-04   1.6624511E-04
      5     -93.74740804206  -3.8107765E-06   6.3945572E-05
      6     -93.74740846569  -4.2363621E-07   2.3843012E-05
      7     -93.74740848675  -2.1054760E-08   1.0927196E-05
------------------------------------------------------------

 total:                                   0.369 sec
 * total energy  :   -93.7474085 Eh     change       -0.1437197E-01 Eh
   gradient norm :     0.0200073 Eh/α   predicted    -0.1423121E-01 (  -0.98%)
   displ. norm   :     0.8070055 α      lambda       -0.1186297E-01
   maximum displ.:     0.6033120 α      in ANC's #13, #14, #15, ...

........................................................................
.............................. CYCLE   25 ..............................
........................................................................
------------------------------------------------------------
  cycle        total energy    energy error   density error
------------------------------------------------------------
      1     -93.75717316857  -9.5250138E+01   2.5184362E-03
      2     -93.75719412846  -2.0959886E-05   1.5556021E-03
      3     -93.75713293982   6.1188634E-05   9.9250642E-04
      4     -93.75722169682  -8.8756998E-05   1.5021673E-04
      5     -93.75722478578  -3.0889585E-06   5.7809398E-05
      6     -93.75722508669  -3.0090547E-07   2.1472818E-05
      7     -93.75722510388  -1.7196626E-08   9.8386895E-06
------------------------------------------------------------

 total:                                   0.373 sec
 * total energy  :   -93.7572251 Eh     change       -0.9816617E-02 Eh
   gradient norm :     0.0138396 Eh/α   predicted    -0.9794413E-02 (  -0.23%)
   displ. norm   :     0.7340103 α      lambda       -0.7192645E-02
   maximum displ.:     0.5535532 α      in ANC's #13, #14, #15, ...

........................................................................
.............................. CYCLE   26 ..............................
........................................................................
------------------------------------------------------------
  cycle        total energy    energy error   density error
------------------------------------------------------------
      1     -93.76270828284  -9.5276166E+01   2.2436065E-03
      2     -93.76272313753  -1.4854692E-05   1.3615822E-03
      3     -93.76267798073   4.5156800E-05   8.0517026E-04
      4     -93.76273782112  -5.9840385E-05   1.1817664E-04
      5     -93.76273955120  -1.7300772E-06   4.9266150E-05
      6     -93.76273974353  -1.9233656E-07   1.7858008E-05
------------------------------------------------------------

 total:                                   0.317 sec
 * total energy  :   -93.7627397 Eh     change       -0.5514640E-02 Eh
   gradient norm :     0.0085815 Eh/α   predicted    -0.5533918E-02 (   0.35%)
   displ. norm   :     0.5965447 α      lambda       -0.3284268E-02
   maximum displ.:     0.4435290 α      in ANC's #13, #14, #15, ...

........................................................................
.............................. CYCLE   27 ..............................
........................................................................
------------------------------------------------------------
  cycle        total energy    energy error   density error
------------------------------------------------------------
      1     -93.76497235612  -9.5293052E+01   1.7442267E-03
      2     -93.76497881559  -6.4594683E-06   1.0396395E-03
      3     -93.76495522251   2.3593081E-05   5.3083832E-04
      4     -93.76498352749  -2.8304976E-05   7.8884582E-05
      5     -93.76498419683  -6.6934000E-07   3.5764297E-05
      6     -93.76498429593  -9.9105506E-08   1.1409392E-05
------------------------------------------------------------

 total:                                   0.236 sec
 * total energy  :   -93.7649843 Eh     change       -0.2244552E-02 Eh
   gradient norm :     0.0067147 Eh/α   predicted    -0.2226601E-02 (  -0.80%)
   displ. norm   :     0.3808202 α      lambda       -0.9821601E-03
   maximum displ.:     0.2520886 α      in ANC's #13, #7, #14, ...

........................................................................
.............................. CYCLE   28 ..............................
........................................................................
------------------------------------------------------------
  cycle        total energy    energy error   density error
------------------------------------------------------------
      1     -93.76559023076  -9.5301291E+01   1.1152086E-03
      2     -93.76559195084  -1.7200816E-06   6.5984085E-04
      3     -93.76558749027   4.4605633E-06   2.1999448E-04
      4     -93.76559271739  -5.2271128E-06   3.8379416E-05
      5     -93.76559281308  -9.5692158E-08   2.0274496E-05
      6     -93.76559284885  -3.5769276E-08   6.4783621E-06
------------------------------------------------------------

 total:                                   0.280 sec
 * total energy  :   -93.7655928 Eh     change       -0.6085529E-03 Eh
   gradient norm :     0.0052032 Eh/α   predicted    -0.5623039E-03 (  -7.60%)
   displ. norm   :     0.2243899 α      lambda       -0.3213687E-03
   maximum displ.:     0.1279777 α      in ANC's #7, #13, #5, ...

........................................................................
.............................. CYCLE   29 ..............................
........................................................................
------------------------------------------------------------
  cycle        total energy    energy error   density error
------------------------------------------------------------
      1     -93.76582429541  -9.5303972E+01   6.2372735E-04
      2     -93.76582462322  -3.2781067E-07   3.6977990E-04
      3     -93.76582382098   8.0224399E-07   7.4608314E-05
      4     -93.76582475731  -9.3633447E-07   1.6058295E-05
------------------------------------------------------------

 total:                                   0.190 sec
 * total energy  :   -93.7658248 Eh     change       -0.2319085E-03 Eh
   gradient norm :     0.0030264 Eh/α   predicted    -0.1688147E-03 ( -27.21%)
   displ. norm   :     0.2408829 α      lambda       -0.2707699E-03
   maximum displ.:     0.1436786 α      in ANC's #7, #5, #1, ...

........................................................................
.............................. CYCLE   30 ..............................
........................................................................
------------------------------------------------------------
  cycle        total energy    energy error   density error
------------------------------------------------------------
      1     -93.76603634929  -9.5304079E+01   6.8040071E-04
      2     -93.76603688086  -5.3157041E-07   4.0791315E-04
      3     -93.76603316284   3.7180252E-06   1.6322474E-04
      4     -93.76603744856  -4.2857239E-06   1.4099124E-05
      5     -93.76603745543  -6.8727672E-09   7.5656264E-06
------------------------------------------------------------

 total:                                   0.216 sec
 * total energy  :   -93.7660375 Eh     change       -0.2126981E-03 Eh
   gradient norm :     0.0025942 Eh/α   predicted    -0.1432411E-03 ( -32.66%)
   displ. norm   :     0.2923455 α      lambda       -0.2529213E-03
   maximum displ.:     0.1624168 α      in ANC's #7, #5, #1, ...

........................................................................
.............................. CYCLE   31 ..............................
........................................................................
------------------------------------------------------------
  cycle        total energy    energy error   density error
------------------------------------------------------------
      1     -93.76622505740  -9.5302436E+01   8.1173117E-04
      2     -93.76622564938  -5.9197676E-07   4.8112276E-04
      3     -93.76622339525   2.2541291E-06   1.3974913E-04
      4     -93.76622599345  -2.5982047E-06   1.8685112E-05
      5     -93.76622601592  -2.2461165E-08   1.0181213E-05
------------------------------------------------------------

 total:                                   0.182 sec
 * total energy  :   -93.7662260 Eh     change       -0.1885605E-03 Eh
   gradient norm :     0.0031922 Eh/α   predicted    -0.1372695E-03 ( -27.20%)
   displ. norm   :     0.2814496 α      lambda       -0.1667932E-03
   maximum displ.:     0.1421443 α      in ANC's #7, #5, #1, ...

........................................................................
.............................. CYCLE   32 ..............................
........................................................................
------------------------------------------------------------
  cycle        total energy    energy error   density error
------------------------------------------------------------
      1     -93.76634975291  -9.5301096E+01   7.4207613E-04
      2     -93.76635010732  -3.5440635E-07   4.4138311E-04
      3     -93.76634690885   3.1984709E-06   1.3592212E-04
      4     -93.76635047041  -3.5615634E-06   1.8470661E-05
      5     -93.76635048980  -1.9385979E-08   9.7342029E-06
------------------------------------------------------------

 total:                                   0.189 sec
 * total energy  :   -93.7663505 Eh     change       -0.1244739E-03 Eh
   gradient norm :     0.0028212 Eh/α   predicted    -0.9000391E-04 ( -27.69%)
   displ. norm   :     0.2433810 α      lambda       -0.1203199E-03
   maximum displ.:     0.1230578 α      in ANC's #1, #5, #7, ...

........................................................................
.............................. CYCLE   33 ..............................
........................................................................
------------------------------------------------------------
  cycle        total energy    energy error   density error
------------------------------------------------------------
      1     -93.76644397216  -9.5300751E+01   6.4188124E-04
      2     -93.76644425164  -2.7948445E-07   3.8198899E-04
      3     -93.76644220838   2.0432568E-06   1.1632373E-04
      4     -93.76644450968  -2.3012934E-06   1.6184095E-05
      5     -93.76644452471  -1.5037202E-08   8.9490954E-06
------------------------------------------------------------

 total:                                   0.175 sec
 * total energy  :   -93.7664445 Eh     change       -0.9403492E-04 Eh
   gradient norm :     0.0019991 Eh/α   predicted    -0.6372711E-04 ( -32.23%)
   displ. norm   :     0.3602629 α      lambda       -0.1147748E-03
   maximum displ.:     0.1968926 α      in ANC's #1, #5, #2, ...

........................................................................
.............................. CYCLE   34 ..............................
........................................................................
------------------------------------------------------------
  cycle        total energy    energy error   density error
------------------------------------------------------------
      1     -93.76655766617  -9.5301039E+01   1.0033006E-03
      2     -93.76655841721  -7.5103286E-07   5.9613594E-04
      3     -93.76655282670   5.5905041E-06   2.0593451E-04
      4     -93.76655910641  -6.2797073E-06   2.7439008E-05
      5     -93.76655916253  -5.6118893E-08   1.4421704E-05
------------------------------------------------------------

 total:                                   0.200 sec
 * total energy  :   -93.7665592 Eh     change       -0.1146378E-03 Eh
   gradient norm :     0.0025307 Eh/α   predicted    -0.6070265E-04 ( -47.05%)
   displ. norm   :     0.1471855 α      lambda       -0.7048076E-04
   maximum displ.:     0.0845371 α      in ANC's #1, #5, #2, ...

........................................................................
.............................. CYCLE   35 ..............................
........................................................................
------------------------------------------------------------
  cycle        total energy    energy error   density error
------------------------------------------------------------
      1     -93.76661971960  -9.5301782E+01   4.4165930E-04
      2     -93.76661987215  -1.5255745E-07   2.6005054E-04
      3     -93.76661960719   2.6496419E-07   5.4149368E-05
      4     -93.76661994108  -3.3389458E-07   9.2287608E-06
------------------------------------------------------------

 total:                                   0.139 sec
 * total energy  :   -93.7666199 Eh     change       -0.6077856E-04 Eh
   gradient norm :     0.0024329 Eh/α   predicted    -0.3600794E-04 ( -40.76%)
   displ. norm   :     0.3161596 α      lambda       -0.1441638E-03
   maximum displ.:     0.1792336 α      in ANC's #1, #5, #4, ...

........................................................................
.............................. CYCLE   36 ..............................
........................................................................
------------------------------------------------------------
  cycle        total energy    energy error   density error
------------------------------------------------------------
      1     -93.76672227575  -9.5302558E+01   9.3627587E-04
      2     -93.76672272312  -4.4737334E-07   5.5110993E-04
      3     -93.76672244722   2.7589734E-07   5.7022995E-05
      4     -93.76672288130  -4.3408023E-07   2.1091914E-05
      5     -93.76672290614  -2.4839167E-08   9.3625746E-06
------------------------------------------------------------

 total:                                   0.157 sec
 * total energy  :   -93.7667229 Eh     change       -0.1029651E-03 Eh
   gradient norm :     0.0022950 Eh/α   predicted    -0.7928975E-04 ( -22.99%)
   displ. norm   :     0.2577757 α      lambda       -0.7919715E-04
   maximum displ.:     0.1519907 α      in ANC's #1, #5, #4, ...

........................................................................
.............................. CYCLE   37 ..............................
........................................................................
------------------------------------------------------------
  cycle        total energy    energy error   density error
------------------------------------------------------------
      1     -93.76677947524  -9.5302276E+01   7.3888676E-04
      2     -93.76677973653  -2.6128956E-07   4.3550508E-04
      3     -93.76677954589   1.9063334E-07   4.5867679E-05
      4     -93.76677984102  -2.9512657E-07   1.4455919E-05
------------------------------------------------------------

 total:                                   0.126 sec
 * total energy  :   -93.7667798 Eh     change       -0.5693488E-04 Eh
   gradient norm :     0.0023488 Eh/α   predicted    -0.4223165E-04 ( -25.82%)
   displ. norm   :     0.1942538 α      lambda       -0.6000188E-04
   maximum displ.:     0.1181714 α      in ANC's #1, #5, #4, ...

........................................................................
.............................. CYCLE   38 ..............................
........................................................................
------------------------------------------------------------
  cycle        total energy    energy error   density error
------------------------------------------------------------
      1     -93.76682407523  -9.5303176E+01   5.2208641E-04
      2     -93.76682439713  -3.2189774E-07   3.1370007E-04
      3     -93.76682091225   3.4848735E-06   1.6245705E-04
      4     -93.76682490137  -3.9891161E-06   1.5806467E-05
      5     -93.76682492445  -2.3075174E-08   7.6885641E-06
------------------------------------------------------------

 total:                                   0.217 sec
 * total energy  :   -93.7668249 Eh     change       -0.4508343E-04 Eh
   gradient norm :     0.0015855 Eh/α   predicted    -0.3113795E-04 ( -30.93%)
   displ. norm   :     0.3002144 α      lambda       -0.5518295E-04
   maximum displ.:     0.1877740 α      in ANC's #1, #4, #5, ...

........................................................................
.............................. CYCLE   39 ..............................
........................................................................
------------------------------------------------------------
  cycle        total energy    energy error   density error
------------------------------------------------------------
      1     -93.76687110590  -9.5302680E+01   7.4844380E-04
      2     -93.76687176734  -6.6143870E-07   4.4671861E-04
      3     -93.76686779756   3.9697781E-06   1.7059466E-04
      4     -93.76687223575  -4.4381945E-06   2.3716645E-05
      5     -93.76687229629  -6.0542718E-08   1.0068054E-05
------------------------------------------------------------

 total:                                   0.165 sec
 * total energy  :   -93.7668723 Eh     change       -0.4737185E-04 Eh
   gradient norm :     0.0024630 Eh/α   predicted    -0.2870104E-04 ( -39.41%)
   displ. norm   :     0.1020380 α      lambda       -0.3531085E-04
   maximum displ.:     0.0633438 α      in ANC's #1, #4, #8, ...

........................................................................
.............................. CYCLE   40 ..............................
........................................................................
------------------------------------------------------------
  cycle        total energy    energy error   density error
------------------------------------------------------------
      1     -93.76689846617  -9.5303145E+01   2.3933951E-04
      2     -93.76689860251  -1.3633878E-07   1.4078874E-04
      3     -93.76689829676   3.0574807E-07   5.1923480E-05
      4     -93.76689865083  -3.5406974E-07   1.0189899E-05
------------------------------------------------------------

 total:                                   0.195 sec
 * total energy  :   -93.7668987 Eh     change       -0.2635454E-04 Eh
   gradient norm :     0.0019173 Eh/α   predicted    -0.1784137E-04 ( -32.30%)
   displ. norm   :     0.2335476 α      lambda       -0.4906601E-04
   maximum displ.:     0.1412957 α      in ANC's #1, #4, #6, ...

........................................................................
.............................. CYCLE   41 ..............................
........................................................................
------------------------------------------------------------
  cycle        total energy    energy error   density error
------------------------------------------------------------
      1     -93.76694921667  -9.5303069E+01   4.9776881E-04
      2     -93.76694941101  -1.9434201E-07   2.9652697E-04
      3     -93.76694676177   2.6492470E-06   1.4496142E-04
      4     -93.76694974953  -2.9877621E-06   1.2993473E-05
      5     -93.76694976180  -1.2270476E-08   6.9624207E-06
------------------------------------------------------------

 total:                                   0.205 sec
 * total energy  :   -93.7669498 Eh     change       -0.5111097E-04 Eh
   gradient norm :     0.0020446 Eh/α   predicted    -0.2512843E-04 ( -50.84%)
   displ. norm   :     0.1248067 α      lambda       -0.3464597E-04
   maximum displ.:     0.0722868 α      in ANC's #1, #4, #3, ...

........................................................................
.............................. CYCLE   42 ..............................
........................................................................
------------------------------------------------------------
  cycle        total energy    energy error   density error
------------------------------------------------------------
      1     -93.76697850283  -9.5302838E+01   2.5744689E-04
      2     -93.76697859361  -9.0785576E-08   1.5318831E-04
      3     -93.76697834825   2.4535667E-07   4.9128147E-05
      4     -93.76697863208  -2.8382871E-07   7.4026494E-06
------------------------------------------------------------

 total:                                   0.128 sec
 * total energy  :   -93.7669786 Eh     change       -0.2887028E-04 Eh
   gradient norm :     0.0016291 Eh/α   predicted    -0.1759637E-04 ( -39.05%)
   displ. norm   :     0.2725295 α      lambda       -0.4681331E-04
   maximum displ.:     0.1565519 α      in ANC's #4, #1, #3, ...
 * RMSD in coord.:     0.7258117 α      energy gain  -0.1022566E+00 Eh

generating ANC from exact Hessian ...
Using Lindh-Hessian (1995)
 Shifting diagonal of input Hessian by    9.7707299457042117E-003
 Lowest  eigenvalues of input Hessian
    0.000000    0.000000    0.000000    0.000000    0.000000    0.000000
    0.010000    0.010135    0.010161    0.010304    0.010864    0.010908
    0.011105    0.011150    0.013063    0.013760    0.014185    0.014915
 Highest eigenvalues
    2.029732    2.060530    2.079219    2.188990    2.262090    2.292673


........................................................................
.............................. CYCLE   43 ..............................
........................................................................
------------------------------------------------------------
  cycle        total energy    energy error   density error
------------------------------------------------------------
      1     -93.76702295017  -9.5302626E+01   5.7239576E-04
      2     -93.76702322763  -2.7746167E-07   3.4475730E-04
      3     -93.76701888289   4.3447483E-06   1.7737125E-04
      4     -93.76702375782  -4.8749315E-06   1.4766169E-05
      5     -93.76702377136  -1.3545346E-08   7.7388383E-06
------------------------------------------------------------

 total:                                   0.175 sec
 * total energy  :   -93.7670238 Eh     change       -0.4513928E-04 Eh
   gradient norm :     0.0020518 Eh/α   predicted     0.0000000E+00 (-100.00%)
   displ. norm   :     0.0346431 α      lambda       -0.2441273E-04
   maximum displ.:     0.0156616 α      in ANC's #2, #4, #7, ...

........................................................................
.............................. CYCLE   44 ..............................
........................................................................
------------------------------------------------------------
  cycle        total energy    energy error   density error
------------------------------------------------------------
      1     -93.76704354596  -9.5303041E+01   1.4708123E-04
      2     -93.76704360671  -6.0745435E-08   8.7049966E-05
      3     -93.76704329325   3.1345292E-07   5.3680584E-05
      4     -93.76704367255  -3.7929806E-07   6.4010276E-06
------------------------------------------------------------

 total:                                   0.133 sec
 * total energy  :   -93.7670437 Eh     change       -0.1990119E-04 Eh
   gradient norm :     0.0008025 Eh/α   predicted    -0.1225586E-04 ( -38.42%)
   displ. norm   :     0.1436661 α      lambda       -0.4034423E-04
   maximum displ.:     0.0697295 α      in ANC's #2, #4, #7, ...

........................................................................
.............................. CYCLE   45 ..............................
........................................................................
------------------------------------------------------------
  cycle        total energy    energy error   density error
------------------------------------------------------------
      1     -93.76707352456  -9.5303312E+01   4.8767590E-04
      2     -93.76707383811  -3.1355525E-07   2.8980314E-04
      3     -93.76707082396   3.0141537E-06   1.5932400E-04
      4     -93.76707429527  -3.4713114E-06   1.6147125E-05
      5     -93.76707432046  -2.5186438E-08   7.3175506E-06
------------------------------------------------------------

 total:                                   0.157 sec
 * total energy  :   -93.7670743 Eh     change       -0.3064791E-04 Eh
   gradient norm :     0.0022012 Eh/α   predicted    -0.2035740E-04 ( -33.58%)
   displ. norm   :     0.0401979 α      lambda       -0.1302193E-04
   maximum displ.:     0.0241770 α      in ANC's #2, #4, #1, ...

........................................................................
.............................. CYCLE   46 ..............................
........................................................................
------------------------------------------------------------
  cycle        total energy    energy error   density error
------------------------------------------------------------
      1     -93.76708609537  -9.5303166E+01   1.0696617E-04
      2     -93.76708611773  -2.2355650E-08   6.4371351E-05
      3     -93.76708593015   1.8757940E-07   3.9180769E-05
      4     -93.76708615586  -2.2570889E-07   4.4721735E-06
------------------------------------------------------------

 total:                                   0.141 sec
 * total energy  :   -93.7670862 Eh     change       -0.1183540E-04 Eh
   gradient norm :     0.0015637 Eh/α   predicted    -0.6521664E-05 ( -44.90%)
   displ. norm   :     0.1596144 α      lambda       -0.3199464E-04
   maximum displ.:     0.0962414 α      in ANC's #2, #4, #1, ...

........................................................................
.............................. CYCLE   47 ..............................
........................................................................
------------------------------------------------------------
  cycle        total energy    energy error   density error
------------------------------------------------------------
      1     -93.76711614794  -9.5302715E+01   3.9412468E-04
      2     -93.76711644569  -2.9775566E-07   2.3617624E-04
      3     -93.76711462481   1.8208843E-06   1.2402599E-04
      4     -93.76711672513  -2.1003230E-06   1.5792565E-05
      5     -93.76711675310  -2.7971041E-08   6.3813242E-06
------------------------------------------------------------

 total:                                   0.171 sec
 * total energy  :   -93.7671168 Eh     change       -0.3059725E-04 Eh
   gradient norm :     0.0014148 Eh/α   predicted    -0.1618000E-04 ( -47.12%)
   displ. norm   :     0.1107797 α      lambda       -0.1334246E-04
   maximum displ.:     0.0692796 α      in ANC's #2, #4, #1, ...

........................................................................
.............................. CYCLE   48 ..............................
........................................................................
------------------------------------------------------------
  cycle        total energy    energy error   density error
------------------------------------------------------------
      1     -93.76713500301  -9.5302779E+01   2.2702565E-04
      2     -93.76713505056  -4.7553286E-08   1.3522315E-04
      3     -93.76713483795   2.1260625E-07   3.9669221E-05
      4     -93.76713508319  -2.4523865E-07   4.5572926E-06
------------------------------------------------------------

 total:                                   0.143 sec
 * total energy  :   -93.7671351 Eh     change       -0.1833009E-04 Eh
   gradient norm :     0.0016607 Eh/α   predicted    -0.6709807E-05 ( -63.39%)
   displ. norm   :     0.1618353 α      lambda       -0.2476321E-04
   maximum displ.:     0.1012687 α      in ANC's #2, #4, #1, ...

........................................................................
.............................. CYCLE   49 ..............................
........................................................................
------------------------------------------------------------
  cycle        total energy    energy error   density error
------------------------------------------------------------
      1     -93.76716869809  -9.5303082E+01   3.1104870E-04
      2     -93.76716874577  -4.7682292E-08   1.8460391E-04
      3     -93.76716841430   3.3147428E-07   4.6390343E-05
      4     -93.76716878492  -3.7062362E-07   5.7627142E-06
------------------------------------------------------------

 total:                                   0.129 sec
 * total energy  :   -93.7671688 Eh     change       -0.3370173E-04 Eh
   gradient norm :     0.0011069 Eh/α   predicted    -0.1252624E-04 ( -62.83%)
   displ. norm   :     0.3046158 α      lambda       -0.4187941E-04
   maximum displ.:     0.1906242 α      in ANC's #2, #4, #1, ...

........................................................................
.............................. CYCLE   50 ..............................
........................................................................
------------------------------------------------------------
  cycle        total energy    energy error   density error
------------------------------------------------------------
      1     -93.76722298892  -9.5302844E+01   5.7791186E-04
      2     -93.76722307914  -9.0222045E-08   3.4226045E-04
      3     -93.76722268580   3.9333366E-07   5.1177233E-05
      4     -93.76722313675  -4.5095067E-07   9.3796426E-06
------------------------------------------------------------

 total:                                   0.136 sec
 * total energy  :   -93.7672231 Eh     change       -0.5435183E-04 Eh
   gradient norm :     0.0009932 Eh/α   predicted    -0.2180447E-04 ( -59.88%)
   displ. norm   :     0.4251652 α      lambda       -0.4883814E-04
   maximum displ.:     0.2667794 α      in ANC's #2, #4, #1, ...

........................................................................
.............................. CYCLE   51 ..............................
........................................................................
------------------------------------------------------------
  cycle        total energy    energy error   density error
------------------------------------------------------------
      1     -93.76728172648  -9.5302143E+01   7.9984829E-04
      2     -93.76728189352  -1.6704149E-07   4.7360304E-04
      3     -93.76728155111   3.4240743E-07   5.0837741E-05
      4     -93.76728197001  -4.1889386E-07   1.3233234E-05
------------------------------------------------------------

 total:                                   0.204 sec
 * total energy  :   -93.7672820 Eh     change       -0.5883325E-04 Eh
   gradient norm :     0.0017727 Eh/α   predicted    -0.2638555E-04 ( -55.15%)
   displ. norm   :     0.5176801 α      lambda       -0.5162262E-04
   maximum displ.:     0.3256678 α      in ANC's #2, #4, #1, ...

........................................................................
.............................. CYCLE   52 ..............................
........................................................................
------------------------------------------------------------
  cycle        total energy    energy error   density error
------------------------------------------------------------
      1     -93.76733332569  -9.5301249E+01   9.7832501E-04
      2     -93.76733358847  -2.6278455E-07   5.7925128E-04
      3     -93.76733254403   1.0444361E-06   8.5426220E-05
      4     -93.76733375226  -1.2082302E-06   1.5793727E-05
      5     -93.76733376288  -1.0618606E-08   8.4930169E-06
------------------------------------------------------------

 total:                                   0.182 sec
 * total energy  :   -93.7673338 Eh     change       -0.5179288E-04 Eh
   gradient norm :     0.0029557 Eh/α   predicted    -0.2888624E-04 ( -44.23%)
   displ. norm   :     0.2015125 α      lambda       -0.4573882E-04
   maximum displ.:     0.1263256 α      in ANC's #4, #2, #1, ...

........................................................................
.............................. CYCLE   53 ..............................
........................................................................
------------------------------------------------------------
  cycle        total energy    energy error   density error
------------------------------------------------------------
      1     -93.76737042793  -9.5302253E+01   3.9900215E-04
      2     -93.76737052647  -9.8539630E-08   2.3645144E-04
      3     -93.76736984556   6.8090992E-07   6.6470938E-05
      4     -93.76737059878  -7.5321311E-07   9.0375520E-06
------------------------------------------------------------

 total:                                   0.134 sec
 * total energy  :   -93.7673706 Eh     change       -0.3683589E-04 Eh
   gradient norm :     0.0018140 Eh/α   predicted    -0.2379946E-04 ( -35.39%)
   displ. norm   :     0.5690884 α      lambda       -0.5930033E-04
   maximum displ.:     0.3582191 α      in ANC's #4, #2, #1, ...

........................................................................
.............................. CYCLE   54 ..............................
........................................................................
------------------------------------------------------------
  cycle        total energy    energy error   density error
------------------------------------------------------------
      1     -93.76742429235  -9.5302460E+01   1.1588839E-03
      2     -93.76742464530  -3.5295503E-07   6.8639192E-04
      3     -93.76742148103   3.1642746E-06   1.4267655E-04
      4     -93.76742501162  -3.5305865E-06   1.7199592E-05
      5     -93.76742501743  -5.8172986E-09   9.2898986E-06
------------------------------------------------------------

 total:                                   0.226 sec
 * total energy  :   -93.7674250 Eh     change       -0.5441866E-04 Eh
   gradient norm :     0.0020759 Eh/α   predicted    -0.3391853E-04 ( -37.67%)
   displ. norm   :     0.1082631 α      lambda       -0.4007402E-04
   maximum displ.:     0.0562219 α      in ANC's #4, #5, #2, ...

........................................................................
.............................. CYCLE   55 ..............................
........................................................................
------------------------------------------------------------
  cycle        total energy    energy error   density error
------------------------------------------------------------
      1     -93.76744207973  -9.5304644E+01   3.0083848E-04
      2     -93.76744233524  -2.5550592E-07   1.7579629E-04
      3     -93.76744213640   1.9883879E-07   4.8546530E-05
      4     -93.76744236350  -2.2709831E-07   1.4418251E-05
------------------------------------------------------------

 total:                                   0.144 sec
 * total energy  :   -93.7674424 Eh     change       -0.1734606E-04 Eh
   gradient norm :     0.0015722 Eh/α   predicted    -0.2027363E-04 (  16.88%)
   displ. norm   :     0.3663509 α      lambda       -0.2561058E-04
   maximum displ.:     0.2313612 α      in ANC's #4, #2, #1, ...

........................................................................
.............................. CYCLE   56 ..............................
........................................................................
------------------------------------------------------------
  cycle        total energy    energy error   density error
------------------------------------------------------------
      1     -93.76746320972  -9.5303065E+01   7.2170474E-04
      2     -93.76746355575  -3.4603036E-07   4.2920675E-04
      3     -93.76745949490   4.0608449E-06   1.7153599E-04
      4     -93.76746399837  -4.5034698E-06   1.6628147E-05
      5     -93.76746402238  -2.4004393E-08   8.5139881E-06
------------------------------------------------------------

 total:                                   0.213 sec
 * total energy  :   -93.7674640 Eh     change       -0.2165888E-04 Eh
   gradient norm :     0.0014750 Eh/α   predicted    -0.1356957E-04 ( -37.35%)
   displ. norm   :     0.0835929 α      lambda       -0.1212565E-04
   maximum displ.:     0.0461335 α      in ANC's #5, #4, #2, ...

........................................................................
.............................. CYCLE   57 ..............................
........................................................................
------------------------------------------------------------
  cycle        total energy    energy error   density error
------------------------------------------------------------
      1     -93.76747846135  -9.5303346E+01   2.0524682E-04
      2     -93.76747849766  -3.6314347E-08   1.2142378E-04
      3     -93.76747822880   2.6886835E-07   4.4989087E-05
      4     -93.76747853063  -3.0183526E-07   5.5814027E-06
------------------------------------------------------------

 total:                                   0.168 sec
 * total energy  :   -93.7674785 Eh     change       -0.1450825E-04 Eh
   gradient norm :     0.0011078 Eh/α   predicted    -0.6084898E-05 ( -58.06%)
   displ. norm   :     0.2195065 α      lambda       -0.2507546E-04
   maximum displ.:     0.1209820 α      in ANC's #5, #4, #2, ...

........................................................................
.............................. CYCLE   58 ..............................
........................................................................
------------------------------------------------------------
  cycle        total energy    energy error   density error
------------------------------------------------------------
      1     -93.76750262455  -9.5303487E+01   5.2284740E-04
      2     -93.76750274121  -1.1666400E-07   3.0840486E-04
      3     -93.76750268014   6.1072967E-08   2.9192570E-05
      4     -93.76750277790  -9.7758843E-08   1.1061141E-05
------------------------------------------------------------

 total:                                   0.151 sec
 * total energy  :   -93.7675028 Eh     change       -0.2424727E-04 Eh
   gradient norm :     0.0010647 Eh/α   predicted    -0.1280746E-04 ( -47.18%)
   displ. norm   :     0.2374718 α      lambda       -0.1681989E-04
   maximum displ.:     0.1200029 α      in ANC's #5, #4, #2, ...

........................................................................
.............................. CYCLE   59 ..............................
........................................................................
------------------------------------------------------------
[...]
    25   6 C       65   1 H                                       1.0864653
    25   6 C       66   1 H                                       1.0880159
     2   6 C       67   8 O                                       1.3804693
    18   6 C       67   8 O                                       1.3603245
    13   7 N       68   1 H                                       1.0101004
    69   6 C       70   6 C                                       1.3708380
    70   6 C       71   6 C                                       1.4083940
    71   6 C       72   6 C                                       1.4222046
    72   6 C       73   6 C                                       1.4153847
    69   6 C       74   6 C                                       1.4160093
    73   6 C       74   6 C                                       1.3732926
    71   6 C       75   6 C                                       1.3903589
    75   6 C       76   6 C                                       1.3865198
    76   6 C       77   6 C                                       1.4238850
    72   6 C       78   7 N                                       1.3348602
    77   6 C       78   7 N                                       1.3388445
    75   6 C       79   6 C                                       1.4186717
    79   6 C       80   6 C                                       1.4009062
    80   6 C       81   7 N                                       1.3740992
    76   6 C       82   6 C                                       1.4125446
    81   7 N       82   6 C                                       1.3885011
    82   6 C       83   6 C                                       1.3750120
    83   6 C       84   6 C                                       1.4103123
    77   6 C       85   6 C                                       1.4077192
    84   6 C       85   6 C                                       1.3771405
    79   6 C       86   6 C                                       1.3975196
    86   6 C       87   6 C                                       1.3844323
    87   6 C       88   6 C                                       1.3963200
    80   6 C       89   6 C                                       1.3931955
    88   6 C       89   6 C                                       1.3905364
    91   6 C       93   6 C                                       1.5350157
    91   6 C       94   6 C                                       1.5304949
    91   6 C       95   6 C                                       1.5360341
    92   6 C       96   6 C                                       1.5307344
    92   6 C       97   6 C                                       1.5345403
    92   6 C       98   6 C                                       1.5362241
    90   6 C       99   6 C                                       1.5351031
    90   6 C      100   6 C                                       1.5350798
    90   6 C      101   6 C                                       1.5308060
    73   6 C      102   1 H                                       1.0757825
    69   6 C      103   1 H                                       1.0776298
    85   6 C      104   1 H                                       1.0765721
    83   6 C      105   1 H                                       1.0779784
    89   6 C      106   1 H                                       1.0779443
    87   6 C      107   1 H                                       1.0767265
   101   6 C      108   1 H                                       1.0870626
   101   6 C      109   1 H                                       1.0871003
   101   6 C      110   1 H                                       1.0883684
   100   6 C      111   1 H                                       1.0861148
   100   6 C      112   1 H                                       1.0881283
   100   6 C      113   1 H                                       1.0874706
    99   6 C      114   1 H                                       1.0862130
    99   6 C      115   1 H                                       1.0881007
    99   6 C      116   1 H                                       1.0879620
    96   6 C      117   1 H                                       1.0880586
    96   6 C      118   1 H                                       1.0889463
    96   6 C      119   1 H                                       1.0873698
    98   6 C      120   1 H                                       1.0883902
    98   6 C      121   1 H                                       1.0883105
    98   6 C      122   1 H                                       1.0865835
    97   6 C      123   1 H                                       1.0887002
    97   6 C      124   1 H                                       1.0862887
    97   6 C      125   1 H                                       1.0854567
    95   6 C      126   1 H                                       1.0863224
Note: The following floating-point exceptions are signalling: IEEE_UNDERFLOW_FLAG
normal termination of xtb
    95   6 C      127   1 H                                       1.0880422
    95   6 C      128   1 H                                       1.0879784
    94   6 C      129   1 H                                       1.0872476
    94   6 C      130   1 H                                       1.0878024
    94   6 C      131   1 H                                       1.0886385
    93   6 C      132   1 H                                       1.0864966
    93   6 C      133   1 H                                       1.0857131
    93   6 C      134   1 H                                       1.0882435
    70   6 C      135   8 O                                       1.3774359
    86   6 C      135   8 O                                       1.3619458
    81   7 N      136   1 H                                       1.0100831 (min)

 * 5 distinct bonds (by element types)

   Z      Z             #   av. dist./Å        max./Å        min./Å
   1 H    6 C          66     1.0854551     1.0889463     1.0750619
   6 C    6 C          60     1.4395368     1.5382262     1.3706727
   1 H    7 N           2     1.0100918     1.0101004     1.0100831
   6 C    7 N           8     1.3593020     1.3888076     1.3348602
   6 C    8 O           4     1.3700439     1.3804693     1.3603245


optimized geometry written to: xtbopt.mol


           -------------------------------------------------
          | TOTAL ENERGY             -187.565626617369 Eh   |
          | GRADIENT NORM               0.000102039656 Eh/α |
           -------------------------------------------------

------------------------------------------------------------------------
 * finished run on 2025/02/28 at 12:21:20.054     
------------------------------------------------------------------------
 total:
 * wall-time:     0 d,  0 h,  3 min, 16.212 sec
 *  cpu-time:     0 d,  0 h, 14 min,  8.380 sec
 * ratio c/w:     4.324 speedup
 SCF:
 * wall-time:     0 d,  0 h,  0 min,  1.527 sec
 *  cpu-time:     0 d,  0 h,  0 min,  5.324 sec
 * ratio c/w:     3.487 speedup
 ANC optimizer:
 * wall-time:     0 d,  0 h,  3 min, 14.672 sec
 *  cpu-time:     0 d,  0 h, 14 min,  3.051 sec
 * ratio c/w:     4.331 speedup

      -----------------------------------------------------------      
     |                   =====================                   |     
     |                           x T B                           |     
     |                   =====================                   |     
     |                         S. Grimme                         |     
     |          Mulliken Center for Theoretical Chemistry        |     
     |                    University of Bonn                     |     
      -----------------------------------------------------------      

   * xtb version 6.7.1 (edcfbbe) compiled by 'runner@Mac-1732539442253.local' on 2024-11-25

   xtb is free software: you can redistribute it and/or modify it under
   the terms of the GNU Lesser General Public License as published by
   the Free Software Foundation, either version 3 of the License, or
   (at your option) any later version.
   
   xtb is distributed in the hope that it will be useful,
   but WITHOUT ANY WARRANTY; without even the implied warranty of
   MERCHANTABILITY or FITNESS FOR A PARTICULAR PURPOSE.  See the
   GNU Lesser General Public License for more details.
   
   Cite this work as:
   * C. Bannwarth, E. Caldeweyher, S. Ehlert, A. Hansen, P. Pracht,
     J. Seibert, S. Spicher, S. Grimme, WIREs Comput. Mol. Sci., 2020, 11,
     e01493. DOI: 10.1002/wcms.1493
   
   for GFN2-xTB:
   * C. Bannwarth, S. Ehlert and S. Grimme., J. Chem. Theory Comput., 2019,
     15, 1652-1671. DOI: 10.1021/acs.jctc.8b01176
   for GFN1-xTB:
   * S. Grimme, C. Bannwarth, P. Shushkov, J. Chem. Theory Comput., 2017,
     13, 1989-2009. DOI: 10.1021/acs.jctc.7b00118
   for GFN0-xTB:
   * P. Pracht, E. Caldeweyher, S. Ehlert, S. Grimme, ChemRxiv, 2019, preprint.
     DOI: 10.26434/chemrxiv.8326202.v1
   for GFN-FF:
   * S. Spicher and S. Grimme, Angew. Chem. Int. Ed., 2020, 59, 15665-15673.
     DOI: 10.1002/anie.202004239
   
   for ALPB and GBSA implicit solvation:
   * S. Ehlert, M. Stahn, S. Spicher, S. Grimme, J. Chem. Theory Comput.,
     2021, 17, 4250-4261. DOI: 10.1021/acs.jctc.1c00471
   
   for ddCOSMO and CPCM-X implicit solvation:
   * M. Stahn, S. Ehlert, S. Grimme, J. Phys. Chem. A,
     2023, XX, XXXX-XXXX. DOI: 10.1021/acs.jpca.3c04382
   
   for DFT-D4:
   * E. Caldeweyher, C. Bannwarth and S. Grimme, J. Chem. Phys., 2017,
     147, 034112. DOI: 10.1063/1.4993215
   * E. Caldeweyher, S. Ehlert, A. Hansen, H. Neugebauer, S. Spicher,
     C. Bannwarth and S. Grimme, J. Chem. Phys., 2019, 150, 154122.
     DOI: 10.1063/1.5090222
   * E. Caldeweyher, J.-M. Mewes, S. Ehlert and S. Grimme, Phys. Chem. Chem. Phys.
     2020, 22, 8499-8512. DOI: 10.1039/D0CP00502A
   
   for sTDA-xTB:
   * S. Grimme and C. Bannwarth, J. Chem. Phys., 2016, 145, 054103.
     DOI: 10.1063/1.4959605
   
   in the mass-spec context:
   * V. Asgeirsson, C. Bauer and S. Grimme, Chem. Sci., 2017, 8, 4879.
     DOI: 10.1039/c7sc00601b
   * J. Koopman and S. Grimme, ACS Omega 2019, 4, 12, 15120-15133.
     DOI: 10.1021/acsomega.9b02011
   
   for metadynamics refer to:
   * S. Grimme, J. Chem. Theory Comput., 2019, 155, 2847-2862
     DOI: 10.1021/acs.jctc.9b00143
   
   for SPH calculations refer to:
   * S. Spicher and S. Grimme, J. Chem. Theory Comput., 2021, 17, 1701-1714
     DOI: 10.1021/acs.jctc.0c01306
   
   for ONIOM refer to:
   * C. Plett, A. Katbashev, S. Ehlert, S. Grimme, M. Bursch,
     Phys. Chem. Chem. Phys., 2023, 25, 17860-17868. DOI: 10.1039/D3CP02178E
   
   for DIPRO refer to:
   * J. Kohn, N. Gildemeister, S. Grimme, D. Fazzi, A. Hansen,
     J. Chem. Phys., 2023, just accepted.
   
   for PTB refer to:
   * S. Grimme, M. Mueller, A. Hansen, J. Chem. Phys., 2023, 158, 124111.
     DOI: 10.1063/5.0137838
   
   with help from (in alphabetical order)
   P. Atkinson, C. Bannwarth, F. Bohle, G. Brandenburg, E. Caldeweyher
   M. Checinski, S. Dohm, S. Ehlert, S. Ehrlich, I. Gerasimov, C. Hölzer
   A. Katbashev, J. Kohn, J. Koopman, C. Lavigne, S. Lehtola, F. März, M. Müller,
   F. Musil, H. Neugebauer, J. Pisarek, C. Plett, P. Pracht, F. Pultar,
   J. Seibert, P. Shushkov, S. Spicher, M. Stahn, M. Steiner, T. Strunk,
   J. Stückrath, T. Rose, and J. Unsleber
   
 * started run on 2025/02/28 at 12:21:20.093     
   ID    Z sym.   atoms
    1    6 C      1-9, 11, 12, 14-33, 69-77, 79, 80, 82-101
    2    7 N      10, 13, 78, 81
    3    1 H      34-66, 68, 102-134, 136
    4    8 O      67, 135

           -------------------------------------------------
          |                Calculation Setup                |
           -------------------------------------------------

          program call               : xtb opt_dimer.mol --dipro 0.3 --chrg 0 --uhf 0 --spinpol --tblite
          coordinate file            : opt_dimer.mol
          omp threads                :                     8


molecular fragmentation (1/2 indicates fragments):
111111111111111111111111111111111111111111111111111111111111111111112222
2222222222222222222222222222222222222222222222222222222222222222
# atoms in fragment 1/2:    68    68
 fragment masses (1/2) :      450.62      450.62
CMA distance (Bohr)    :   9.187
constraining FC (au)   :  0.0500
Wavefunction read from restart file
           -------------------------------------------------
          |                    D I P R O                    |
           -------------------------------------------------
Calculation for dimer 
--------------------- 
  
charge of dimer :   0.
unpaired e- of dimer :  0
repulsion energy          3.0737929705989E+00 Eh
dispersion energy         1.0296433104328E-02 Eh
number of electrons       3.4800000000000E+02 e
integral cutoff           1.7347787504999E+01 bohr

------------------------------------------------------------
  cycle        total energy    energy error   density error
------------------------------------------------------------
      1     -187.1596692618  -1.9024376E+02   1.1926118E-01
      2     -187.3527214056  -1.9305214E-01   6.9833840E-02
      3     -187.3470027198   5.7186858E-03   4.5420393E-02
      4     -187.5379162943  -1.9091357E-01   1.5169233E-02
      5     -187.5636685029  -2.5752209E-02   4.8335164E-03
      6     -187.5653848344  -1.7163315E-03   1.9298253E-03
      7     -187.5655849818  -2.0014745E-04   8.1590778E-04
      8     -187.5656101096  -2.5127781E-05   3.9344246E-04
      9     -187.5656244158  -1.4306215E-05   1.4401523E-04
     10     -187.5656261949  -1.7790921E-06   5.7418705E-05
     11     -187.5656264541  -2.5916268E-07   2.6335237E-05
     12     -187.5656264812  -2.7138071E-08   1.3209400E-05
------------------------------------------------------------

electronic energy        -1.9064971588492E+02 Eh
total energy             -1.8756562648121E+02 Eh

 total:                                   2.848 sec
 - repulsion                              0.000 sec (  0%)
 - dispersion                             0.006 sec (  0%)
 - coulomb                                0.002 sec (  0%)
 - hamiltonian                            0.007 sec (  0%)
 - scc                                    2.833 sec ( 99%)

Found 2 fragments!
Fragment 1:  1-68
Fragment 2:  69-136

Calculation for fragment 1
 ------------------------------
   
charge of fragment :   0.
unpaired e- of fragment :  0
------------------------------------------------------------
  cycle        total energy    energy error   density error
------------------------------------------------------------
      1     -93.56566495029  -9.5100467E+01   1.1998917E-01
      2     -93.68217904750  -1.1651410E-01   6.8681357E-02
      3     -93.68663125842  -4.4522109E-03   4.2977294E-02
      4     -93.75488049920  -6.8249241E-02   1.3502932E-02
      5     -93.76263222861  -7.7517294E-03   4.2626812E-03
      6     -93.76315312895  -5.2090034E-04   1.7831895E-03
      7     -93.76324222020  -8.9091244E-05   6.8821562E-04
      8     -93.76324738072  -5.1605261E-06   3.0922722E-04
      9     -93.76325102967  -3.6489438E-06   1.1688618E-04
     10     -93.76325158066  -5.5098830E-07   4.1718922E-05
     11     -93.76325162123  -4.0570356E-08   1.9427078E-05
------------------------------------------------------------

 total:                                   0.798 sec
Calculation for fragment 2
 ------------------------------
   
charge of fragment :   0.
unpaired e- of fragment :  0
------------------------------------------------------------
  cycle        total energy    energy error   density error
------------------------------------------------------------
      1     -93.56817566694  -9.5106184E+01   1.1855631E-01
      2     -93.68441823935  -1.1624257E-01   6.7700400E-02
      3     -93.69032174561  -5.9035063E-03   4.2358797E-02
      4     -93.75754297685  -6.7221231E-02   1.3401642E-02
      5     -93.76526417256  -7.7211957E-03   4.2188959E-03
      6     -93.76576382339  -4.9965083E-04   1.7678198E-03
      7     -93.76585189883  -8.8075433E-05   6.8146468E-04
      8     -93.76585729467  -5.3958428E-06   3.1134120E-04
      9     -93.76586104272  -3.7480528E-06   1.1569992E-04
     10     -93.76586156859  -5.2586346E-07   4.1130243E-05
     11     -93.76586160814  -3.9550926E-08   1.8776955E-05
------------------------------------------------------------

 total:                                   0.717 sec
   
   ::::::::::::::::::::::::::::::::::::::::::::::
   ::     D I P R O      C O U P L I N G S     ::
   ::::::::::::::::::::::::::::::::::::::::::::::
   
energy threshhold for near-degenerate orbitals near HOMO and LUMO considered for DIPRO:  0.300 eV
no. of orbitals within energy window of frag 1         3
no. of orbitals within energy window of frag 2         3
   
  Fragment 1 HOMO-1  Fragment 2 HOMO-1
--------------------------------------
E_mon(orb) frag1 frag2              -9.345    -9.167 eV
J(AB):                0.001 eV
S(AB):            -0.00005747 Eh
|J(AB,eff)|:            0.001 eV
   
  Fragment 1 HOMO-1  Fragment 2 HOMO 
--------------------------------------
E_mon(orb) frag1 frag2              -9.345    -9.046 eV
J(AB):                0.007 eV
S(AB):            -0.00030345 Eh
|J(AB,eff)|:            0.005 eV
   
  Fragment 1 HOMO-1  Fragment 2 LUMO 
--------------------------------------
E_mon(orb) frag1 frag2              -9.345    -7.152 eV
J(AB):               -0.001 eV
S(AB):             0.00002832 Eh
|J(AB,eff)|:            0.001 eV
   
  Fragment 1 HOMO   Fragment 2 HOMO-1
--------------------------------------
E_mon(orb) frag1 frag2              -9.277    -9.167 eV
J(AB):               -0.003 eV
S(AB):             0.00010616 Eh
|J(AB,eff)|:            0.002 eV
   
  Fragment 1 HOMO   Fragment 2 HOMO 
--------------------------------------
E_mon(orb) frag1 frag2              -9.277    -9.046 eV
J(AB):               -0.046 eV
S(AB):             0.00192331 Eh
|J(AB,eff)|:            0.028 eV
   
  Fragment 1 HOMO   Fragment 2 LUMO 
--------------------------------------
E_mon(orb) frag1 frag2              -9.277    -7.152 eV
J(AB):                0.041 eV
S(AB):            -0.00172152 Eh
|J(AB,eff)|:            0.027 eV
   
  Fragment 1 LUMO   Fragment 2 HOMO-1
--------------------------------------
E_mon(orb) frag1 frag2              -7.383    -9.167 eV
J(AB):                0.005 eV
S(AB):            -0.00020813 Eh
|J(AB,eff)|:            0.003 eV
   
  Fragment 1 LUMO   Fragment 2 HOMO 
--------------------------------------
E_mon(orb) frag1 frag2              -7.383    -9.046 eV
J(AB):                0.081 eV
S(AB):            -0.00354793 Eh
|J(AB,eff)|:            0.052 eV
   
  Fragment 1 LUMO   Fragment 2 LUMO 
--------------------------------------
E_mon(orb) frag1 frag2              -7.383    -7.152 eV
J(AB):               -0.025 eV
S(AB):             0.00106528 Eh
|J(AB,eff)|:            0.018 eV
   
..............................................................................
:  total |J(AB,eff)| for hole transport (occ. MOs) :               0.028 eV  :
:  total |J(AB,eff)| for charge transport (unocc. MOs) :           0.018 eV  :
:  total |J(AB,eff)| for charge transfer (CT) :                    0.059 eV  :
..............................................................................
  
 Please remember, DIPRO is not available for restart!
   
normal termination of dipro
----------------------------------------------------------
 * finished run on 2025/02/28 at 12:21:24.483     
----------------------------------------------------------
 dipro:
 * wall-time:     0 d,  0 h,  0 min,  4.384 sec
 *  cpu-time:     0 d,  0 h,  0 min, 21.312 sec
 * ratio c/w:     4.862 speedup
Reorganization energy (electron): 0.167606552682645 eV
Reorganization energy (hole): 0.12286980327750596 eV
Electron Transfer integral J: 0.018 eV
Hole Transfer integral J: 0.028 eV
