Optimization of monomers started
      -----------------------------------------------------------      
     |                   =====================                   |     
     |                           x T B                           |     
     |                   =====================                   |     
     |                         S. Grimme                         |     
     |          Mulliken Center for Theoretical Chemistry        |     
     |                    University of Bonn                     |     
      -----------------------------------------------------------      

   * xtb version 6.7.1 (edcfbbe) compiled by 'runner@Mac-1732539442253.local' on 2024-11-25

   xtb is free software: you can redistribute it and/or modify it under
   the terms of the GNU Lesser General Public License as published by
   the Free Software Foundation, either version 3 of the License, or
   (at your option) any later version.
   
   xtb is distributed in the hope that it will be useful,
   but WITHOUT ANY WARRANTY; without even the implied warranty of
   MERCHANTABILITY or FITNESS FOR A PARTICULAR PURPOSE.  See the
   GNU Lesser General Public License for more details.
   
   Cite this work as:
   * C. Bannwarth, E. Caldeweyher, S. Ehlert, A. Hansen, P. Pracht,
     J. Seibert, S. Spicher, S. Grimme, WIREs Comput. Mol. Sci., 2020, 11,
     e01493. DOI: 10.1002/wcms.1493
   
   for GFN2-xTB:
   * C. Bannwarth, S. Ehlert and S. Grimme., J. Chem. Theory Comput., 2019,
     15, 1652-1671. DOI: 10.1021/acs.jctc.8b01176
   for GFN1-xTB:
   * S. Grimme, C. Bannwarth, P. Shushkov, J. Chem. Theory Comput., 2017,
     13, 1989-2009. DOI: 10.1021/acs.jctc.7b00118
   for GFN0-xTB:
   * P. Pracht, E. Caldeweyher, S. Ehlert, S. Grimme, ChemRxiv, 2019, preprint.
     DOI: 10.26434/chemrxiv.8326202.v1
   for GFN-FF:
   * S. Spicher and S. Grimme, Angew. Chem. Int. Ed., 2020, 59, 15665-15673.
     DOI: 10.1002/anie.202004239
   
   for ALPB and GBSA implicit solvation:
   * S. Ehlert, M. Stahn, S. Spicher, S. Grimme, J. Chem. Theory Comput.,
     2021, 17, 4250-4261. DOI: 10.1021/acs.jctc.1c00471
   
   for ddCOSMO and CPCM-X implicit solvation:
   * M. Stahn, S. Ehlert, S. Grimme, J. Phys. Chem. A,
     2023, XX, XXXX-XXXX. DOI: 10.1021/acs.jpca.3c04382
   
   for DFT-D4:
   * E. Caldeweyher, C. Bannwarth and S. Grimme, J. Chem. Phys., 2017,
     147, 034112. DOI: 10.1063/1.4993215
   * E. Caldeweyher, S. Ehlert, A. Hansen, H. Neugebauer, S. Spicher,
     C. Bannwarth and S. Grimme, J. Chem. Phys., 2019, 150, 154122.
     DOI: 10.1063/1.5090222
   * E. Caldeweyher, J.-M. Mewes, S. Ehlert and S. Grimme, Phys. Chem. Chem. Phys.
     2020, 22, 8499-8512. DOI: 10.1039/D0CP00502A
   
   for sTDA-xTB:
   * S. Grimme and C. Bannwarth, J. Chem. Phys., 2016, 145, 054103.
     DOI: 10.1063/1.4959605
   
   in the mass-spec context:
   * V. Asgeirsson, C. Bauer and S. Grimme, Chem. Sci., 2017, 8, 4879.
     DOI: 10.1039/c7sc00601b
   * J. Koopman and S. Grimme, ACS Omega 2019, 4, 12, 15120-15133.
     DOI: 10.1021/acsomega.9b02011
   
   for metadynamics refer to:
   * S. Grimme, J. Chem. Theory Comput., 2019, 155, 2847-2862
     DOI: 10.1021/acs.jctc.9b00143
   
   for SPH calculations refer to:
   * S. Spicher and S. Grimme, J. Chem. Theory Comput., 2021, 17, 1701-1714
     DOI: 10.1021/acs.jctc.0c01306
   
   for ONIOM refer to:
   * C. Plett, A. Katbashev, S. Ehlert, S. Grimme, M. Bursch,
     Phys. Chem. Chem. Phys., 2023, 25, 17860-17868. DOI: 10.1039/D3CP02178E
   
   for DIPRO refer to:
   * J. Kohn, N. Gildemeister, S. Grimme, D. Fazzi, A. Hansen,
     J. Chem. Phys., 2023, just accepted.
   
   for PTB refer to:
   * S. Grimme, M. Mueller, A. Hansen, J. Chem. Phys., 2023, 158, 124111.
     DOI: 10.1063/5.0137838
   
   with help from (in alphabetical order)
   P. Atkinson, C. Bannwarth, F. Bohle, G. Brandenburg, E. Caldeweyher
   M. Checinski, S. Dohm, S. Ehlert, S. Ehrlich, I. Gerasimov, C. Hölzer
   A. Katbashev, J. Kohn, J. Koopman, C. Lavigne, S. Lehtola, F. März, M. Müller,
   F. Musil, H. Neugebauer, J. Pisarek, C. Plett, P. Pracht, F. Pultar,
   J. Seibert, P. Shushkov, S. Spicher, M. Stahn, M. Steiner, T. Strunk,
   J. Stückrath, T. Rose, and J. Unsleber
   
 * started run on 2025/02/28 at 12:24:54.024     
   ID    Z sym.   atoms
    1    6 C      1-9, 11, 12, 14-33
    2    7 N      10, 13
    3    1 H      34-66
    4    8 O      67

           -------------------------------------------------
          |                Calculation Setup                |
           -------------------------------------------------

          program call               : xtb ClosedR.mol --opt tight --cycles 500 --chrg 0 --uhf 1 --spinpol --tblite
          coordinate file            : ClosedR.mol
          omp threads                :                     8


molecular fragmentation (1/2 indicates fragments):
1111111111111111111111111121121121111112221121121122221122221121121
# atoms in fragment 1/2:    49    18
 fragment masses (1/2) :      398.46       51.15
CMA distance (Bohr)    :   2.950
constraining FC (au)   :  0.0500
repulsion energy          2.4752568162755E-01 Eh
dispersion energy        -1.6266766168575E-05 Eh
interaction energy        0.0000000000000E+00 Eh
number of electrons       1.7300000000000E+02 e
integral cutoff           1.7347787504999E+01 bohr

------------------------------------------------------------
  cycle        total energy    energy error   density error
------------------------------------------------------------
      1     -90.40530666078  -9.0652816E+01   1.3677125E-01
      2     -90.17738476248   2.2792190E-01   9.4007928E-02
      3     -89.87692900022   3.0045576E-01   8.7893758E-02
      4     -90.34222140375  -4.6529240E-01   5.3167501E-02
      5     -90.79662813468  -4.5440673E-01   1.5259097E-02
      6     -90.81950245649  -2.2874322E-02   1.0512457E-02
      7     -90.83171169154  -1.2209235E-02   6.2929465E-03
      8     -90.82899079920   2.7208923E-03   5.9721113E-03
      9     -90.83268686356  -3.6960644E-03   2.8521869E-03
     10     -90.83295736236  -2.7049879E-04   2.0809135E-03
     11     -90.83310676860  -1.4940624E-04   1.6404966E-03
     12     -90.83321713937  -1.1037076E-04   1.1941509E-03
     13     -90.83330920936  -9.2069999E-05   6.7721449E-04
     14     -90.83331455229  -5.3429225E-06   4.9776350E-04
     15     -90.83334018271  -2.5630421E-05   3.2153798E-04
     16     -90.83334179068  -1.6079765E-06   2.6241919E-04
     17     -90.83334750515  -5.7144680E-06   1.2990044E-04
     18     -90.83334827460  -7.6945010E-07   8.9989789E-05
     19     -90.83334884402  -5.6941407E-07   5.9507611E-05
     20     -90.83334891136  -6.7345084E-08   4.5043246E-05
     21     -90.83334909115  -1.7979043E-07   2.6011488E-05
     22     -90.83334909968  -8.5259302E-09   2.0132887E-05
     23     -90.83334912795  -2.8268758E-08   1.4173988E-05
------------------------------------------------------------

electronic energy        -9.1080858542808E+01 Eh
total energy             -9.0833349127947E+01 Eh

 total:                                   3.109 sec
 - repulsion                              0.000 sec (  0%)
 - dispersion                             0.004 sec (  0%)
 - coulomb                                0.002 sec (  0%)
 - hamiltonian                            0.027 sec (  0%)
 - scc                                    3.075 sec ( 98%)

      ----------------------------------------------------------- 
     |                   =====================                   |
     |                        A N C O P T                        |
     |                   =====================                   |
     |               Approximate Normal Coordinate               |
     |                Rational Function Optimizer                |
      ----------------------------------------------------------- 
      ----------------------------------------------------------- 
     |                   =====================                   |
     |                        A N C O P T                        |
     |                   =====================                   |
     |               Approximate Normal Coordinate               |
     |                Rational Function Optimizer                |
      ----------------------------------------------------------- 

          ...................................................
          :                      SETUP                      :
          :.................................................:
          :   optimization level             tight          :
          :   max. optcycles                   500          :
          :   ANC micro-cycles                  20          :
          :   degrees of freedom               195          :
          :.................................................:
          :   RF solver                   davidson          :
          :   write xtbopt.log                true          :
          :   linear?                        false          :
          :   energy convergence         0.1000000E-05 Eh   :
          :   grad. convergence          0.8000000E-03 Eh/α :
          :   maxmium RF displ.          1.0000000          :
          :   Hlow (freq-cutoff)         0.1000000E-01      :
          :   Hmax (freq-cutoff)         5.0000000          :
          :   S6 in model hess.         20.0000000          :
          ...................................................

generating ANC from exact Hessian ...
Using Lindh-Hessian (1995)
 Shifting diagonal of input Hessian by    1.0494296331266417E-002
 Lowest  eigenvalues of input Hessian
    0.010000    0.010029    0.010036    0.010048    0.010051    0.010065
    0.010073    0.010088    0.010109    0.010135    0.010209    0.010230
    0.010260    0.010305    0.010336    0.010401    0.000000    0.010438
 Highest eigenvalues
    0.821474    0.825253    0.832741    0.862398    0.931801    0.932870


........................................................................
.............................. CYCLE    1 ..............................
........................................................................
------------------------------------------------------------
  cycle        total energy    energy error   density error
------------------------------------------------------------
      1     -90.83334868379  -9.1080858E+01   5.1796250E-05
      2     -90.83334727975   1.4040444E-06   1.0436028E-04
      3     -90.83334913183  -1.8520767E-06   9.0226524E-06
      4     -90.83334914076  -8.9346344E-09   5.8469715E-06
------------------------------------------------------------

 total:                                   0.587 sec
 * total energy  :   -90.8333491 Eh     change       -0.1281454E-07 Eh
   gradient norm :     0.5336566 Eh/α   predicted     0.0000000E+00 (-100.00%)
   displ. norm   :     0.8859203 α      lambda       -0.4638300E+00
   maximum displ.:     0.4749632 α      in ANC's #127, #123, #124, ...

........................................................................
.............................. CYCLE    2 ..............................
........................................................................
------------------------------------------------------------
  cycle        total energy    energy error   density error
------------------------------------------------------------
      1     -91.26827762177  -9.1593971E+01   1.2537384E-02
      2     -91.26761619657   6.6142520E-04   7.8214948E-03
      3     -91.26102156782   6.5946288E-03   8.8138818E-03
      4     -91.26941296912  -8.3914013E-03   3.0547366E-03
      5     -91.27046802754  -1.0550584E-03   1.1244014E-03
      6     -91.27063698861  -1.6896107E-04   4.7223658E-04
      7     -91.27063854771  -1.5590981E-06   4.0196361E-04
      8     -91.27064883971  -1.0292006E-05   2.0888493E-04
      9     -91.27065348008  -4.6403679E-06   1.1533616E-04
     10     -91.27065371218  -2.3209877E-07   8.6126763E-05
     11     -91.27065384603  -1.3385298E-07   7.0307487E-05
     12     -91.27065410855  -2.6251809E-07   4.1215027E-05
     13     -91.27065426428  -1.5573301E-07   2.1259516E-05
     14     -91.27065426970  -5.4115930E-09   1.6257387E-05
------------------------------------------------------------

 total:                                   1.919 sec
 * total energy  :   -91.2706543 Eh     change       -0.4373051E+00 Eh
   gradient norm :     0.4714019 Eh/α   predicted    -0.4139347E+00 (  -5.34%)
   displ. norm   :     0.9370731 α      lambda       -0.4387131E+00
   maximum displ.:     0.4510536 α      in ANC's #127, #123, #142, ...

........................................................................
.............................. CYCLE    3 ..............................
........................................................................
------------------------------------------------------------
  cycle        total energy    energy error   density error
------------------------------------------------------------
      1     -91.67185516166  -9.2126634E+01   1.2264000E-02
      2     -91.67275264428  -8.9748262E-04   7.1615673E-03
      3     -91.66849301892   4.2596254E-03   7.1644583E-03
      4     -91.67407919267  -5.5861737E-03   2.6128774E-03
      5     -91.67467073224  -5.9153958E-04   1.1910309E-03
      6     -91.67489082388  -2.2009164E-04   4.3386810E-04
      7     -91.67488738796   3.4359274E-06   3.4890371E-04
      8     -91.67489704687  -9.6589169E-06   1.7760491E-04
      9     -91.67489829727  -1.2503989E-06   1.2952643E-04
     10     -91.67489963785  -1.3405781E-06   7.2031651E-05
     11     -91.67489954989   8.7959378E-08   6.1456490E-05
     12     -91.67489978613  -2.3624362E-07   3.4614870E-05
     13     -91.67489989457  -1.0843807E-07   1.6853963E-05
------------------------------------------------------------

 total:                                   1.631 sec
 * total energy  :   -91.6748999 Eh     change       -0.4042456E+00 Eh
   gradient norm :     0.3914500 Eh/α   predicted    -0.4119913E+00 (   1.92%)
   displ. norm   :     0.9148813 α      lambda       -0.3557072E+00
   maximum displ.:     0.4069887 α      in ANC's #127, #123, #142, ...

........................................................................
.............................. CYCLE    4 ..............................
........................................................................
------------------------------------------------------------
  cycle        total energy    energy error   density error
------------------------------------------------------------
      1     -91.98907860608  -9.2613411E+01   1.1065603E-02
      2     -91.99003061738  -9.5201130E-04   6.4662759E-03
      3     -91.98714907293   2.8815444E-03   5.9416047E-03
      4     -91.99094418736  -3.7951144E-03   2.1324139E-03
      5     -91.99137877471  -4.3458734E-04   9.4032539E-04
      6     -91.99151239632  -1.3362162E-04   3.5126093E-04
      7     -91.99150986339   2.5329372E-06   2.6297486E-04
      8     -91.99151543784  -5.5744535E-06   1.3270911E-04
      9     -91.99151602814  -5.9030265E-07   9.5455078E-05
     10     -91.99151651303  -4.8488671E-07   5.8134600E-05
     11     -91.99151655129  -3.8259202E-08   4.3101150E-05
     12     -91.99151661129  -5.9999167E-08   2.6621856E-05
     13     -91.99151669084  -7.9549267E-08   1.2126129E-05
------------------------------------------------------------

 total:                                   1.870 sec
 * total energy  :   -91.9915167 Eh     change       -0.3166168E+00 Eh
   gradient norm :     0.3021499 Eh/α   predicted    -0.3267186E+00 (   3.19%)
   displ. norm   :     0.8980334 α      lambda       -0.2681447E+00
   maximum displ.:     0.3821470 α      in ANC's #123, #127, #118, ...

........................................................................
.............................. CYCLE    5 ..............................
........................................................................
------------------------------------------------------------
  cycle        total energy    energy error   density error
------------------------------------------------------------
      1     -92.22809365580  -9.3014052E+01   9.1699074E-03
      2     -92.22811473330  -2.1077500E-05   5.8920746E-03
      3     -92.22591091343   2.2038199E-03   5.2081222E-03
      4     -92.22926831429  -3.3574009E-03   1.5503415E-03
      5     -92.22953296891  -2.6465462E-04   6.3395473E-04
      6     -92.22957605702  -4.3088113E-05   2.8952669E-04
      7     -92.22957206585   3.9911701E-06   2.4892924E-04
      8     -92.22957813980  -6.0739478E-06   1.0239340E-04
      9     -92.22957825141  -1.1161367E-07   8.1755236E-05
     10     -92.22957865126  -3.9984802E-07   4.6483565E-05
     11     -92.22957871458  -6.3318737E-08   3.0657093E-05
     12     -92.22957879079  -7.6215287E-08   1.5466984E-05
------------------------------------------------------------

 total:                                   1.606 sec
 * total energy  :   -92.2295788 Eh     change       -0.2380621E+00 Eh
   gradient norm :     0.2345424 Eh/α   predicted    -0.2421971E+00 (   1.74%)
   displ. norm   :     0.8988774 α      lambda       -0.2072480E+00
   maximum displ.:     0.3686050 α      in ANC's #123, #118, #72, ...

........................................................................
.............................. CYCLE    6 ..............................
........................................................................
------------------------------------------------------------
  cycle        total energy    energy error   density error
------------------------------------------------------------
      1     -92.41396247074  -9.3320903E+01   8.0308425E-03
      2     -92.41346125442   5.0121632E-04   5.8457204E-03
      3     -92.41278702884   6.7422558E-04   4.4719538E-03
      4     -92.41498955158  -2.2025227E-03   1.3033271E-03
      5     -92.41520085518  -2.1130360E-04   4.7027634E-04
      6     -92.41521174583  -1.0890648E-05   3.0540573E-04
      7     -92.41521213061  -3.8478083E-07   2.2316033E-04
      8     -92.41521633038  -4.1997752E-06   9.6121217E-05
      9     -92.41521686428  -5.3389620E-07   6.3319698E-05
     10     -92.41521686873  -4.4497455E-09   4.1378045E-05
     11     -92.41521704318  -1.7445450E-07   1.5981706E-05
------------------------------------------------------------

 total:                                   1.571 sec
 * total energy  :   -92.4152170 Eh     change       -0.1856383E+00 Eh
   gradient norm :     0.1876328 Eh/α   predicted    -0.1873507E+00 (   0.92%)
   displ. norm   :     0.9008717 α      lambda       -0.1641381E+00
   maximum displ.:     0.3744732 α      in ANC's #72, #118, #123, ...

........................................................................
.............................. CYCLE    7 ..............................
........................................................................
------------------------------------------------------------
  cycle        total energy    energy error   density error
------------------------------------------------------------
      1     -92.56172499014  -9.3567375E+01   7.8033894E-03
      2     -92.56121121232   5.1377782E-04   5.7807145E-03
      3     -92.56118096154   3.0250781E-05   4.1692028E-03
      4     -92.56286812748  -1.6871659E-03   1.1850490E-03
      5     -92.56302490205  -1.5677457E-04   4.7167320E-04
      6     -92.56303939741  -1.4495357E-05   2.9389777E-04
      7     -92.56304147609  -2.0786851E-06   1.9707554E-04
      8     -92.56304432065  -2.8445532E-06   8.8463125E-05
      9     -92.56304496976  -6.4911650E-07   5.0180031E-05
     10     -92.56304496963   1.2791190E-10   3.1800154E-05
     11     -92.56304506882  -9.9182202E-08   1.1516239E-05
------------------------------------------------------------

 total:                                   1.546 sec
 * total energy  :   -92.5630451 Eh     change       -0.1478280E+00 Eh
   gradient norm :     0.1539814 Eh/α   predicted    -0.1486746E+00 (   0.57%)
   displ. norm   :     0.9016537 α      lambda       -0.1328618E+00
   maximum displ.:     0.3750747 α      in ANC's #72, #82, #50, ...

........................................................................
.............................. CYCLE    8 ..............................
........................................................................
------------------------------------------------------------
  cycle        total energy    energy error   density error
------------------------------------------------------------
      1     -92.68133742001  -9.3767386E+01   7.9103070E-03
      2     -92.68111438818   2.2303183E-04   5.6250332E-03
      3     -92.68140821470  -2.9382652E-04   3.9570008E-03
      4     -92.68268945028  -1.2812356E-03   1.1946456E-03
      5     -92.68283922833  -1.4977805E-04   4.7970373E-04
      6     -92.68285829934  -1.9071013E-05   2.5126921E-04
      7     -92.68286076753  -2.4681850E-06   1.7366524E-04
      8     -92.68286291652  -2.1489953E-06   6.9777912E-05
      9     -92.68286319660  -2.8007383E-07   4.4770125E-05
     10     -92.68286327271  -7.6110652E-08   2.1957111E-05
     11     -92.68286330858  -3.5870031E-08   1.1502503E-05
------------------------------------------------------------

 total:                                   1.688 sec
 * total energy  :   -92.6828633 Eh     change       -0.1198182E+00 Eh
   gradient norm :     0.1255877 Eh/α   predicted    -0.1204378E+00 (   0.52%)
   displ. norm   :     0.8997286 α      lambda       -0.1071773E+00
   maximum displ.:     0.3426129 α      in ANC's #72, #50, #82, ...

........................................................................
.............................. CYCLE    9 ..............................
........................................................................
------------------------------------------------------------
  cycle        total energy    energy error   density error
------------------------------------------------------------
      1     -92.77594454289  -9.3933446E+01   7.7536945E-03
      2     -92.77614133523  -1.9679235E-04   5.3108226E-03
      3     -92.77658638052  -4.4504529E-04   3.5617905E-03
      4     -92.77746666763  -8.8028710E-04   1.1320747E-03
      5     -92.77762387453  -1.5720690E-04   3.8062216E-04
      6     -92.77763595007  -1.2075547E-05   1.9022829E-04
      7     -92.77763672388  -7.7380727E-07   1.4654082E-04
      8     -92.77763827516  -1.5512746E-06   5.9236373E-05
      9     -92.77763837282  -9.7659608E-08   4.3385190E-05
     10     -92.77763846393  -9.1115368E-08   1.8465601E-05
------------------------------------------------------------

 total:                                   1.549 sec
 * total energy  :   -92.7776385 Eh     change       -0.9477516E-01 Eh
   gradient norm :     0.0961844 Eh/α   predicted    -0.9696931E-01 (   2.32%)
   displ. norm   :     0.8945975 α      lambda       -0.8211650E-01
   maximum displ.:     0.3399052 α      in ANC's #50, #82, #72, ...

........................................................................
.............................. CYCLE   10 ..............................
........................................................................
------------------------------------------------------------
  cycle        total energy    energy error   density error
------------------------------------------------------------
      1     -92.84766012412  -9.4060504E+01   7.2196680E-03
      2     -92.84792139925  -2.6127513E-04   4.5510630E-03
      3     -92.84756223566   3.5916358E-04   3.4346194E-03
      4     -92.84850005732  -9.3782166E-04   7.5704314E-04
      5     -92.84855426521  -5.4207887E-05   3.5643150E-04
      6     -92.84856344683  -9.1816249E-06   1.9527811E-04
      7     -92.84856341291   3.3927378E-08   1.3864677E-04
      8     -92.84856511105  -1.6981467E-06   6.4391769E-05
      9     -92.84856514018  -2.9123697E-08   4.1117469E-05
     10     -92.84856527609  -1.3591023E-07   1.8700262E-05
------------------------------------------------------------

 total:                                   1.416 sec
 * total energy  :   -92.8485653 Eh     change       -0.7092681E-01 Eh
   gradient norm :     0.0752487 Eh/α   predicted    -0.7391731E-01 (   4.22%)
   displ. norm   :     0.9109064 α      lambda       -0.6411628E-01
   maximum displ.:     0.3743313 α      in ANC's #50, #82, #51, ...

........................................................................
.............................. CYCLE   11 ..............................
........................................................................
------------------------------------------------------------
  cycle        total energy    energy error   density error
------------------------------------------------------------
      1     -92.89936253630  -9.4160509E+01   6.8458173E-03
      2     -92.89948154686  -1.1901056E-04   4.3514313E-03
      3     -92.89859883811   8.8270875E-04   3.1794799E-03
      4     -92.89988737114  -1.2885330E-03   6.7598559E-04
      5     -92.89994078837  -5.3417231E-05   3.8020983E-04
      6     -92.89995471158  -1.3923208E-05   1.8228995E-04
      7     -92.89995516614  -4.5455629E-07   1.3688662E-04
      8     -92.89995610329  -9.3715713E-07   6.3696818E-05
      9     -92.89995615653  -5.3239333E-08   4.4557871E-05
     10     -92.89995633020  -1.7366739E-07   1.5496343E-05
------------------------------------------------------------

 total:                                   1.301 sec
 * total energy  :   -92.8999563 Eh     change       -0.5139105E-01 Eh
   gradient norm :     0.0795821 Eh/α   predicted    -0.5865846E-01 (  14.14%)
   displ. norm   :     0.8862268 α      lambda       -0.5566248E-01
   maximum displ.:     0.3302180 α      in ANC's #50, #26, #27, ...

........................................................................
.............................. CYCLE   12 ..............................
........................................................................
------------------------------------------------------------
  cycle        total energy    energy error   density error
------------------------------------------------------------
      1     -92.94495475296  -9.4235810E+01   6.8867120E-03
      2     -92.94505525520  -1.0050224E-04   4.2091475E-03
      3     -92.94434709667   7.0815853E-04   3.3612796E-03
      4     -92.94558058623  -1.2334896E-03   5.3428034E-04
      5     -92.94560302159  -2.2435361E-05   2.6782140E-04
      6     -92.94560889536  -5.8737740E-06   1.2077411E-04
      7     -92.94560937956  -4.8419645E-07   7.6158047E-05
      8     -92.94560968171  -3.0214834E-07   4.6448229E-05
      9     -92.94560975608  -7.4375436E-08   2.2444708E-05
     10     -92.94560978818  -3.2100061E-08   1.3123726E-05
------------------------------------------------------------

 total:                                   1.355 sec
 * total energy  :   -92.9456098 Eh     change       -0.4565346E-01 Eh
   gradient norm :     0.0734639 Eh/α   predicted    -0.4968982E-01 (   8.84%)
   displ. norm   :     0.8870558 α      lambda       -0.5005931E-01
   maximum displ.:     0.2928473 α      in ANC's #50, #26, #27, ...

........................................................................
.............................. CYCLE   13 ..............................
........................................................................
------------------------------------------------------------
  cycle        total energy    energy error   density error
------------------------------------------------------------
      1     -92.98755437122  -9.4290159E+01   5.5014751E-03
      2     -92.98769342854  -1.3905732E-04   3.4855624E-03
      3     -92.98768701428   6.4142604E-06   2.4353069E-03
      4     -92.98810604360  -4.1902932E-04   4.3001209E-04
      5     -92.98811658819  -1.0544589E-05   2.6031841E-04
      6     -92.98812404107  -7.4528763E-06   9.0379270E-05
      7     -92.98812460871  -5.6764272E-07   6.3199715E-05
      8     -92.98812487205  -2.6333866E-07   3.0822296E-05
      9     -92.98812487403  -1.9860522E-09   1.8704578E-05
------------------------------------------------------------

 total:                                   1.274 sec
 * total energy  :   -92.9881249 Eh     change       -0.4251509E-01 Eh
   gradient norm :     0.0802886 Eh/α   predicted    -0.4472468E-01 (   5.20%)
   displ. norm   :     0.9044545 α      lambda       -0.5413332E-01
   maximum displ.:     0.3051367 α      in ANC's #50, #26, #27, ...

........................................................................
.............................. CYCLE   14 ..............................
........................................................................
------------------------------------------------------------
  cycle        total energy    energy error   density error
------------------------------------------------------------
      1     -93.03236390934  -9.4343740E+01   5.7338519E-03
      2     -93.03250034227  -1.3643293E-04   3.7429418E-03
      3     -93.03218466806   3.1567421E-04   2.3171203E-03
      4     -93.03271251370  -5.2784564E-04   4.4538692E-04
      5     -93.03273928066  -2.6766964E-05   2.1429930E-04
      6     -93.03274234259  -3.0619259E-06   1.0530078E-04
      7     -93.03274281858  -4.7599018E-07   6.4866225E-05
      8     -93.03274298918  -1.7060258E-07   3.2131427E-05
      9     -93.03274302392  -3.4734541E-08   1.8200847E-05
------------------------------------------------------------

 total:                                   1.197 sec
 * total energy  :   -93.0327430 Eh     change       -0.4461815E-01 Eh
   gradient norm :     0.0690559 Eh/α   predicted    -0.4920826E-01 (  10.29%)
   displ. norm   :     0.9155197 α      lambda       -0.4570683E-01
   maximum displ.:     0.3388736 α      in ANC's #26, #27, #32, ...

........................................................................
.............................. CYCLE   15 ..............................
........................................................................
------------------------------------------------------------
  cycle        total energy    energy error   density error
------------------------------------------------------------
      1     -93.07110244629  -9.4414048E+01   3.9538547E-03
      2     -93.07117195135  -6.9505062E-05   2.7234891E-03
      3     -93.07100995798   1.6199337E-04   1.5415092E-03
      4     -93.07131078758  -3.0082960E-04   2.8749819E-04
      5     -93.07131947331  -8.6857274E-06   1.1763304E-04
      6     -93.07132029651  -8.2320199E-07   6.6836709E-05
      7     -93.07132054355  -2.4703725E-07   3.3423161E-05
      8     -93.07132060609  -6.2549432E-08   1.6734726E-05
------------------------------------------------------------

 total:                                   1.134 sec
 * total energy  :   -93.0713206 Eh     change       -0.3857758E-01 Eh
   gradient norm :     0.0562005 Eh/α   predicted    -0.4200861E-01 (   8.89%)
   displ. norm   :     0.9270672 α      lambda       -0.4319352E-01
   maximum displ.:     0.3445875 α      in ANC's #26, #27, #32, ...

........................................................................
.............................. CYCLE   16 ..............................
........................................................................
------------------------------------------------------------
  cycle        total energy    energy error   density error
------------------------------------------------------------
      1     -93.10192356707  -9.4481823E+01   6.0188526E-03
      2     -93.10207359390  -1.5002682E-04   3.8461926E-03
      3     -93.10146198580   6.1160810E-04   2.2408705E-03
      4     -93.10222623632  -7.6425052E-04   4.8345570E-04
      5     -93.10225311735  -2.6881035E-05   2.2441372E-04
      6     -93.10225760800  -4.4906519E-06   1.0869371E-04
      7     -93.10225796396  -3.5595399E-07   6.7874687E-05
      8     -93.10225814097  -1.7701464E-07   3.0302090E-05
      9     -93.10225816985  -2.8874439E-08   1.9178780E-05
------------------------------------------------------------

 total:                                   1.305 sec
 * total energy  :   -93.1022582 Eh     change       -0.3093756E-01 Eh
   gradient norm :     0.0635965 Eh/α   predicted    -0.4015818E-01 (  29.80%)
   displ. norm   :     0.8494990 α      lambda       -0.3652298E-01
   maximum displ.:     0.3328759 α      in ANC's #26, #27, #32, ...

........................................................................
.............................. CYCLE   17 ..............................
........................................................................
------------------------------------------------------------
  cycle        total energy    energy error   density error
------------------------------------------------------------
      1     -93.13094504274  -9.4527090E+01   4.5979211E-03
      2     -93.13102309781  -7.8055067E-05   2.8674334E-03
      3     -93.13083373815   1.8935966E-04   1.3313086E-03
      4     -93.13105920152  -2.2546337E-04   3.6726992E-04
      5     -93.13107527515  -1.6073636E-05   1.5127517E-04
      6     -93.13107646063  -1.1854787E-06   8.8411652E-05
      7     -93.13107690469  -4.4405756E-07   4.5291187E-05
      8     -93.13107695050  -4.5810054E-08   2.4378066E-05
      9     -93.13107697211  -2.1607875E-08   1.0664696E-05
------------------------------------------------------------

 total:                                   1.235 sec
 * total energy  :   -93.1310770 Eh     change       -0.2881880E-01 Eh
   gradient norm :     0.0447397 Eh/α   predicted    -0.3143986E-01 (   9.09%)
   displ. norm   :     0.8888143 α      lambda       -0.3055445E-01
   maximum displ.:     0.3560981 α      in ANC's #26, #27, #32, ...

........................................................................
.............................. CYCLE   18 ..............................
........................................................................
------------------------------------------------------------
  cycle        total energy    energy error   density error
------------------------------------------------------------
      1     -93.15095127553  -9.4564566E+01   5.7155949E-03
      2     -93.15106307296  -1.1179743E-04   3.3529479E-03
      3     -93.15080087233   2.6220063E-04   1.7067633E-03
      4     -93.15111163268  -3.1076035E-04   4.3871166E-04
      5     -93.15112616351  -1.4530834E-05   2.3897989E-04
      6     -93.15113288604  -6.7225281E-06   7.6875639E-05
      7     -93.15113345593  -5.6988395E-07   3.4749970E-05
      8     -93.15113352469  -6.8758879E-08   1.8253099E-05
------------------------------------------------------------

 total:                                   1.162 sec
 * total energy  :   -93.1511335 Eh     change       -0.2005655E-01 Eh
   gradient norm :     0.0606461 Eh/α   predicted    -0.2734610E-01 (  36.34%)
   displ. norm   :     0.8094661 α      lambda       -0.2988731E-01
   maximum displ.:     0.3407050 α      in ANC's #26, #27, #32, ...

........................................................................
.............................. CYCLE   19 ..............................
........................................................................
------------------------------------------------------------
  cycle        total energy    energy error   density error
------------------------------------------------------------
      1     -93.16987578030  -9.4607357E+01   5.4378732E-03
      2     -93.16999298939  -1.1720909E-04   3.2560711E-03
      3     -93.16975359471   2.3939469E-04   1.4394930E-03
      4     -93.17002366214  -2.7006743E-04   4.4758815E-04
      5     -93.17004227275  -1.8610613E-05   2.3350311E-04
      6     -93.17004747981  -5.2070598E-06   8.7412333E-05
      7     -93.17004820535  -7.2554217E-07   4.2937420E-05
      8     -93.17004826290  -5.7547879E-08   2.3607760E-05
      9     -93.17004826950  -6.6041252E-09   1.1395346E-05
------------------------------------------------------------

 total:                                   1.419 sec
 * total energy  :   -93.1700483 Eh     change       -0.1891474E-01 Eh
   gradient norm :     0.0544085 Eh/α   predicted    -0.2473527E-01 (  30.77%)
   displ. norm   :     0.7826473 α      lambda       -0.2286734E-01
   maximum displ.:     0.3341331 α      in ANC's #26, #27, #25, ...

........................................................................
.............................. CYCLE   20 ..............................
........................................................................
------------------------------------------------------------
  cycle        total energy    energy error   density error
------------------------------------------------------------
      1     -93.18231761254  -9.4633658E+01   6.0325710E-03
      2     -93.18242300531  -1.0539277E-04   3.6476999E-03
      3     -93.18208813196   3.3487335E-04   1.5122860E-03
      4     -93.18247841836  -3.9028641E-04   3.3227855E-04
      5     -93.18248857121  -1.0152850E-05   1.8083389E-04
      6     -93.18249116660  -2.5953821E-06   8.6031886E-05
      7     -93.18249196776  -8.0116810E-07   3.2854184E-05
      8     -93.18249199877  -3.1007886E-08   1.7223016E-05
------------------------------------------------------------

 total:                                   1.090 sec
 * total energy  :   -93.1824920 Eh     change       -0.1244373E-01 Eh
   gradient norm :     0.0500342 Eh/α   predicted    -0.1843722E-01 (  48.16%)
   displ. norm   :     0.7400500 α      lambda       -0.2055801E-01
   maximum displ.:     0.3247701 α      in ANC's #26, #27, #25, ...
 * RMSD in coord.:     1.6683720 α      energy gain  -0.2349143E+01 Eh

generating ANC from exact Hessian ...
Using Lindh-Hessian (1995)
 Shifting diagonal of input Hessian by    9.7863555038077785E-003
 Lowest  eigenvalues of input Hessian
    0.000000    0.000000    0.000000    0.000000    0.000000    0.000000
    0.010000    0.010112    0.010122    0.010238    0.010683    0.010750
    0.011018    0.011088    0.012805    0.013871    0.014026    0.014339
 Highest eigenvalues
    1.947539    1.977231    2.000915    2.137824    2.202239    2.217320


........................................................................
.............................. CYCLE   21 ..............................
........................................................................
------------------------------------------------------------
  cycle        total energy    energy error   density error
------------------------------------------------------------
      1     -93.19115976532  -9.4660934E+01   6.8007665E-03
      2     -93.19127641935  -1.1665403E-04   4.0132844E-03
      3     -93.19086475260   4.1166675E-04   2.0064821E-03
      4     -93.19133916166  -4.7440906E-04   4.5593843E-04
      5     -93.19135497813  -1.5816464E-05   2.4845446E-04
      6     -93.19136113001  -6.1518781E-06   9.9235654E-05
      7     -93.19136197687  -8.4686164E-07   4.0140243E-05
      8     -93.19136207303  -9.6159511E-08   2.1025347E-05
      9     -93.19136208302  -9.9893782E-09   1.0447528E-05
------------------------------------------------------------

 total:                                   1.150 sec
 * total energy  :   -93.1913621 Eh     change       -0.8870084E-02 Eh
   gradient norm :     0.0575604 Eh/α   predicted     0.0000000E+00 (-100.00%)
   displ. norm   :     0.4732995 α      lambda       -0.1124654E-01
   maximum displ.:     0.3626147 α      in ANC's #13, #12, #15, ...

........................................................................
.............................. CYCLE   22 ..............................
........................................................................
------------------------------------------------------------
  cycle        total energy    energy error   density error
------------------------------------------------------------
      1     -93.19948232656  -9.4675466E+01   3.0241648E-03
      2     -93.19950439834  -2.2071784E-05   1.8066916E-03
      3     -93.19947318779   3.1210547E-05   4.8743540E-04
      4     -93.19950676626  -3.3578469E-05   1.8890262E-04
      5     -93.19951093011  -4.1638493E-06   7.6230066E-05
      6     -93.19951132009  -3.8997908E-07   3.5289279E-05
      7     -93.19951140679  -8.6695891E-08   1.6246060E-05
------------------------------------------------------------

 total:                                   0.930 sec
 * total energy  :   -93.1995114 Eh     change       -0.8149324E-02 Eh
   gradient norm :     0.0216776 Eh/α   predicted    -0.6883184E-02 ( -15.54%)
   displ. norm   :     0.6060218 α      lambda       -0.6454869E-02
   maximum displ.:     0.4613631 α      in ANC's #13, #12, #15, ...

........................................................................
.............................. CYCLE   23 ..............................
........................................................................
------------------------------------------------------------
  cycle        total energy    energy error   density error
------------------------------------------------------------
      1     -93.20442088720  -9.4693777E+01   2.0622476E-03
      2     -93.20443284182  -1.1954624E-05   1.2404774E-03
      3     -93.20440769845   2.5143366E-05   4.8776979E-04
      4     -93.20443818916  -3.0490706E-05   1.1083942E-04
      5     -93.20443896357  -7.7441362E-07   5.5783754E-05
      6     -93.20443908875  -1.2517650E-07   3.0196619E-05
      7     -93.20443917429  -8.5540123E-08   1.4206982E-05
------------------------------------------------------------

 total:                                   1.018 sec
 * total energy  :   -93.2044392 Eh     change       -0.4927768E-02 Eh
   gradient norm :     0.0111540 Eh/α   predicted    -0.4412756E-02 ( -10.45%)
   displ. norm   :     0.6085922 α      lambda       -0.3850713E-02
   maximum displ.:     0.4272749 α      in ANC's #13, #12, #19, ...

........................................................................
.............................. CYCLE   24 ..............................
........................................................................
------------------------------------------------------------
  cycle        total energy    energy error   density error
------------------------------------------------------------
      1     -93.20736217732  -9.4709517E+01   1.7632385E-03
      2     -93.20736968143  -7.5041123E-06   1.0659567E-03
      3     -93.20734433785   2.5343576E-05   5.1737401E-04
      4     -93.20737541911  -3.1081259E-05   7.0097630E-05
      5     -93.20737576812  -3.4901231E-07   3.5363944E-05
      6     -93.20737584934  -8.1213727E-08   1.5742641E-05
------------------------------------------------------------

 total:                                   0.845 sec
 * total energy  :   -93.2073758 Eh     change       -0.2936675E-02 Eh
   gradient norm :     0.0144091 Eh/α   predicted    -0.2638481E-02 ( -10.15%)
   displ. norm   :     0.5414694 α      lambda       -0.2196471E-02
   maximum displ.:     0.3122381 α      in ANC's #13, #12, #19, ...

........................................................................
.............................. CYCLE   25 ..............................
........................................................................
------------------------------------------------------------
  cycle        total energy    energy error   density error
------------------------------------------------------------
      1     -93.20897748517  -9.4720406E+01   1.6191648E-03
      2     -93.20898464953  -7.1643596E-06   9.8311941E-04
      3     -93.20895819238   2.6457144E-05   5.3428497E-04
      4     -93.20899147409  -3.3281710E-05   6.4673627E-05
      5     -93.20899179102  -3.1692896E-07   3.4118221E-05
      6     -93.20899189208  -1.0106312E-07   1.4237957E-05
------------------------------------------------------------

 total:                                   1.038 sec
 * total energy  :   -93.2089919 Eh     change       -0.1616043E-02 Eh
   gradient norm :     0.0116304 Eh/α   predicted    -0.1420228E-02 ( -12.12%)
   displ. norm   :     0.4540236 α      lambda       -0.1206935E-02
   maximum displ.:     0.1768479 α      in ANC's #6, #13, #19, ...

........................................................................
.............................. CYCLE   26 ..............................
........................................................................
------------------------------------------------------------
  cycle        total energy    energy error   density error
------------------------------------------------------------
      1     -93.20989469358  -9.4726173E+01   1.4445449E-03
      2     -93.20989970839  -5.0148139E-06   8.6684513E-04
      3     -93.20987775404   2.1954350E-05   4.5249172E-04
      4     -93.20990417413  -2.6420087E-05   5.8817088E-05
      5     -93.20990435150  -1.7736677E-07   3.7599140E-05
      6     -93.20990448110  -1.2960250E-07   1.5812417E-05
------------------------------------------------------------

 total:                                   0.862 sec
 * total energy  :   -93.2099045 Eh     change       -0.9125890E-03 Eh
   gradient norm :     0.0078184 Eh/α   predicted    -0.7278658E-03 ( -20.24%)
   displ. norm   :     0.4575596 α      lambda       -0.9477579E-03
   maximum displ.:     0.2129051 α      in ANC's #6, #19, #1, ...

........................................................................
.............................. CYCLE   27 ..............................
........................................................................
------------------------------------------------------------
  cycle        total energy    energy error   density error
------------------------------------------------------------
      1     -93.21065184010  -9.4727687E+01   1.4896089E-03
      2     -93.21065530578  -3.4656798E-06   8.8032864E-04
      3     -93.21063673374   1.8572044E-05   3.8289310E-04
      4     -93.21065757457  -2.0840831E-05   7.0168720E-05
      5     -93.21065782348  -2.4890542E-07   4.8866270E-05
      6     -93.21065808629  -2.6281312E-07   1.3851795E-05
------------------------------------------------------------

 total:                                   0.941 sec
 * total energy  :   -93.2106581 Eh     change       -0.7536052E-03 Eh
   gradient norm :     0.0073524 Eh/α   predicted    -0.5730913E-03 ( -23.95%)
   displ. norm   :     0.5072748 α      lambda       -0.9326558E-03
   maximum displ.:     0.2477857 α      in ANC's #6, #1, #19, ...

........................................................................
.............................. CYCLE   28 ..............................
........................................................................
------------------------------------------------------------
  cycle        total energy    energy error   density error
------------------------------------------------------------
      1     -93.21140011328  -9.4726013E+01   1.6365672E-03
      2     -93.21140280338  -2.6900962E-06   9.5928881E-04
      3     -93.21139942830   3.3750767E-06   1.7550533E-04
      4     -93.21140368685  -4.2585516E-06   5.4397432E-05
      5     -93.21140382409  -1.3723734E-07   2.2790517E-05
      6     -93.21140385514  -3.1051457E-08   9.0776472E-06
------------------------------------------------------------

 total:                                   0.841 sec
 * total energy  :   -93.2114039 Eh     change       -0.7457689E-03 Eh
   gradient norm :     0.0091209 Eh/α   predicted    -0.5863326E-03 ( -21.38%)
   displ. norm   :     0.5274149 α      lambda       -0.8533717E-03
   maximum displ.:     0.2566550 α      in ANC's #6, #1, #19, ...

........................................................................
.............................. CYCLE   29 ..............................
........................................................................
------------------------------------------------------------
  cycle        total energy    energy error   density error
------------------------------------------------------------
      1     -93.21206889913  -9.4722743E+01   1.6240901E-03
      2     -93.21207091382  -2.0146877E-06   9.5380752E-04
      3     -93.21207009649   8.1732860E-07   1.1837928E-04
      4     -93.21207147510  -1.3786160E-06   4.8166509E-05
      5     -93.21207150955  -3.4443616E-08   2.8367606E-05
      6     -93.21207160009  -9.0538435E-08   9.6284882E-06
------------------------------------------------------------

 total:                                   0.889 sec
 * total energy  :   -93.2120716 Eh     change       -0.6677449E-03 Eh
   gradient norm :     0.0100022 Eh/α   predicted    -0.5453756E-03 ( -18.33%)
   displ. norm   :     0.4860245 α      lambda       -0.7469491E-03
   maximum displ.:     0.2401200 α      in ANC's #1, #6, #19, ...

........................................................................
.............................. CYCLE   30 ..............................
........................................................................
------------------------------------------------------------
  cycle        total energy    energy error   density error
------------------------------------------------------------
      1     -93.21263280637  -9.4722632E+01   1.4187619E-03
      2     -93.21263514678  -2.3404090E-06   8.3837251E-04
      3     -93.21261689849   1.8248295E-05   3.6999866E-04
      4     -93.21263644436  -1.9545875E-05   7.3844484E-05
      5     -93.21263701833  -5.7396957E-07   3.2612044E-05
      6     -93.21263710076  -8.2427718E-08   1.2599147E-05
------------------------------------------------------------

 total:                                   0.753 sec
 * total energy  :   -93.2126371 Eh     change       -0.5655007E-03 Eh
   gradient norm :     0.0089165 Eh/α   predicted    -0.4616992E-03 ( -18.36%)
   displ. norm   :     0.5429846 α      lambda       -0.7583057E-03
   maximum displ.:     0.2739497 α      in ANC's #1, #6, #19, ...

........................................................................
.............................. CYCLE   31 ..............................
........................................................................
------------------------------------------------------------
  cycle        total energy    energy error   density error
------------------------------------------------------------
      1     -93.21304434675  -9.4717186E+01   1.5848445E-03
      2     -93.21304930588  -4.9591344E-06   9.3266778E-04
      3     -93.21304175616   7.5497219E-06   2.5758651E-04
      4     -93.21304929802  -7.5418614E-06   1.0175193E-04
      5     -93.21305055547  -1.2574514E-06   3.5352762E-05
      6     -93.21305061399  -5.8511830E-08   1.8275450E-05
------------------------------------------------------------

 total:                                   0.793 sec
 * total energy  :   -93.2130506 Eh     change       -0.4135132E-03 Eh
   gradient norm :     0.0130628 Eh/α   predicted    -0.4909404E-03 (  18.72%)
   displ. norm   :     0.3973305 α      lambda       -0.9631221E-03
   maximum displ.:     0.2064666 α      in ANC's #1, #8, #6, ...

........................................................................
.............................. CYCLE   32 ..............................
........................................................................
------------------------------------------------------------
  cycle        total energy    energy error   density error
------------------------------------------------------------
      1     -93.21363480328  -9.4726349E+01   1.3441385E-03
      2     -93.21364303055  -8.2272760E-06   7.8463783E-04
      3     -93.21363422650   8.8040478E-06   2.9226670E-04
      4     -93.21364275929  -8.5327865E-06   1.1798752E-04
      5     -93.21364458779  -1.8284962E-06   3.9428718E-05
      6     -93.21364471159  -1.2380214E-07   1.9501834E-05
------------------------------------------------------------

 total:                                   0.935 sec
 * total energy  :   -93.2136447 Eh     change       -0.5940976E-03 Eh
   gradient norm :     0.0093191 Eh/α   predicted    -0.5576018E-03 (  -6.14%)
   displ. norm   :     0.5140242 α      lambda       -0.6772662E-03
   maximum displ.:     0.2664783 α      in ANC's #1, #18, #6, ...

........................................................................
.............................. CYCLE   33 ..............................
........................................................................
------------------------------------------------------------
  cycle        total energy    energy error   density error
------------------------------------------------------------
      1     -93.21388971554  -9.4721810E+01   1.5951397E-03
      2     -93.21390155664  -1.1841103E-05   9.2112672E-04
      3     -93.21389605308   5.5035652E-06   2.6982654E-04
      4     -93.21389929107  -3.2379922E-06   1.6307148E-04
      5     -93.21390308253  -3.7914597E-06   3.8387847E-05
      6     -93.21390309802  -1.5484929E-08   2.1166138E-05
      7     -93.21390314176  -4.3748500E-08   6.6333837E-06
------------------------------------------------------------

 total:                                   0.926 sec
 * total energy  :   -93.2139031 Eh     change       -0.2584302E-03 Eh
   gradient norm :     0.0188535 Eh/α   predicted    -0.4281076E-03 (  65.66%)
   displ. norm   :     0.2988323 α      lambda       -0.9869190E-03
   maximum displ.:     0.1508857 α      in ANC's #1, #13, #8, ...

........................................................................
.............................. CYCLE   34 ..............................
........................................................................
------------------------------------------------------------
  cycle        total energy    energy error   density error
------------------------------------------------------------
      1     -93.21452947044  -9.4727543E+01   1.2104422E-03
      2     -93.21453744853  -7.9780951E-06   6.8512181E-04
      3     -93.21453402664   3.4218957E-06   2.3314941E-04
      4     -93.21453751850  -3.4918654E-06   1.0317737E-04
      5     -93.21453862886  -1.1103555E-06   3.9507981E-05
      6     -93.21453871523  -8.6368885E-08   2.2663115E-05
      7     -93.21453877410  -5.8870924E-08   7.4782807E-06
------------------------------------------------------------

 total:                                   0.918 sec
 * total energy  :   -93.2145388 Eh     change       -0.6356323E-03 Eh
   gradient norm :     0.0079738 Eh/α   predicted    -0.5375258E-03 ( -15.43%)
   displ. norm   :     0.4135614 α      lambda       -0.4888265E-03
   maximum displ.:     0.2322390 α      in ANC's #1, #18, #8, ...

........................................................................
.............................. CYCLE   35 ..............................
........................................................................
------------------------------------------------------------
  cycle        total energy    energy error   density error
------------------------------------------------------------
      1     -93.21489461393  -9.4729959E+01   1.2636219E-03
      2     -93.21489783737  -3.2234447E-06   7.2802028E-04
      3     -93.21489585775   1.9796198E-06   1.6427500E-04
      4     -93.21489765939  -1.8016420E-06   8.4917862E-05
      5     -93.21489849405  -8.3466041E-07   2.3145870E-05
      6     -93.21489854925  -5.5190441E-08   1.2252098E-05
------------------------------------------------------------

 total:                                   0.749 sec
 * total energy  :   -93.2148985 Eh     change       -0.3597751E-03 Eh
   gradient norm :     0.0079248 Eh/α   predicted    -0.2862184E-03 ( -20.45%)
   displ. norm   :     0.4330601 α      lambda       -0.4823153E-03
   maximum displ.:     0.2698573 α      in ANC's #1, #18, #8, ...

........................................................................
.............................. CYCLE   36 ..............................
........................................................................
------------------------------------------------------------
  cycle        total energy    energy error   density error
------------------------------------------------------------
      1     -93.21521776640  -9.4730126E+01   1.2605784E-03
      2     -93.21522172730  -3.9609013E-06   7.2430539E-04
      3     -93.21521538211   6.3451944E-06   2.4846736E-04
      4     -93.21522130208  -5.9199673E-06   1.1774182E-04
      5     -93.21522269843  -1.3963543E-06   3.4035855E-05
      6     -93.21522284925  -1.5082037E-07   1.1987890E-05
------------------------------------------------------------

 total:                                   0.825 sec
 * total energy  :   -93.2152228 Eh     change       -0.3243000E-03 Eh
   gradient norm :     0.0074704 Eh/α   predicted    -0.2863899E-03 ( -11.69%)
   displ. norm   :     0.3743205 α      lambda       -0.4020642E-03
   maximum displ.:     0.2397549 α      in ANC's #1, #18, #2, ...

........................................................................
.............................. CYCLE   37 ..............................
........................................................................
------------------------------------------------------------
  cycle        total energy    energy error   density error
------------------------------------------------------------
      1     -93.21542169191  -9.4732116E+01   1.0863154E-03
      2     -93.21542558331  -3.8914012E-06   6.2723129E-04
      3     -93.21542448496   1.0983512E-06   1.4705069E-04
      4     -93.21542530826  -8.2329709E-07   8.4612441E-05
      5     -93.21542605283  -7.4457738E-07   2.8322913E-05
      6     -93.21542610006  -4.7231524E-08   1.6994845E-05
------------------------------------------------------------

 total:                                   0.886 sec
 * total energy  :   -93.2154261 Eh     change       -0.2032508E-03 Eh
   gradient norm :     0.0118500 Eh/α   predicted    -0.2292017E-03 (  12.77%)
   displ. norm   :     0.2793453 α      lambda       -0.4365304E-03
   maximum displ.:     0.1865647 α      in ANC's #1, #2, #3, ...

........................................................................
.............................. CYCLE   38 ..............................
........................................................................
------------------------------------------------------------
  cycle        total energy    energy error   density error
------------------------------------------------------------
      1     -93.21561950215  -9.4732467E+01   8.7892304E-04
      2     -93.21562273402  -3.2318648E-06   5.1076100E-04
      3     -93.21561388595   8.8480677E-06   2.7211621E-04
      4     -93.21562314408  -9.2581260E-06   8.4800564E-05
      5     -93.21562400131  -8.5723015E-07   2.4202357E-05
      6     -93.21562401409  -1.2781911E-08   1.5476688E-05
------------------------------------------------------------

 total:                                   0.888 sec
 * total energy  :   -93.2156240 Eh     change       -0.1979140E-03 Eh
   gradient norm :     0.0111575 Eh/α   predicted    -0.2352976E-03 (  18.89%)
   displ. norm   :     0.3672893 α      lambda       -0.4871847E-03
   maximum displ.:     0.2500786 α      in ANC's #1, #18, #2, ...

........................................................................
.............................. CYCLE   39 ..............................
........................................................................
------------------------------------------------------------
  cycle        total energy    energy error   density error
------------------------------------------------------------
      1     -93.21581405386  -9.4724276E+01   1.0641566E-03
      2     -93.21582111473  -7.0608721E-06   6.1558292E-04
      3     -93.21581526897   5.8457616E-06   2.5791191E-04
      4     -93.21582199577  -6.7268009E-06   7.8713242E-05
      5     -93.21582276380  -7.6802904E-07   2.2857329E-05
      6     -93.21582276269   1.1069687E-09   1.2761041E-05
------------------------------------------------------------

 total:                                   0.700 sec
 * total energy  :   -93.2158228 Eh     change       -0.1987486E-03 Eh
   gradient norm :     0.0113254 Eh/α   predicted    -0.2764534E-03 (  39.10%)
   displ. norm   :     0.2848514 α      lambda       -0.6653799E-03
   maximum displ.:     0.1211046 α      in ANC's #6, #8, #20, ...

........................................................................
.............................. CYCLE   40 ..............................
........................................................................
------------------------------------------------------------
  cycle        total energy    energy error   density error
------------------------------------------------------------
      1     -93.21594497592  -9.4732412E+01   1.4136521E-03
      2     -93.21595562669  -1.0650777E-05   7.9780148E-04
      3     -93.21595043883   5.1878590E-06   2.6511843E-04
      4     -93.21595421080  -3.7719658E-06   1.5614743E-04
      5     -93.21595720411  -2.9933105E-06   4.4253979E-05
      6     -93.21595728973  -8.5623469E-08   2.6058382E-05
      7     -93.21595739012  -1.0039140E-07   7.3256001E-06
------------------------------------------------------------

 total:                                   1.156 sec
 * total energy  :   -93.2159574 Eh     change       -0.1346274E-03 Eh
   gradient norm :     0.0148063 Eh/α   predicted    -0.3596912E-03 ( 167.18%)
   displ. norm   :     0.2347936 α      lambda       -0.5949448E-03
   maximum displ.:     0.1323010 α      in ANC's #1, #18, #3, ...

........................................................................
.............................. CYCLE   41 ..............................
........................................................................
------------------------------------------------------------
  cycle        total energy    energy error   density error
------------------------------------------------------------
      1     -93.21629005100  -9.4733143E+01   9.1371993E-04
      2     -93.21629561659  -5.5655934E-06   5.2079514E-04
      3     -93.21629564103  -2.4442670E-08   1.2536328E-04
      4     -93.21629588121  -2.4017901E-07   4.1557619E-05
      5     -93.21629604382  -1.6260771E-07   2.0799925E-05
      6     -93.21629604324   5.7613647E-10   1.2082110E-05
------------------------------------------------------------

 total:                                   1.034 sec
 * total energy  :   -93.2162960 Eh     change       -0.3386531E-03 Eh
   gradient norm :     0.0093123 Eh/α   predicted    -0.3138736E-03 (  -7.32%)
   displ. norm   :     0.2545487 α      lambda       -0.2668941E-03
   maximum displ.:     0.1616859 α      in ANC's #1, #2, #3, ...

........................................................................
.............................. CYCLE   42 ..............................
........................................................................
------------------------------------------------------------
  cycle        total energy    energy error   density error
------------------------------------------------------------
      1     -93.21646164059  -9.4730443E+01   7.7572131E-04
      2     -93.21646262638  -9.8579343E-07   4.5659342E-04
      3     -93.21645432419   8.3021915E-06   2.5061967E-04
      4     -93.21646324717  -8.9229829E-06   4.4908092E-05
      5     -93.21646344930  -2.0212687E-07   1.5267788E-05
------------------------------------------------------------

 total:                                   0.690 sec
 * total energy  :   -93.2164634 Eh     change       -0.1674061E-03 Eh
   gradient norm :     0.0067133 Eh/α   predicted    -0.1420990E-03 ( -15.12%)
   displ. norm   :     0.2357411 α      lambda       -0.2393027E-03
   maximum displ.:     0.1113437 α      in ANC's #1, #2, #8, ...
 * RMSD in coord.:     0.7806455 α      energy gain  -0.3397145E-01 Eh

generating ANC from exact Hessian ...
Using Lindh-Hessian (1995)
 Shifting diagonal of input Hessian by    9.7765514138187307E-003
 Lowest  eigenvalues of input Hessian
    0.000000    0.000000    0.000000    0.000000    0.000000    0.000000
    0.010000    0.010149    0.010153    0.010313    0.010899    0.010907
    0.011132    0.011143    0.013107    0.014077    0.014347    0.014943
 Highest eigenvalues
    2.005622    2.030783    2.041896    2.178515    2.247785    2.265473


........................................................................
.............................. CYCLE   43 ..............................
........................................................................
------------------------------------------------------------
  cycle        total energy    energy error   density error
------------------------------------------------------------
      1     -93.21661555224  -9.4730409E+01   8.8723933E-04
      2     -93.21661762031  -2.0680656E-06   5.1350150E-04
      3     -93.21661566961   1.9506970E-06   1.4212783E-04
      4     -93.21661780329  -2.1336793E-06   5.7526363E-05
      5     -93.21661804910  -2.4580773E-07   2.9871576E-05
      6     -93.21661815430  -1.0520263E-07   1.0575990E-05
------------------------------------------------------------

 total:                                   0.771 sec
 * total energy  :   -93.2166182 Eh     change       -0.1547050E-03 Eh
   gradient norm :     0.0057947 Eh/α   predicted     0.0000000E+00 (-100.00%)
   displ. norm   :     0.0739108 α      lambda       -0.1555345E-03
   maximum displ.:     0.0285799 α      in ANC's #18, #21, #7, ...

........................................................................
.............................. CYCLE   44 ..............................
........................................................................
------------------------------------------------------------
  cycle        total energy    energy error   density error
------------------------------------------------------------
      1     -93.21673869510  -9.4731540E+01   3.4623605E-04
      2     -93.21673893581  -2.4070869E-07   2.0432237E-04
      3     -93.21673674828   2.1875273E-06   1.3266946E-04
      4     -93.21673915137  -2.4030842E-06   2.1503156E-05
      5     -93.21673919749  -4.6124768E-08   8.6371257E-06
------------------------------------------------------------

 total:                                   0.714 sec
 * total energy  :   -93.2167392 Eh     change       -0.1210432E-03 Eh
   gradient norm :     0.0020105 Eh/α   predicted    -0.7854294E-04 ( -35.11%)
   displ. norm   :     0.1834524 α      lambda       -0.2069487E-03
   maximum displ.:     0.0758510 α      in ANC's #18, #21, #7, ...

........................................................................
.............................. CYCLE   45 ..............................
........................................................................
------------------------------------------------------------
  cycle        total energy    energy error   density error
------------------------------------------------------------
      1     -93.21688668618  -9.4732377E+01   5.6770375E-04
      2     -93.21688703979  -3.5361504E-07   3.3993728E-04
      3     -93.21688437909   2.6607066E-06   1.3089443E-04
      4     -93.21688719810  -2.8190100E-06   3.1805759E-05
      5     -93.21688728787  -8.9775213E-08   1.2654881E-05
------------------------------------------------------------

 total:                                   0.699 sec
 * total energy  :   -93.2168873 Eh     change       -0.1480904E-03 Eh
   gradient norm :     0.0032414 Eh/α   predicted    -0.1069590E-03 ( -27.77%)
   displ. norm   :     0.2261985 α      lambda       -0.1565878E-03
   maximum displ.:     0.0987885 α      in ANC's #18, #21, #7, ...

........................................................................
.............................. CYCLE   46 ..............................
........................................................................
------------------------------------------------------------
  cycle        total energy    energy error   density error
------------------------------------------------------------
      1     -93.21699764579  -9.4731727E+01   6.3286386E-04
      2     -93.21699817954  -5.3375489E-07   3.7929652E-04
      3     -93.21699621237   1.9671720E-06   1.2372537E-04
      4     -93.21699836796  -2.1555895E-06   2.7232293E-05
      5     -93.21699842252  -5.4562676E-08   1.5025061E-05
------------------------------------------------------------

 total:                                   0.673 sec
 * total energy  :   -93.2169984 Eh     change       -0.1111347E-03 Eh
   gradient norm :     0.0045294 Eh/α   predicted    -0.8230418E-04 ( -25.94%)
   displ. norm   :     0.1947219 α      lambda       -0.1035853E-03
   maximum displ.:     0.0886464 α      in ANC's #18, #7, #21, ...

........................................................................
.............................. CYCLE   47 ..............................
........................................................................
------------------------------------------------------------
  cycle        total energy    energy error   density error
------------------------------------------------------------
      1     -93.21706491882  -9.4731233E+01   5.3447947E-04
      2     -93.21706486434   5.4480907E-08   3.2875069E-04
      3     -93.21705582318   9.0411586E-06   2.5960292E-04
      4     -93.21706589654  -1.0073363E-05   2.2245103E-05
      5     -93.21706593182  -3.5274482E-08   1.0280398E-05
------------------------------------------------------------

 total:                                   0.491 sec
 * total energy  :   -93.2170659 Eh     change       -0.6750929E-04 Eh
   gradient norm :     0.0036539 Eh/α   predicted    -0.5375877E-04 ( -20.37%)
   displ. norm   :     0.0940573 α      lambda       -0.5688844E-04
   maximum displ.:     0.0403671 α      in ANC's #18, #6, #3, ...

........................................................................
.............................. CYCLE   48 ..............................
........................................................................
------------------------------------------------------------
  cycle        total energy    energy error   density error
------------------------------------------------------------
      1     -93.21710451011  -9.4732136E+01   2.8495264E-04
      2     -93.21710469758  -1.8746867E-07   1.6997626E-04
      3     -93.21710406835   6.2923031E-07   7.5667198E-05
      4     -93.21710477197  -7.0362451E-07   1.5935717E-05
------------------------------------------------------------

 total:                                   0.603 sec
 * total energy  :   -93.2171048 Eh     change       -0.3884016E-04 Eh
   gradient norm :     0.0015653 Eh/α   predicted    -0.2869728E-04 ( -26.11%)
   displ. norm   :     0.1527411 α      lambda       -0.3282025E-04
   maximum displ.:     0.0684968 α      in ANC's #6, #18, #3, ...

........................................................................
.............................. CYCLE   49 ..............................
........................................................................
------------------------------------------------------------
  cycle        total energy    energy error   density error
------------------------------------------------------------
      1     -93.21713544479  -9.4732434E+01   4.0113183E-04
      2     -93.21713519326   2.5153470E-07   2.4926557E-04
      3     -93.21712960614   5.5871167E-06   2.1570544E-04
      4     -93.21713616321  -6.5570692E-06   1.6021475E-05
      5     -93.21713619388  -3.0669000E-08   6.7034769E-06
------------------------------------------------------------

 total:                                   0.654 sec
 * total energy  :   -93.2171362 Eh     change       -0.3142190E-04 Eh
   gradient norm :     0.0020577 Eh/α   predicted    -0.1658316E-04 ( -47.22%)
   displ. norm   :     0.0697192 α      lambda       -0.2155180E-04
   maximum displ.:     0.0314274 α      in ANC's #3, #6, #4, ...

........................................................................
.............................. CYCLE   50 ..............................
........................................................................
------------------------------------------------------------
  cycle        total energy    energy error   density error
------------------------------------------------------------
      1     -93.21715406934  -9.4732625E+01   1.8844246E-04
      2     -93.21715410743  -3.8088231E-08   1.1151370E-04
      3     -93.21715387913   2.2829694E-07   3.9159991E-05
      4     -93.21715413535  -2.5621421E-07   5.5569428E-06
------------------------------------------------------------

 total:                                   0.607 sec
 * total energy  :   -93.2171541 Eh     change       -0.1794147E-04 Eh
   gradient norm :     0.0015578 Eh/α   predicted    -0.1085824E-04 ( -39.48%)
   displ. norm   :     0.2304896 α      lambda       -0.3409366E-04
   maximum displ.:     0.1057583 α      in ANC's #3, #6, #4, ...

........................................................................
.............................. CYCLE   51 ..............................
........................................................................
------------------------------------------------------------
  cycle        total energy    energy error   density error
------------------------------------------------------------
      1     -93.21717737934  -9.4731736E+01   6.0587735E-04
      2     -93.21717757745  -1.9810065E-07   3.5904359E-04
      3     -93.21717682735   7.5009092E-07   7.2752913E-05
      4     -93.21717764143  -8.1407394E-07   1.9288885E-05
------------------------------------------------------------

 total:                                   0.460 sec
 * total energy  :   -93.2171776 Eh     change       -0.2350608E-04 Eh
   gradient norm :     0.0015232 Eh/α   predicted    -0.1746931E-04 ( -25.68%)
   displ. norm   :     0.0547312 α      lambda       -0.1172994E-04
   maximum displ.:     0.0231665 α      in ANC's #21, #7, #3, ...

........................................................................
.............................. CYCLE   52 ..............................
........................................................................
------------------------------------------------------------
  cycle        total energy    energy error   density error
------------------------------------------------------------
      1     -93.21718580235  -9.4733116E+01   2.1014021E-04
      2     -93.21718554264   2.5971133E-07   1.4181178E-04
      3     -93.21718558335  -4.0707079E-08   1.1275224E-04
      4     -93.21718674006  -1.1567137E-06   1.1828310E-05
      5     -93.21718674671  -6.6476389E-09   4.2274236E-06
------------------------------------------------------------

 total:                                   0.674 sec
 * total energy  :   -93.2171867 Eh     change       -0.9105282E-05 Eh
   gradient norm :     0.0017695 Eh/α   predicted    -0.5875086E-05 ( -35.48%)
   displ. norm   :     0.0701316 α      lambda       -0.1406848E-04
   maximum displ.:     0.0376603 α      in ANC's #3, #4, #2, ...

........................................................................
.............................. CYCLE   53 ..............................
........................................................................
------------------------------------------------------------
  cycle        total energy    energy error   density error
------------------------------------------------------------
      1     -93.21720214840  -9.4733292E+01   2.2039593E-04
      2     -93.21720222454  -7.6133404E-08   1.2907705E-04
      3     -93.21720212011   1.0442966E-07   2.8666160E-05
      4     -93.21720223754  -1.1743285E-07   9.5431312E-06
------------------------------------------------------------

 total:                                   0.512 sec
 * total energy  :   -93.2172022 Eh     change       -0.1549083E-04 Eh
   gradient norm :     0.0010060 Eh/α   predicted    -0.7058770E-05 ( -54.43%)
   displ. norm   :     0.1267818 α      lambda       -0.1403173E-04
   maximum displ.:     0.0722857 α      in ANC's #3, #4, #2, ...

........................................................................
.............................. CYCLE   54 ..............................
........................................................................
------------------------------------------------------------
  cycle        total energy    energy error   density error
------------------------------------------------------------
      1     -93.21721739640  -9.4732683E+01   3.4375416E-04
      2     -93.21721738493   1.1476644E-08   2.0594971E-04
      3     -93.21721423012   3.1548095E-06   1.4921428E-04
      4     -93.21721769279  -3.4626733E-06   1.3249551E-05
      5     -93.21721770705  -1.4254226E-08   7.0324435E-06
------------------------------------------------------------

 total:                                   0.719 sec
 * total energy  :   -93.2172177 Eh     change       -0.1546951E-04 Eh
   gradient norm :     0.0008749 Eh/α   predicted    -0.7073228E-05 ( -54.28%)
   displ. norm   :     0.1211211 α      lambda       -0.9666884E-05
   maximum displ.:     0.0728939 α      in ANC's #3, #4, #2, ...

........................................................................
.............................. CYCLE   55 ..............................
........................................................................
------------------------------------------------------------
  cycle        total energy    energy error   density error
------------------------------------------------------------
      1     -93.21722910590  -9.4732450E+01   2.8552646E-04
      2     -93.21722915664  -5.0738180E-08   1.6899584E-04
      3     -93.21722867963   4.7701000E-07   5.7869026E-05
      4     -93.21722920046  -5.2083078E-07   1.0541557E-05
------------------------------------------------------------

 total:                                   0.506 sec
 * total energy  :   -93.2172292 Eh     change       -0.1149341E-04 Eh
   gradient norm :     0.0007145 Eh/α   predicted    -0.4869814E-05 ( -57.63%)
   displ. norm   :     0.1201771 α      lambda       -0.8934613E-05
   maximum displ.:     0.0745807 α      in ANC's #3, #4, #2, ...

........................................................................
.............................. CYCLE   56 ..............................
........................................................................
------------------------------------------------------------
  cycle        total energy    energy error   density error
------------------------------------------------------------
      1     -93.21724009776  -9.4732362E+01   2.5667544E-04
      2     -93.21723999476   1.0299122E-07   1.5621478E-04
      3     -93.21723766160   2.3331659E-06   1.3711974E-04
      4     -93.21724034382  -2.6822245E-06   6.3890291E-06
      5     -93.21724034547  -1.6485444E-09   3.6179549E-06
------------------------------------------------------------

 total:                                   0.768 sec
 * total energy  :   -93.2172403 Eh     change       -0.1114501E-04 Eh
   gradient norm :     0.0005832 Eh/α   predicted    -0.4497878E-05 ( -59.64%)
[...]
    28   6 C       49   1 H                                       1.0881929
    28   6 C       50   1 H                                       1.0868861
    28   6 C       51   1 H                                       1.0879779
    30   6 C       52   1 H                                       1.0859335
    30   6 C       53   1 H                                       1.0882711
    30   6 C       54   1 H                                       1.0864245
    29   6 C       55   1 H                                       1.0875460
    29   6 C       56   1 H                                       1.0888032
    29   6 C       57   1 H                                       1.0871887
    27   6 C       58   1 H                                       1.0879848
    27   6 C       59   1 H                                       1.0858664
    27   6 C       60   1 H                                       1.0878589
    26   6 C       61   1 H                                       1.0878532
    26   6 C       62   1 H                                       1.0875981
    26   6 C       63   1 H                                       1.0858752
    25   6 C       64   1 H                                       1.0874930
    25   6 C       65   1 H                                       1.0874495
    25   6 C       66   1 H                                       1.0881229
     2   6 C       67   8 O                                       1.3723721
    18   6 C       67   8 O                                       1.3708792
    68   6 C       69   6 C                                       1.3825998
    69   6 C       70   6 C                                       1.3988178
    70   6 C       71   6 C                                       1.4191746
    71   6 C       72   6 C                                       1.4070560
    68   6 C       73   6 C                                       1.4071328
    72   6 C       73   6 C                                       1.3824520
    70   6 C       74   6 C                                       1.4021062
    74   6 C       75   6 C                                       1.3836584
    75   6 C       76   6 C                                       1.4205557
    71   6 C       77   7 N                                       1.3443494
    76   6 C       77   7 N                                       1.3376175
    74   6 C       78   6 C                                       1.4017887
    78   6 C       79   6 C                                       1.4190844
    79   6 C       80   7 N                                       1.3457923
    75   6 C       81   6 C                                       1.4193913
    80   7 N       81   6 C                                       1.3383906
    81   6 C       82   6 C                                       1.4142432
    82   6 C       83   6 C                                       1.3917752
    76   6 C       84   6 C                                       1.4105737
    83   6 C       84   6 C                                       1.3947813
    78   6 C       85   6 C                                       1.4000425
    85   6 C       86   6 C                                       1.3808948
    86   6 C       87   6 C                                       1.4091044
    79   6 C       88   6 C                                       1.4091191
    87   6 C       88   6 C                                       1.3817639
    90   6 C       92   6 C                                       1.5326527
    90   6 C       93   6 C                                       1.5381584 (max)
    90   6 C       94   6 C                                       1.5325179
    91   6 C       95   6 C                                       1.5349146
    91   6 C       96   6 C                                       1.5361708
    91   6 C       97   6 C                                       1.5312733
    89   6 C       98   6 C                                       1.5312341
    89   6 C       99   6 C                                       1.5365360
    89   6 C      100   6 C                                       1.5349757
    72   6 C      101   1 H                                       1.0771436
    68   6 C      102   1 H                                       1.0758206 (min)
    84   6 C      103   1 H                                       1.0776852
    82   6 C      104   1 H                                       1.0761224
    88   6 C      105   1 H                                       1.0758209
    86   6 C      106   1 H                                       1.0765920
   100   6 C      107   1 H                                       1.0869826
   100   6 C      108   1 H                                       1.0879364
   100   6 C      109   1 H                                       1.0854722
    99   6 C      110   1 H                                       1.0878716
    99   6 C      111   1 H                                       1.0864464
    99   6 C      112   1 H                                       1.0880930
    98   6 C      113   1 H                                       1.0873190
    98   6 C      114   1 H                                       1.0881568
    98   6 C      115   1 H                                       1.0865085
    95   6 C      116   1 H                                       1.0857436
    95   6 C      117   1 H                                       1.0872123
    95   6 C      118   1 H                                       1.0879276
    97   6 C      119   1 H                                       1.0866823
    97   6 C      120   1 H                                       1.0881470
    97   6 C      121   1 H                                       1.0872406
    96   6 C      122   1 H                                       1.0866691
    96   6 C      123   1 H                                       1.0878614
    96   6 C      124   1 H                                       1.0881913
    94   6 C      125   1 H                                       1.0866315
    94   6 C      126   1 H                                       1.0861542
    94   6 C      127   1 H                                       1.0878978
Note: The following floating-point exceptions are signalling: IEEE_UNDERFLOW_FLAG
normal termination of xtb
    93   6 C      128   1 H                                       1.0878747
    93   6 C      129   1 H                                       1.0879346
    93   6 C      130   1 H                                       1.0876720
    92   6 C      131   1 H                                       1.0865284
    92   6 C      132   1 H                                       1.0863422
    92   6 C      133   1 H                                       1.0882542
    69   6 C      134   8 O                                       1.3726899
    85   6 C      134   8 O                                       1.3736167

 * 4 distinct bonds (by element types)

   Z      Z             #   av. dist./Å        max./Å        min./Å
   1 H    6 C          66     1.0853856     1.0888032     1.0758206
   6 C    6 C          60     1.4412374     1.5381584     1.3774008
   6 C    7 N           8     1.3417534     1.3462678     1.3376157
   6 C    8 O           4     1.3723895     1.3736167     1.3708792


optimized geometry written to: xtbopt.mol


           -------------------------------------------------
          | TOTAL ENERGY             -186.468543577176 Eh   |
          | GRADIENT NORM               0.000099281451 Eh/α |
           -------------------------------------------------

------------------------------------------------------------------------
 * finished run on 2025/02/28 at 12:29:02.447     
------------------------------------------------------------------------
 total:
 * wall-time:     0 d,  0 h,  2 min,  0.079 sec
 *  cpu-time:     0 d,  0 h,  6 min, 21.140 sec
 * ratio c/w:     3.174 speedup
 SCF:
 * wall-time:     0 d,  0 h,  0 min,  2.153 sec
 *  cpu-time:     0 d,  0 h,  0 min,  7.812 sec
 * ratio c/w:     3.629 speedup
 ANC optimizer:
 * wall-time:     0 d,  0 h,  1 min, 57.906 sec
 *  cpu-time:     0 d,  0 h,  6 min, 13.324 sec
 * ratio c/w:     3.166 speedup

      -----------------------------------------------------------      
     |                   =====================                   |     
     |                           x T B                           |     
     |                   =====================                   |     
     |                         S. Grimme                         |     
     |          Mulliken Center for Theoretical Chemistry        |     
     |                    University of Bonn                     |     
      -----------------------------------------------------------      

   * xtb version 6.7.1 (edcfbbe) compiled by 'runner@Mac-1732539442253.local' on 2024-11-25

   xtb is free software: you can redistribute it and/or modify it under
   the terms of the GNU Lesser General Public License as published by
   the Free Software Foundation, either version 3 of the License, or
   (at your option) any later version.
   
   xtb is distributed in the hope that it will be useful,
   but WITHOUT ANY WARRANTY; without even the implied warranty of
   MERCHANTABILITY or FITNESS FOR A PARTICULAR PURPOSE.  See the
   GNU Lesser General Public License for more details.
   
   Cite this work as:
   * C. Bannwarth, E. Caldeweyher, S. Ehlert, A. Hansen, P. Pracht,
     J. Seibert, S. Spicher, S. Grimme, WIREs Comput. Mol. Sci., 2020, 11,
     e01493. DOI: 10.1002/wcms.1493
   
   for GFN2-xTB:
   * C. Bannwarth, S. Ehlert and S. Grimme., J. Chem. Theory Comput., 2019,
     15, 1652-1671. DOI: 10.1021/acs.jctc.8b01176
   for GFN1-xTB:
   * S. Grimme, C. Bannwarth, P. Shushkov, J. Chem. Theory Comput., 2017,
     13, 1989-2009. DOI: 10.1021/acs.jctc.7b00118
   for GFN0-xTB:
   * P. Pracht, E. Caldeweyher, S. Ehlert, S. Grimme, ChemRxiv, 2019, preprint.
     DOI: 10.26434/chemrxiv.8326202.v1
   for GFN-FF:
   * S. Spicher and S. Grimme, Angew. Chem. Int. Ed., 2020, 59, 15665-15673.
     DOI: 10.1002/anie.202004239
   
   for ALPB and GBSA implicit solvation:
   * S. Ehlert, M. Stahn, S. Spicher, S. Grimme, J. Chem. Theory Comput.,
     2021, 17, 4250-4261. DOI: 10.1021/acs.jctc.1c00471
   
   for ddCOSMO and CPCM-X implicit solvation:
   * M. Stahn, S. Ehlert, S. Grimme, J. Phys. Chem. A,
     2023, XX, XXXX-XXXX. DOI: 10.1021/acs.jpca.3c04382
   
   for DFT-D4:
   * E. Caldeweyher, C. Bannwarth and S. Grimme, J. Chem. Phys., 2017,
     147, 034112. DOI: 10.1063/1.4993215
   * E. Caldeweyher, S. Ehlert, A. Hansen, H. Neugebauer, S. Spicher,
     C. Bannwarth and S. Grimme, J. Chem. Phys., 2019, 150, 154122.
     DOI: 10.1063/1.5090222
   * E. Caldeweyher, J.-M. Mewes, S. Ehlert and S. Grimme, Phys. Chem. Chem. Phys.
     2020, 22, 8499-8512. DOI: 10.1039/D0CP00502A
   
   for sTDA-xTB:
   * S. Grimme and C. Bannwarth, J. Chem. Phys., 2016, 145, 054103.
     DOI: 10.1063/1.4959605
   
   in the mass-spec context:
   * V. Asgeirsson, C. Bauer and S. Grimme, Chem. Sci., 2017, 8, 4879.
     DOI: 10.1039/c7sc00601b
   * J. Koopman and S. Grimme, ACS Omega 2019, 4, 12, 15120-15133.
     DOI: 10.1021/acsomega.9b02011
   
   for metadynamics refer to:
   * S. Grimme, J. Chem. Theory Comput., 2019, 155, 2847-2862
     DOI: 10.1021/acs.jctc.9b00143
   
   for SPH calculations refer to:
   * S. Spicher and S. Grimme, J. Chem. Theory Comput., 2021, 17, 1701-1714
     DOI: 10.1021/acs.jctc.0c01306
   
   for ONIOM refer to:
   * C. Plett, A. Katbashev, S. Ehlert, S. Grimme, M. Bursch,
     Phys. Chem. Chem. Phys., 2023, 25, 17860-17868. DOI: 10.1039/D3CP02178E
   
   for DIPRO refer to:
   * J. Kohn, N. Gildemeister, S. Grimme, D. Fazzi, A. Hansen,
     J. Chem. Phys., 2023, just accepted.
   
   for PTB refer to:
   * S. Grimme, M. Mueller, A. Hansen, J. Chem. Phys., 2023, 158, 124111.
     DOI: 10.1063/5.0137838
   
   with help from (in alphabetical order)
   P. Atkinson, C. Bannwarth, F. Bohle, G. Brandenburg, E. Caldeweyher
   M. Checinski, S. Dohm, S. Ehlert, S. Ehrlich, I. Gerasimov, C. Hölzer
   A. Katbashev, J. Kohn, J. Koopman, C. Lavigne, S. Lehtola, F. März, M. Müller,
   F. Musil, H. Neugebauer, J. Pisarek, C. Plett, P. Pracht, F. Pultar,
   J. Seibert, P. Shushkov, S. Spicher, M. Stahn, M. Steiner, T. Strunk,
   J. Stückrath, T. Rose, and J. Unsleber
   
 * started run on 2025/02/28 at 12:29:02.611     
   ID    Z sym.   atoms
    1    6 C      1-9, 11, 12, 14-33, 68-76, 78, 79, 81-100
    2    7 N      10, 13, 77, 80
    3    1 H      34-66, 101-133
    4    8 O      67, 134

           -------------------------------------------------
          |                Calculation Setup                |
           -------------------------------------------------

          program call               : xtb opt_dimer.mol --dipro 0.3 --chrg 0 --uhf 2 --spinpol --tblite
          coordinate file            : opt_dimer.mol
          omp threads                :                     8


molecular fragmentation (1/2 indicates fragments):
111111111111111111111111111111111111111111111111111111111111111111122222
22222222222222222222222222222222222222222222222222222222222222
# atoms in fragment 1/2:    67    67
 fragment masses (1/2) :      449.61      449.61
CMA distance (Bohr)    :   9.191
constraining FC (au)   :  0.0500
Wavefunction read from restart file
           -------------------------------------------------
          |                    D I P R O                    |
           -------------------------------------------------
Calculation for dimer 
--------------------- 
  
charge of dimer :   0.
unpaired e- of dimer :  2
repulsion energy          3.0339748255883E+00 Eh
dispersion energy         9.8554182502441E-03 Eh
number of electrons       3.4600000000000E+02 e
integral cutoff           1.7347787504999E+01 bohr

------------------------------------------------------------
  cycle        total energy    energy error   density error
------------------------------------------------------------
      1     -186.0636578178  -1.8910749E+02   1.2425160E-01
      2     -186.3499363735  -2.8627856E-01   6.6991143E-02
      3     -186.3012125610   4.8723812E-02   4.0910267E-02
      4     -186.3914346426  -9.0222082E-02   1.9587400E-02
      5     -186.4611638608  -6.9729218E-02   5.2977205E-03
      6     -186.4629445631  -1.7807023E-03   2.9475309E-03
      7     -186.4637124366  -7.6787353E-04   1.7245408E-03
      8     -186.4641413520  -4.2891532E-04   7.4779155E-04
      9     -186.4642021229  -6.0770904E-05   2.9943317E-04
     10     -186.4642124468  -1.0323907E-05   1.3469728E-04
     11     -186.4642156752  -3.2283987E-06   4.8284745E-05
     12     -186.4642160279  -3.5277114E-07   2.0200936E-05
     13     -186.4642160477  -1.9733022E-08   9.6814614E-06
------------------------------------------------------------

electronic energy        -1.8950804629152E+02 Eh
total energy             -1.8646421604768E+02 Eh

 total:                                   3.205 sec
 - repulsion                              0.000 sec (  0%)
 - dispersion                             0.007 sec (  0%)
 - coulomb                                0.003 sec (  0%)
 - hamiltonian                            0.007 sec (  0%)
 - scc                                    3.188 sec ( 99%)

Found 2 fragments!
Fragment 1:  1-67
Fragment 2:  68-134

[Info] Fragment spin read from .UHFfrag
Calculation for fragment 1
 ------------------------------
   
charge of fragment :   0.
unpaired e- of fragment :  1
------------------------------------------------------------
  cycle        total energy    energy error   density error
------------------------------------------------------------
      1     -93.01138914950  -9.4529002E+01   1.2334837E-01
      2     -93.16073744025  -1.4934829E-01   6.6324882E-02
      3     -93.15826736628   2.4700740E-03   3.9358044E-02
      4     -93.20161852157  -4.3351155E-02   1.4381114E-02
      5     -93.21351286914  -1.1894348E-02   3.5099342E-03
      6     -93.21368007839  -1.6720925E-04   2.0549251E-03
      7     -93.21390331332  -2.2323493E-04   1.0111093E-03
      8     -93.21394669083  -4.3377508E-05   4.9971170E-04
      9     -93.21396347011  -1.6779282E-05   1.7895220E-04
     10     -93.21396522315  -1.7530414E-06   6.0842859E-05
     11     -93.21396535979  -1.3663644E-07   2.4387620E-05
     12     -93.21396537511  -1.5321447E-08   1.1088399E-05
------------------------------------------------------------

 total:                                   0.833 sec
Calculation for fragment 2
 ------------------------------
   
charge of fragment :   0.
unpaired e- of fragment :  1
------------------------------------------------------------
  cycle        total energy    energy error   density error
------------------------------------------------------------
      1     -93.00860231752  -9.4523973E+01   1.2515121E-01
      2     -93.15749528507  -1.4889297E-01   6.7564849E-02
      3     -93.15342118688   4.0740982E-03   4.0194966E-02
      4     -93.19914477010  -4.5723583E-02   1.4434928E-02
      5     -93.21098122061  -1.1836451E-02   3.4641509E-03
      6     -93.21119999436  -2.1877375E-04   1.7627459E-03
      7     -93.21136004749  -1.6005313E-04   7.4661894E-04
      8     -93.21137976615  -1.9718660E-05   2.8747093E-04
      9     -93.21138160904  -1.8428906E-06   1.2241825E-04
     10     -93.21138203719  -4.2814975E-07   7.4918064E-05
     11     -93.21138248235  -4.4516413E-07   2.8139669E-05
     12     -93.21138252228  -3.9920948E-08   1.1301211E-05
------------------------------------------------------------

 total:                                   0.739 sec
   
   ::::::::::::::::::::::::::::::::::::::::::::::
   ::     D I P R O      C O U P L I N G S     ::
   ::::::::::::::::::::::::::::::::::::::::::::::
   
energy threshhold for near-degenerate orbitals near HOMO and LUMO considered for DIPRO:  0.300 eV
no. of orbitals within energy window of frag 1         2
no. of orbitals within energy window of frag 2         2
   
  Fragment 1 SOMO   Fragment 2 SOMO 
--------------------------------------
E_mon(orb) frag1 frag2              -9.535    -9.514 eV
J(AB):                0.003 eV
S(AB):            -0.00010279 Eh
|J(AB,eff)|:            0.002 eV
   
  Fragment 1 SOMO   Fragment 2 LUMO 
--------------------------------------
E_mon(orb) frag1 frag2              -9.535    -9.243 eV
J(AB):                0.009 eV
S(AB):            -0.00037255 Eh
|J(AB,eff)|:            0.006 eV
   
  Fragment 1 LUMO   Fragment 2 SOMO 
--------------------------------------
E_mon(orb) frag1 frag2              -9.244    -9.514 eV
J(AB):                0.006 eV
S(AB):            -0.00020547 Eh
|J(AB,eff)|:            0.004 eV
   
  Fragment 1 LUMO   Fragment 2 LUMO 
--------------------------------------
E_mon(orb) frag1 frag2              -9.244    -9.243 eV
J(AB):               -0.001 eV
S(AB):            -0.00013239 Eh
|J(AB,eff)|:            0.002 eV
   
..............................................................................
:  total |J(AB,eff)| for hole transport (occ. MOs) :               0.002 eV  :
:  total |J(AB,eff)| for charge transport (unocc. MOs) :           0.002 eV  :
:  total |J(AB,eff)| for charge transfer (CT) :                    0.007 eV  :
..............................................................................
  
 Please remember, DIPRO is not available for restart!
   
normal termination of dipro
----------------------------------------------------------
 * finished run on 2025/02/28 at 12:29:07.438     
----------------------------------------------------------
 dipro:
 * wall-time:     0 d,  0 h,  0 min,  4.799 sec
 *  cpu-time:     0 d,  0 h,  0 min, 23.130 sec
 * ratio c/w:     4.820 speedup
Reorganization energy (electron): 0.062329523652750886 eV
Reorganization energy (hole): 0.04768500826705546 eV
Electron Transfer integral J: 0.002 eV
Hole Transfer integral J: 0.002 eV
