134
 energy: -186.424466868013 gnorm: 0.085567524900 xtb: 6.7.1 (edcfbbe)
C           -1.02190000000000        1.91400000000000       -0.00890000000000
C           -1.09520000000000        0.52580000000000        0.03850000000000
C            0.11990000000000       -0.19180000000000        0.08860000000000
C            1.37770000000000        0.45330000000000        0.08880000000000
C            1.37170000000000        1.85650000000000        0.03990000000000
C            0.19860000000000        2.58940000000000       -0.01880000000000
C            0.07990000000000       -1.58530000000000        0.10800000000000
C            1.26590000000000       -2.30240000000000        0.11720000000000
C            2.49290000000000       -1.59200000000000        0.11250000000000
N            2.54960000000000       -0.23510000000000        0.10560000000000
C           -1.13530000000000       -2.26750000000000        0.07160000000000
C           -1.12220000000000       -3.68090000000000        0.05460000000000
N            0.03170000000000       -4.39910000000000        0.07490000000000
C            1.20730000000000       -3.71910000000000        0.09780000000000
C            2.42900000000000       -4.40630000000000        0.07290000000000
C            3.65130000000000       -3.74460000000000        0.05880000000000
C            3.66760000000000       -2.35580000000000        0.08540000000000
C           -2.33460000000000       -1.52420000000000        0.01840000000000
C           -3.52920000000000       -2.23310000000000       -0.05480000000000
C           -3.56000000000000       -3.62740000000000       -0.08680000000000
C           -2.36690000000000       -4.32670000000000       -0.01960000000000
C            0.27570000000000        4.12110000000000       -0.10960000000000
C           -4.87830000000000       -4.40510000000000       -0.22080000000000
C            4.98520000000000       -4.50410000000000       -0.01620000000000
C           -6.09020000000000       -3.46110000000000       -0.34090000000000
C           -5.07500000000000       -5.28900000000000        1.02170000000000
C           -4.82380000000000       -5.28530000000000       -1.48310000000000
C            5.71740000000000       -4.11580000000000       -1.31360000000000
C            5.85110000000000       -4.13280000000000        1.19990000000000
C            4.77690000000000       -6.03080000000000       -0.01280000000000
C           -1.12230000000000        4.75900000000000       -0.22430000000000
C            0.95550000000000        4.66890000000000        1.15620000000000
C            1.09190000000000        4.51810000000000       -1.35350000000000
H            2.32070000000000        2.35900000000000        0.03740000000000
H           -1.94830000000000        2.45360000000000       -0.04920000000000
H            4.60350000000000       -1.82940000000000        0.06990000000000
H            2.38810000000000       -5.47850000000000        0.05210000000000
H           -2.37080000000000       -5.40040000000000       -0.03860000000000
H           -4.43660000000000       -1.66270000000000       -0.09940000000000
H            0.63860000000000        4.11000000000000       -2.25640000000000
H            1.13910000000000        5.60150000000000       -1.45950000000000
H            2.11340000000000        4.14560000000000       -1.29440000000000
H            1.02410000000000        5.75590000000000        1.12500000000000
H            1.96360000000000        4.27250000000000        1.26960000000000
H            0.38310000000000        4.39120000000000        2.03970000000000
H           -1.73070000000000        4.53130000000000        0.65040000000000
H           -1.04690000000000        5.84360000000000       -0.29850000000000
H           -1.64370000000000        4.40330000000000       -1.11240000000000
H            5.93590000000000       -3.04920000000000       -1.34090000000000
H            5.10820000000000       -4.35450000000000       -2.18480000000000
H            6.66160000000000       -4.65200000000000       -1.40430000000000
H            4.19010000000000       -6.34920000000000       -0.87400000000000
H            5.73340000000000       -6.55110000000000       -0.05690000000000
H            4.26720000000000       -6.35490000000000        0.89410000000000
H            6.07690000000000       -3.06770000000000        1.21950000000000
H            6.79660000000000       -4.67420000000000        1.18760000000000
H            5.32980000000000       -4.38220000000000        2.12220000000000
H           -4.65380000000000       -4.67490000000000       -2.36960000000000
H           -4.02050000000000       -6.01800000000000       -1.42240000000000
H           -5.75860000000000       -5.82790000000000       -1.62090000000000
H           -6.00040000000000       -5.86030000000000        0.95350000000000
H           -5.12480000000000       -4.67180000000000        1.91690000000000
H           -4.25390000000000       -5.99420000000000        1.14300000000000
H           -6.18910000000000       -2.83450000000000        0.54510000000000
H           -5.99960000000000       -2.81600000000000       -1.21420000000000
H           -7.01380000000000       -4.02990000000000       -0.44550000000000
O           -2.32150000000000       -0.13230000000000        0.01710000000000
C           -1.03750000000000        1.91700000000000        6.12330000000000
C           -1.10790000000000        0.52800000000000        6.08530000000000
C            0.10890000000000       -0.18810000000000        6.09800000000000
C            1.36460000000000        0.45830000000000        6.15520000000000
C            1.35540000000000        1.86150000000000        6.19750000000000
C            0.18100000000000        2.59420000000000        6.18130000000000
C            0.07190000000000       -1.58170000000000        6.08400000000000
C            1.25830000000000       -2.29690000000000        6.12880000000000
C            2.48280000000000       -1.58460000000000        6.18390000000000
N            2.53710000000000       -0.22790000000000        6.19370000000000
C           -1.14250000000000       -2.26600000000000        6.06510000000000
C           -1.12720000000000       -3.67920000000000        6.08900000000000
N            0.02730000000000       -4.39540000000000        6.12530000000000
C            1.20140000000000       -3.71360000000000        6.14790000000000
C            2.42230000000000       -4.39870000000000        6.22050000000000
C            3.64210000000000       -3.73510000000000        6.28050000000000
C            3.65680000000000       -2.34620000000000        6.25800000000000
C           -2.34430000000000       -1.52490000000000        6.05280000000000
C           -3.53940000000000       -2.23710000000000        6.05650000000000
C           -3.56880000000000       -3.63180000000000        6.08080000000000
C           -2.37220000000000       -4.32770000000000        6.09850000000000
C            0.25270000000000        4.12580000000000        6.27760000000000
C           -4.89060000000000       -4.41310000000000        6.13290000000000
C            4.97260000000000       -4.49240000000000        6.41240000000000
C           -6.10880000000000       -3.48590000000000        5.95810000000000
C           -5.00300000000000       -5.12170000000000        7.49400000000000
C           -4.91520000000000       -5.45780000000000        5.00250000000000
C            5.90770000000000       -4.09080000000000        5.25820000000000
C            5.62620000000000       -4.13190000000000        7.75850000000000
C            4.77010000000000       -6.01910000000000        6.36010000000000
C           -1.13490000000000        4.77380000000000        6.10740000000000
C            0.81200000000000        4.51630000000000        7.65680000000000
C            1.17620000000000        4.66960000000000        5.17240000000000
H            2.30250000000000        2.36350000000000        6.26020000000000
H           -1.96510000000000        2.45600000000000        6.11830000000000
H            4.59010000000000       -1.81800000000000        6.31400000000000
H            2.38210000000000       -5.47090000000000        6.24020000000000
H           -2.37400000000000       -5.40090000000000        6.13560000000000
H           -4.44950000000000       -1.66910000000000        6.05060000000000
H            0.82370000000000        4.35100000000000        4.19350000000000
H            1.20200000000000        5.75890000000000        5.18550000000000
H            2.19800000000000        4.31300000000000        5.29210000000000
H            0.86840000000000        5.59930000000000        7.76320000000000
H            1.81290000000000        4.11260000000000        7.80390000000000
H            0.17610000000000        4.13070000000000        8.45310000000000
H           -1.81300000000000        4.46720000000000        6.90310000000000
H           -1.06080000000000        5.86050000000000        6.14230000000000
H           -1.57820000000000        4.50270000000000        5.14960000000000
H            6.13540000000000       -3.02620000000000        5.27940000000000
H            5.44240000000000       -4.31490000000000        4.30040000000000
H            6.85080000000000       -4.63410000000000        5.31160000000000
H            4.30540000000000       -6.32050000000000        5.42170000000000
H            5.72510000000000       -6.53810000000000        6.43710000000000
H            4.14400000000000       -6.36110000000000        7.18360000000000
H            5.83590000000000       -3.06500000000000        7.82240000000000
H            6.56660000000000       -4.66580000000000        7.89140000000000
H            4.96870000000000       -4.39320000000000        8.58710000000000
H           -4.76710000000000       -4.97480000000000        4.03890000000000
H           -4.13030000000000       -6.20210000000000        5.12700000000000
H           -5.86920000000000       -5.98370000000000        4.97620000000000
H           -5.93500000000000       -5.68140000000000        7.56710000000000
H           -4.97810000000000       -4.39780000000000        8.30800000000000
H           -4.18030000000000       -5.81990000000000        7.64290000000000
H           -6.17220000000000       -2.76170000000000        6.76960000000000
H           -6.05620000000000       -2.94520000000000        5.01340000000000
H           -7.03500000000000       -4.06000000000000        5.95990000000000
O           -2.33300000000000       -0.13270000000000        6.05360000000000
134
 energy: -186.432033926051 gnorm: 0.038784072494 xtb: 6.7.1 (edcfbbe)
C           -1.03420972272533        1.90458665173652       -0.01199506150996
C           -1.09111109635922        0.52112013093872        0.03840624277276
C            0.11849121939913       -0.18882351306743        0.08794476022634
C            1.38071136483491        0.45511393317081        0.08762884433406
C            1.37607133705570        1.86053698510043        0.03875679076613
C            0.19515817507956        2.58248957428576       -0.02115788071016
C            0.08422666182359       -1.58724056504401        0.10783042662179
C            1.26955000930023       -2.30375676244816        0.11772904811642
C            2.49454987495856       -1.58720566931071        0.11185283368192
N            2.54037365721155       -0.23984011375860        0.10521624113041
C           -1.13823418549869       -2.26670162180484        0.07068732526643
C           -1.12238633475912       -3.68332456396817        0.05285204337615
N            0.03172643462212       -4.38707027775610        0.07429728842260
C            1.20326753528490       -3.72082027703465        0.09752057575949
C            2.42847446754507       -4.41526976279778        0.07124354500475
C            3.65061782257328       -3.74711473545342        0.05431099894470
C            3.67576905157851       -2.35291461121966        0.08262744138874
C           -2.32843154145603       -1.52501351892996        0.01825762719376
C           -3.52629475714907       -2.21728592310694       -0.05833532160870
C           -3.55519995431160       -3.62059897927341       -0.09049992440412
C           -2.36816097553264       -4.33168146723390       -0.02164126355230
C            0.26708454064080        4.10929248667673       -0.11021776119391
C           -4.87164846760325       -4.39178913926958       -0.22105165127909
C            4.97784379289732       -4.50535697760443       -0.01619779188727
C           -6.08579599982135       -3.46145691900187       -0.34098462026429
C           -5.06660039885475       -5.27771670859292        1.01728500647159
C           -4.81664193240718       -5.27385222331314       -1.47809998894700
C            5.70712963848534       -4.11355438705041       -1.31003380627442
C            5.84120473423283       -4.13093744342163        1.19661482050182
C            4.77750242338493       -6.02635540016580       -0.01331313496445
C           -1.11990458780046        4.75529573271042       -0.22446076709203
C            0.94951586613976        4.65632248564327        1.15150474999480
C            1.08512280450947        4.50647018802730       -1.34881524996361
H            2.32943357765014        2.36135153666582        0.03641262370390
H           -1.96594642636664        2.44111595557207       -0.05277720452704
H            4.61239886132785       -1.82057316441552        0.06878707755667
H            2.38009559013327       -5.48955377983162        0.05111125314843
H           -2.36840856302371       -5.40848091599076       -0.03968699179184
H           -4.43364075701983       -1.64082485745953       -0.10275717691702
H            0.63051920555501        4.10171177363401       -2.25108608488599
H            1.12533335253590        5.59049311470363       -1.44282888794287
H            2.10573498269179        4.13698842264113       -1.28765871077039
H            1.01369684072317        5.74242047664481        1.10956037097465
H            1.95652419142117        4.26181850383594        1.26379722882096
H            0.37567935344786        4.38180982445751        2.03415363252388
H           -1.72641976027203        4.53517200455174        0.65192843100526
H           -1.02129709883597        5.83705408919982       -0.29721584858258
H           -1.63938489801400        4.40666526012766       -1.11486628074385
H            5.92666780991343       -3.04870062924749       -1.33559410656876
H            5.09829953165813       -4.35629979522066       -2.17909945784325
H            6.64848491855001       -4.65451334804167       -1.38978931802334
H            4.19738175877199       -6.34601530880830       -0.87671402718080
H            5.74303277948657       -6.52725614236818       -0.05684284859683
H            4.27275923857006       -6.35121483858818        0.89454456365689
H            6.06846501321613       -3.06790913038096        1.21539264193912
H            6.78271147781098       -4.67691519562234        1.17489104211105
H            5.31993682755153       -4.38315939723190        2.11746871315448
H           -4.65026505073351       -4.66408520365440       -2.36416611736562
H           -4.01658125376817       -6.00728047954715       -1.41540509383101
H           -5.75554482330478       -5.81073761305982       -1.60374986685691
H           -5.99282621055976       -5.84462399398126        0.93814261538782
H           -5.12009631055638       -4.66100101479343        1.91174806608170
H           -4.24758567621196       -5.98271396536992        1.13745761929121
H           -6.19049265202323       -2.84000351346124        0.54632877437004
H           -6.00074094343824       -2.82146796509558       -1.21697679160875
H           -6.99608821055300       -4.04963610410442       -0.44403462285963
O           -2.30403782808415       -0.14249565949973        0.01965752064707
C           -1.04961617144458        1.90748392289337        6.12574083778942
C           -1.10347995606117        0.52327875328137        6.08498093166063
C            0.10789467566602       -0.18526154002924        6.09801712675217
C            1.36790701551683        0.46003699127296        6.15759793202741
C            1.35993671984928        1.86531004712529        6.20270302437436
C            0.17770583978388        2.58701984023917        6.18808724212516
C            0.07666587967671       -1.58375592174041        6.08361334122497
C            1.26239013002007       -2.29831480933249        6.12889376327350
C            2.48486145482057       -1.57996060495112        6.18571394154386
N            2.52823710561250       -0.23274235442169        6.19496256739156
C           -1.14500163879974       -2.26526964070402        6.06482678153940
C           -1.12703213361769       -3.68168166871965        6.09098063605308
N            0.02773778249243       -4.38350348634003        6.12599423278701
C            1.19789719735444       -3.71537495070544        6.14874728268246
C            2.42224726457865       -4.40776930897916        6.22266717151335
C            3.64173590251473       -3.73768741419719        6.28626758699655
C            3.66527629885926       -2.34344168200220        6.26245505336304
C           -2.33776247003247       -1.52580596504628        6.05237530288476
C           -3.53640544755039       -2.22140995215319        6.05899820493054
C           -3.56381858760978       -3.62514646589842        6.08718750845666
C           -2.37314444354879       -4.33281193799739        6.10321055419151
C            0.24474997240892        4.11413831607345        6.27555104172950
C           -4.88351122961506       -4.40033783658817        6.13156252652928
C            4.96592969168589       -4.49380212191004        6.41148977660741
C           -6.10385628861957       -3.48646267883305        5.95885222242504
C           -4.99378995672634       -5.11053285064886        7.48910646798374
C           -4.90776291786766       -5.44649627257555        5.00692005654488
C            5.89835375454220       -4.08916200882418        5.26086715794253
C            5.61650878566879       -4.12973868977540        7.75432039136029
C            4.77129186128480       -6.01473320322331        6.36047699571058
C           -1.13216029486738        4.77000159878165        6.10789505934434
C            0.80651043686370        4.50358566292665        7.65120389681761
C            1.16955503885795        4.65804281027292        5.17607307924641
H            2.31147898261231        2.36575492103211        6.26145956652593
H           -1.98246777664490        2.44368108308509        6.11741162254005
H            4.59934824534926       -1.80924376001605        6.31610640007581
H            2.37461405715313       -5.48211426224738        6.24057685077756
H           -2.37118392248488       -5.40907272642720        6.13642979042188
H           -4.44653402434524       -1.64751029539805        6.05054806684892
H            0.81823996407079        4.34175551930310        4.19701833806828
H            1.18669672796750        5.74642861093602        5.19922808770806
H            2.19038060818528        4.30583576559826        5.29840606880402
H            0.85944001496195        5.58711254341478        7.74502603851019
H            1.80678001580040        4.10154749288740        7.79562264801007
H            0.16908109523812        4.12199399229269        8.44672873366729
H           -1.80816443142914        4.47272563222567        6.90702441151016
H           -1.03526210730423        5.85379173848102        6.14334234844377
H           -1.57390732090801        4.50345183148032        5.14952490828631
H            6.12768447328909       -3.02677773970053        5.28337493467902
H            5.43335045274920       -4.31557116688671        4.30420372130306
H            6.83669069726008       -4.63741077397248        5.32362347457622
H            4.31077943641010       -6.31663775597765        5.42166088724970
H            5.73527008071722       -6.51452116799620        6.43710564661230
H            4.15227353820650       -6.35822668698566        7.18684357367359
H            5.82703618017460       -3.06445326123053        7.81649065568773
H            6.55488140595633       -4.66793237791135        7.87615485943668
H            4.95964854804738       -4.39526140593730        8.58074494339382
H           -4.76092818363489       -4.96578354394661        4.04294651104212
H           -4.12759427146275       -6.19230740719390        5.13408990741891
H           -5.86531579513806       -5.96440486042710        4.99058843957176
H           -5.92763242158520       -5.66722107356946        7.54965244097800
H           -4.97326998587295       -4.38719474079567        8.30221689719714
H           -4.17275070753325       -5.80882600653765        7.63523146182379
H           -6.17474733318065       -2.76848284411988        6.77337181120239
H           -6.05460119934980       -2.94936245276902        5.01341717484896
H           -7.01680336735942       -4.07955998780052        5.96116166873079
O           -2.31513325314126       -0.14288296408247        6.05053229077258
134
 energy: -186.434013464762 gnorm: 0.006812783936 xtb: 6.7.1 (edcfbbe)
C           -1.04443672748359        1.89673142447729       -0.01538751909613
C           -1.08924406229943        0.51616358216485        0.03708647571559
C            0.11780248162434       -0.18867920180900        0.08708426961418
C            1.38360394167411        0.45407934210691        0.08626466553801
C            1.37612109266536        1.86079997933121        0.03756443931569
C            0.19082353283242        2.57327316430694       -0.02297978353507
C            0.08966610786418       -1.59028980978595        0.10760926909926
C            1.27349979929735       -2.30620934752222        0.11784971506429
C            2.49647459183603       -1.58349917986566        0.11061293910789
N            2.53403634275151       -0.24473925164484        0.10364779468516
C           -1.13876499842653       -2.26535489752291        0.06948650162012
C           -1.12099869609264       -3.68446577684328        0.05091929162294
N            0.03200957975206       -4.37837914718718        0.07256810837999
C            1.19921255317920       -3.72372002112239        0.09647573063192
C            2.42733197748626       -4.42188497781792        0.07050841649628
C            3.64611110301550       -3.74840181887947        0.05328485579583
C            3.67999019759246       -2.35237761291001        0.08115750004751
C           -2.32319170587908       -1.52339851196773        0.01653348104516
C           -3.52413467957960       -2.20348920568237       -0.06199009815084
C           -3.54952356436937       -3.61145176542525       -0.09250470413063
C           -2.36902002207828       -4.33088061630439       -0.02333187757524
C            0.25974885820343        4.09530539872433       -0.11111920484032
C           -4.86289790757269       -4.37818461283521       -0.22185468850773
C            4.96929202925872       -4.50325757153426       -0.01690161111438
C           -6.08066918121771       -3.45855503895324       -0.34147960990854
C           -5.05653604985121       -5.26370165256468        1.01575738027353
C           -4.80923472300544       -5.26071948956495       -1.47707163645486
C            5.69816555126178       -4.11170266680428       -1.30949167673452
C            5.83143436552134       -4.12920803139023        1.19508146041302
C            4.78168488391271       -6.02241062543973       -0.01457695931579
C           -1.11956863229513        4.74924080320592       -0.22490586753844
C            0.94204816159783        4.64127044037934        1.14992917419812
C            1.07725366571194        4.49385026276965       -1.34796052227554
H            2.33130026020874        2.36009237801228        0.03575581950087
H           -1.97745386741587        2.43245163817184       -0.05853745654795
H            4.61606457622375       -1.81687659026392        0.06685391307613
H            2.37316253396817       -5.49658722366131        0.05004546513797
H           -2.36695262699292       -5.40858151969111       -0.04065431248510
H           -4.43132005393001       -1.62538907464877       -0.10874023244485
H            0.62204190899311        4.09104240961887       -2.24987466665080
H            1.11321716052590        5.57813010733855       -1.43462523341371
H            2.09681120659538        4.12574560133903       -1.28610912570838
H            1.00413956074249        5.72666542212165        1.10136447356027
H            1.94750367816950        4.24661918709731        1.26207283425806
H            0.36677609792581        4.36877748479735        2.03171833650463
H           -1.72782227334650        4.53701406741086        0.65107554255461
H           -1.00278993582895        5.82900787546692       -0.29613813131974
H           -1.64102876554010        4.40923787842931       -1.11632259061899
H            5.91615177382270       -3.04791258461809       -1.33473500806272
H            5.08879869327983       -4.35679458207723       -2.17662754587538
H            6.63850968089320       -4.65411691274505       -1.38459378219025
H            4.20762112513178       -6.34729427389476       -0.87876283286097
H            5.75454330273571       -6.50827193702123       -0.05709737646491
H            4.28085388001313       -6.35213274417731        0.89254216231036
H            6.05850159063782       -3.06755229056975        1.21441962425337
H            6.77086401897100       -4.67749003853886        1.16886741874012
H            5.30950627213088       -4.38317062620413        2.11461942929658
H           -4.64472928714510       -4.65153330915820       -2.36291383903795
H           -4.01091478793880       -5.99385935267773       -1.41345002259253
H           -5.75047123826708       -5.79416166516581       -1.59539766691162
H           -5.98266987518868       -5.82861335045034        0.92956513679398
H           -5.11296969768181       -4.64700957457226        1.90955188009857
H           -4.23791225717835       -5.96703151318790        1.13586787373906
H           -6.19297270335854       -2.83914742989063        0.54513479334452
H           -6.00439520987499       -2.82099067083635       -1.21887186168656
H           -6.98066104962827       -4.06218733436458       -0.44277256969471
O           -2.29279483429797       -0.14866667138866        0.02060021818512
C           -1.05914043148751        1.89945491241296        6.12542189986586
C           -1.10087771718963        0.51812895199474        6.08535158197446
C            0.10800560608236       -0.18537783407919        6.09923002943178
C            1.37143905339238        0.45880968198631        6.16186884172255
C            1.36061612496575        1.86536695498132        6.20602258548642
C            0.17410553780235        2.57765054573615        6.18826334424537
C            0.08297481427628       -1.58703388263416        6.08421124685264
C            1.26721663957800       -2.30093135344051        6.13037678009394
C            2.48758007060100       -1.57648422572495        6.18949418057947
N            2.52254179001653       -0.23783441731198        6.19960080179799
C           -1.14467146246493       -2.26413677137896        6.06549520378452
C           -1.12483598744859       -3.68299409137127        6.09423786244241
N            0.02885192199342       -4.37501597654364        6.12911432836280
C            1.19483035799330       -3.71842531245674        6.15105331998571
C            2.42211411674073       -4.41458008387607        6.22393686637852
C            3.63823887902891       -3.73915893299813        6.28767296270566
C            3.67033396101113       -2.34309874659954        6.26592806364062
C           -2.33175626716216       -1.52446598132215        6.05251397961692
C           -3.53359454023667       -2.20794587641590        6.05894679009170
C           -3.55732345986666       -3.61635820056416        6.08758420438651
C           -2.37316555223792       -4.33231650869489        6.10600914768687
C            0.23814034394373        4.09996651915272        6.27514542172134
C           -4.87381349920790       -4.38716455112297        6.13190922017197
C            4.95846693178164       -4.49194776407954        6.41164866744484
C           -6.09742400188422       -3.48359694449398        5.95995775036244
C           -4.98347474370274       -5.09757988525375        7.48852933758555
C           -4.89865567462192       -5.43346940624967        5.00957821965039
C            5.88972967589410       -4.08752919720427        5.26214915760855
C            5.60874857778002       -4.12817980936724        7.75339115373708
C            4.77643410865992       -6.01094251016751        6.36156008532283
C           -1.13136588008851        4.76322265164372        6.10853671356159
C            0.80018231182788        4.48957014067344        7.64981369600919
C            1.16235844113797        4.64448980962714        5.17777035742369
H            2.31389330391461        2.36432239704935        6.26478704838403
H           -1.99326907319061        2.43507377422973        6.11646251744951
H            4.60377887254108       -1.80566244631537        6.31986667417215
H            2.36870122479948       -5.48938220255019        6.24097640312583
H           -2.36882154366536       -5.40936244810845        6.13925261883672
H           -4.44378194439931       -1.63259848385873        6.05029078622639
H            0.81279820679951        4.32895859165458        4.19839547204429
H            1.17233999731831        5.73225188925625        5.20686815342755
H            2.18281160185140        4.29626771362620        5.30183553585566
H            0.85207834408774        5.57320713192428        7.73686488557989
H            1.79885048988772        4.08657934252270        7.79268743486297
H            0.16137949484373        4.11003597796856        8.44417129414110
H           -1.80846763747970        4.47611504410385        6.90913671731375