116
 energy: -22.928061455056 gnorm: 0.329736929581 xtb: 6.6.1 (8d0f1dd)
C           -3.31122850772930        0.79849766164622       -0.92477639677520
C           -2.44380812530352       -0.12270372891954       -0.27661132624697
C           -1.41337090092821        0.39579727573559        0.56335275196199
C           -0.89266158675590        1.65801491088749        0.27377586709581
C           -1.72665675402493        2.51431363229076       -0.49448366572522
C           -2.95444148494349        2.13954154133227       -1.01494489940871
C           -0.74098268209890       -0.43411532818871        1.49825021926784
C            0.56872586496315        0.03782116815119        1.86248088067890
C            1.03782416582094        1.29402317993033        1.50887470833621
N            0.31238977034758        2.07067427098208        0.65193736800696
C           -1.29695700510141       -1.39996043042223        2.41574187746061
C           -0.38243517664656       -2.18060797534842        3.13232615520648
N            0.91308504082021       -1.90366887689689        3.30325166013478
C            1.37712470144904       -0.74872102533751        2.81811050966982
C            2.52149331701875       -0.17739833758153        3.39379298866852
C            2.95849061756259        1.02681208890480        2.95105897606587
C            2.24288949469137        1.78498308775960        2.03503020483770
C           -2.74860936222260       -1.74497937691422        2.38401158947411
C           -3.09416315450955       -2.91614440870436        3.00571134491758
C           -2.16786021984049       -3.77788778654213        3.63251872101904
C           -0.85708937311598       -3.40495313382985        3.68547234358092
O           -3.71994433332149       -0.94984598373544        1.67726658385724
O           -2.55702603277562       -1.47241711578389       -0.57241635275616
C           -3.84297843593025        3.13357444054366       -1.60938954875544
C           -2.68769581069131       -5.03867041417370        4.30484659386931
H           -1.39666850744143        3.51251503834900       -0.76806311868865
H           -4.27662633836220        0.55105838579656       -1.33106614114542
H            2.66329581305412        2.73912661909249        1.72562431984580
H            3.05775395548473       -0.69369546277216        4.16536137542516
H           -0.24710966264510       -4.12034095424229        4.22946223699121
H           -4.11477991332403       -3.04712728052358        3.03244694615357
O           -4.21824883374556        4.03433712717988       -0.87713382485991
O           -4.44510595673734        2.90643496899600       -2.81853501752979
C           -5.44216520282800        3.83300025693726       -3.02488532025093
C            4.23586651889298        1.50004220933226        3.59165660008449
O            5.05927614697201        0.66079890002952        3.91714215179376
O            4.47001334453535        2.86385149488593        3.72605651435371
C            5.79457498613219        3.08584475587818        4.15829123132174
O           -3.82227255313510       -5.27347675879771        4.16636005494405
O           -1.85023202017753       -5.79767454267276        5.06656077253571
C           -2.55119635829503       -6.86252441382958        5.62930343183426
C           -5.07197156564436       -1.42399175670916        1.58830531863830
C           -1.33089900128490       -2.23622472573986       -0.99264499351172
H           -2.54510546830388       -7.76426885143998        4.99136022291012
H           -3.57194749219491       -6.44405511486021        5.74196173723541
H           -2.09133598235598       -7.02043774843818        6.64022264233588
H            5.72707967266424        3.46798026205549        5.10135971236643
H            6.34060091246885        3.78468702308830        3.50069950143490
H            6.17933064298187        2.03010500085905        4.19342358084693
H           -0.91862729772622       -2.57650129080332       -0.01361370304871
H           -0.49769766914251       -1.60651221708571       -1.34094446550576
H           -1.52632419730509       -2.94569707152159       -1.75361447637286
H           -5.11788846557077       -2.41810833635233        1.17520213188926
H           -5.67929807973498       -0.69619639428435        1.04301666067831
H           -5.57598832326623       -1.42383358739762        2.57928294206544
H           -6.13050215934830        3.76035386975488       -2.23272855695873
H           -5.86615610071888        3.45938329385866       -4.02668959924245
H           -5.13479557532099        4.87790991548477       -2.98314551356402
C           -1.38192942069774        3.73616555005018        2.91232598411686
C           -1.84821468128685        2.59982427735607        3.49755545445181
C           -1.05946531454833        2.05730632010638        4.60922730982276
C            0.19893954712228        2.69376791964407        4.86302140881997
C            0.50425395911860        3.94630308659851        4.28768785650746
C           -0.26031777722226        4.46998310053134        3.25072669343212
C           -1.20488993561782        0.74454293276906        5.14851520323437
C           -0.06287609782692        0.02744069315890        5.60930570802864
C            1.19208754369866        0.71421540266195        5.78882868583885
N            1.19428660993148        2.06344359410476        5.62744624321596
C           -2.41361422770794        0.07928500213936        5.25249410304426
C           -2.45851584031083       -1.32662100968547        5.60237876023992
N           -1.29466212405906       -1.98318595734370        5.89916817085159
C           -0.14475655767527       -1.32117560077092        5.98824682881008
C            0.97209270935794       -1.98958449505532        6.53157704134458
C            2.21982707914082       -1.36973967291181        6.68703967237737
C            2.30561929262884       -0.09745313075593        6.26436900324455
C           -3.73018485967715        0.71367583494582        5.25810242262992
C           -4.89964478833448       -0.06184623426677        5.21204641615509
C           -4.82617965800088       -1.39228978090841        5.46901303780036
C           -3.67144193418464       -1.98914944386360        5.67265433266067
O           -3.75568638935321        2.07705011038914        5.52067969627343
O           -2.94192434743730        1.91263938797883        3.01658762327703
C            0.21273512614467        5.50086066357994        2.34765104514621
C           -6.06660304520411       -2.17604633098929        5.80641622556876
H            1.41756699010566        4.38133362238595        4.66974005703471
H           -1.82880610647429        4.11982501512100        2.06992133318584
H            3.26888037378556        0.32655662585251        6.31721410015598
H            0.87146188387207       -3.08471526305024        6.57830423410869
H           -3.67716811065157       -3.05999292755990        5.83019634570050
H           -5.77379677507622        0.43595144608221        4.71017130754348
O            1.34459852619901        5.82615848916894        2.44941456579099
O           -0.74718748219123        6.07961784856304        1.59848183464284
C           -0.21473095568964        7.24015934882472        1.05753806029483
C            3.53228080814219       -2.00967610361154        7.02506769044485
O            3.64093082622715       -3.14437803815732        7.50071391725347
O            4.56565258381079       -1.22937033368332        6.69086985080897
C            5.72579357310716       -1.80692399125161        7.22246151275881
O           -7.04801223588612       -1.95726935745904        5.14194115322235
O           -6.01514389321278       -2.93743591896022        6.94765316328794
C           -7.21292732384718       -3.62681918543340        7.15115816329978
C           -4.95459780685163        2.65960679932188        5.86868674392943
C           -3.68284113682406        2.59129188358641        2.05479246020704
H           -7.43119628931628       -4.22607794725959        6.20622607140901
H           -8.06548455146707       -2.91765848248592        7.29781126410398
H           -7.07314693247270       -4.33087306029711        7.91223421050944
H            6.57332189837178       -1.29353136199234        6.78341268688262
H            5.74663761932316       -2.84282155125561        6.88089468184451
H            5.69426191474290       -1.72781984964892        8.29460302186842
H           -4.10481209541493        3.44288266176275        2.60483747673152
H           -4.49244774344916        1.87419893016926        1.82433103764650
H           -3.18901540870812        2.85154642679373        1.06781919454921
H           -5.55414326821421        2.76698137191684        4.93950725322359
H           -4.78658370641210        3.62090640967288        6.25983200635257
H           -5.43485580473958        1.97242995129449        6.65265772412460
H            0.89164886030839        7.38838561720231        1.13776105146914
H           -0.62894889903848        8.04195665205089        1.64837664327952
H           -0.59282546386754        7.45699159724320        0.03719083132488
116
 energy: -22.673572978560 gnorm: 0.500138704155 xtb: 6.6.1 (8d0f1dd)
C           -3.52957743208345        0.87795629649226       -1.38311579940930
C           -2.71165877698091       -0.17174138694024       -0.78558462825486
C           -1.65147602200226        0.20935210077111        0.18304413597904
C           -1.12987040758634        1.56693885625492        0.17753938843952
C           -1.87819562255033        2.52596608452924       -0.65109501167864
C           -3.01044342557101        2.16710324506772       -1.40737043609988
C           -0.88171806148061       -0.53961191808071        1.10739609569207
C            0.40636207982075       -0.12010632660830        1.48575827209532
C            0.82126097377936        1.20512319821391        1.35700173633481
N            0.02586978159973        2.13956002655834        0.71605602888773
C           -1.32207011688950       -1.89614854361209        1.67364278579171
C           -0.29432633316374       -2.69376156821841        2.18188988515421
N            1.02797007439791       -2.36467453500146        2.14244557348705
C            1.36263329685321       -1.07752918845921        1.99184649651554
C            2.60443575760513       -0.51315003174257        2.45480169328308
C            2.94855709334569        0.79559641214109        2.36164500888733
C            1.97109807986380        1.66402261352447        1.96863294012171
C           -2.68287980081201       -2.18425398773701        1.87895897028502
C           -3.00308118917891       -3.44670902641076        2.41386928908836
C           -1.97719880522523       -4.31216979615703        2.99162350862478
C           -0.64692255924107       -3.88133748672076        2.84180748939114
O           -3.73313133553316       -1.21736997916059        1.85888608851837
O           -2.93510271927225       -1.49532787103279       -1.30551498633594
C           -3.97640703421883        3.24691188039005       -1.66637366611870
C           -2.27959079266848       -5.47042593402856        3.91361329949145
H           -1.60448488692192        3.67625916436207       -0.51975413640079
H           -4.22161258809764        0.45582502599527       -2.15632912547137
H            2.26230026130640        2.72502820917134        1.99652451622270
H            3.34052412491371       -1.19664389665093        2.99341345116291
H            0.16461325291112       -4.53525772617320        3.16785039985045
H           -4.05332490928690       -3.62495144113473        2.38597672837736
O           -3.54233587492826        4.26777173453333       -1.88700537951350
O           -5.33957178901275        3.06561227949467       -1.59343651991426
C           -6.15928287833165        4.07499387327700       -2.21247744275584
C            4.32823845780512        1.19675643883522        2.83793292930806
O            4.99650315060004        0.43758762803232        3.56830355616644
O            4.76584655105087        2.45092865975608        2.49053018718657
C            6.08216975652107        2.78672983786661        2.83710150130942
O           -2.90497473578448       -5.43452065881384        4.97854367687587
O           -1.74560835523619       -6.63996612656211        3.40663635892252
C           -1.99218212862419       -7.75661352564571        4.08703643652475
C           -4.85314056835258       -1.54545433252043        1.11786210725348
C           -1.70874562315076       -2.10539368897475       -1.89208634507006
H           -3.04399946019624       -7.74881058098310        4.12527163209332
H           -1.66341550793380       -7.82640114642727        5.09354173144145
H           -1.78653850071510       -8.79397945894857        3.43340784235687
H            6.50588077117786        2.10783506095598        3.55182815480186
H            5.94740191390310        3.76197418824328        3.57478734896651
H            6.41865536523775        2.96696260482834        1.68628502681941
H           -1.35979378168107       -1.68272472791383       -2.83281743442490
H           -1.89760782111091       -3.13739305669188       -2.19678762988597
H           -0.94277260695857       -2.05213466642808       -1.04140669748006
H           -5.08836212901396       -2.57072280142065        1.07001151373620
H           -5.19029294272542       -0.98524372065868        0.21980433571060
H           -5.73957960490579       -1.25122584369440        1.57216543521151
H           -6.07341516714200        5.07339100626113       -1.82714835022417
H           -7.19467471566575        3.68228073316461       -2.02759518898237
H           -5.83526061794335        4.40867544806590       -3.24083758291475
C           -1.57352854457703        3.44717394276823        3.22489832981060
C           -1.92537581113824        2.48867082036267        4.22168816471381
C           -1.03457515216795        2.16946296685348        5.24796581071534
C            0.28975248654894        2.80598286648869        5.23805785753870
C            0.60510461139967        3.81139543352828        4.30234490375091
C           -0.36224807995320        4.19092898377316        3.36546936729276
C           -1.19940448907552        0.98609765369693        5.97165950886286
C           -0.03978266565922        0.37122675037542        6.52128030626383
C            1.11922271042533        1.13229669563529        6.67129368249211
N            1.25693354537969        2.41593727994868        6.28511623760835
C           -2.44076396497859        0.36460062776105        6.49363025871099
C           -2.35079388932089       -1.01691121375256        6.46279868921505
N           -1.30481634413776       -1.65203749535127        7.08116925141450
C           -0.21132566992840       -0.93827651125074        7.19732776653723
C            0.96885542403145       -1.36864426759699        7.98573845073339
C            2.09437363638629       -0.62850998610147        8.11719629175991
C            2.20821126970370        0.57560424648085        7.40355108504508
C           -3.71344030811663        1.02904132153526        6.37835551167540
C           -4.78441093547539        0.23717311210143        5.83935434031805
C           -4.64702314573586       -1.09250918220269        5.68927944401719
C           -3.52007210778999       -1.75490512683346        6.12591233034849
O           -3.79418178207062        2.37120860450397        6.69860903031013
O           -3.11862663153235        1.97243640012894        3.98693375936626
C           -0.06896578939768        5.09847050980169        2.27250213133913
C           -5.94627052943885       -1.73448597274604        5.07041677793383
H            1.53031920840851        4.33077651886116        4.17045904352438
H           -2.38372950708572        3.63006157780229        2.50474373147438
H            2.90387086384016        1.28680115954132        7.79862464325537
H            0.98573021880498       -2.29167710270374        8.57832302801243
H           -3.54585267384413       -2.84475298528640        5.83037503310695
H           -5.61971839715598        0.72870434399425        5.29382770608276
O            1.11979552576008        5.20223797810595        2.05548746092932
O           -1.02381577158746        5.50787353548976        1.38453610210764
C           -0.46671213221849        6.22795350289469        0.25116464243072
C            3.25463339664962       -1.05530354339068        8.85983989625061
O            3.04407798039091       -2.16598692707233        9.28510598060305
O            4.40120448148601       -0.22849558304486        8.84333063888037
C            5.15940333716388       -0.75673348145742        9.84312352503936
O           -6.61532170496436       -2.02077144283327        6.00348617605463
O           -6.40122710002379       -2.19034196800327        3.83961035106796
C           -7.82135105068768       -2.38369617669571        3.66251894458708
C           -2.69837392190058        2.99258591499207        7.31432691236851
C           -3.48119439452930        1.38669144372606        2.74145853926614
H           -8.42764076856154       -2.07455775926989        4.58228105186862
H           -8.10186220604041       -3.30008492932544        3.18137575973777
H           -8.27747174281316       -1.64034195893597        2.88547349278630
H            6.21811960523109       -1.20960563928519        9.54466019910492
H            4.81610266726649       -1.70663480696503       10.39762080231940
H            5.44453175104191       -0.04006771642053       10.61098554549423
H           -3.85990122772880        2.09189782043545        1.99454353255189
H           -4.31806856003882        0.67882915633397        2.90406319051923
H           -2.64425951608218        0.82490774695167        2.42770938049658
H           -2.33939163056415        3.71612462436313        6.63131311287616
H           -1.96169485822835        2.20929928120489        7.50792520578287
H           -2.80213266243669        3.45995780522540        8.29328211028644
H            0.61189987205169        5.98708655855770        0.00487418937564
H           -0.65383827941276        7.38019995517033        0.06012862910301
H           -0.92980553606698        5.79082902720950       -0.60215571805493
116
 energy: -22.641623400169 gnorm: 0.508982066748 xtb: 6.6.1 (8d0f1dd)
C           -3.36900178702767        0.81163598414159       -1.32678506780252
C           -2.64065746343506       -0.02095892363636       -0.51968614201969
C           -1.55729487600122        0.46981677258832        0.18012791015359
C           -0.99042680841730        1.83025270312649       -0.15425044483545
C           -1.90194897124925        2.69418934509289       -0.90746898314311
C           -2.94461469789414        2.11277561195855       -1.64407942738759
C           -0.93267878759988       -0.16777133676246        1.31609270040557
C            0.38381109386590        0.25901267092807        1.52137615411634
C            0.83918184891959        1.53175317491281        1.16895022409564
N            0.10660246110663        2.36996924123053        0.46791642398054
C           -1.41090580862891       -1.15796865452322        2.16082755392738
C           -0.47300755142025       -1.85058476122166        3.04244267291536
N            0.88361769195739       -1.60665880364211        3.17272113952156
C            1.28509978619441       -0.52097745523934        2.45104647507225
C            2.60430981369340       -0.06039772639532        2.87097023847409
C            2.90705356243231        1.20121072758789        2.40807698797923
C            2.07416916156486        1.94779942273764        1.64361312676762
C           -2.87384350618317       -1.41803559401322        2.33406077873039
C           -3.17921070183343       -2.71681782842237        2.67036688967207
C           -2.19861042196262       -3.57343696788747        3.18657803308108
C           -0.94301780279086       -3.08178401464290        3.40539131356512
O           -3.86385310467006       -0.48638440790198        1.95742822491615
O           -2.95966003483622       -1.42656967479497       -0.49758827247073
C           -3.92979813311456        3.16288627201311       -1.99559091891228
C           -2.12843605031185       -5.06533409281341        3.18919931545596
H           -1.68289446923020        3.85752574430582       -0.95125298752376
H           -4.28192324420379        0.39716239217336       -1.70698355324793
H            2.38087263649875        2.95729860342361        1.33699475955788
H            3.38041704614001       -0.60001716033623        3.61331031220823
H           -0.07835486567337       -3.74209630300764        3.72547136802670
H           -4.12506232741862       -3.15555755974981        2.56718059415606
O           -3.72105140757550        4.42333418836718       -1.86678862124106
O           -5.02136559675564        2.37617458164457       -2.26843229332679
C           -5.94416401071923        3.15994360376591       -2.92668616660603
C            4.34001554034325        1.71596988040347        2.48594826528325
O            4.57861331621993        2.81135608792657        2.90889947935324
O            5.11557617092772        0.79722738079553        1.89810527547733
C            6.48204740050740        1.07655355618547        2.11670861537592
O           -2.64597088779142       -5.67126364132094        2.25223594207230
O           -1.44724638512164       -5.74702736974805        4.12565408588885
C           -1.87913026222509       -7.14138182086571        4.05053681722779
C           -5.18272780865088       -0.88793644986735        2.12825823537883
C           -1.89661710215299       -2.18449061583226       -1.08924960508812
H           -1.22157717061257       -7.66041857315785        3.40998056511206
H           -2.75558490869994       -7.07638506716060        3.29957171683663
H           -2.21825287202620       -7.74715625693197        5.09962631079557
H            7.28291383957073        1.25722556717695        1.22909960633386
H            6.98654399334682        0.29583135220935        2.89254165582212
H            6.52077179507537        2.10431113960678        2.57845503478044
H           -1.72146965600378       -3.23351485857782       -0.74470451743207
H           -0.80026216209356       -1.56313402789390       -0.78515420592573
H           -1.83287426761658       -1.94384182542829       -2.08406283744460
H           -5.25369548744662       -1.75236352523386        1.61347780672500
H           -5.90882693543304       -0.23108695617797        1.80824446478428
H           -5.42910466715377       -1.01264539866614        3.20786359642057
H           -6.50138231930883        3.60103993756173       -2.10275026254308
H           -6.67900408896224        2.53177161545062       -3.51850553250744
H           -5.27080649594621        3.95538929997971       -3.37895141197783
C           -1.44375088707434        3.57829914081736        3.37742107355621
C           -1.82537255393194        2.36293672793864        3.95743865633011
C           -0.89162811464175        1.82722248360717        4.96814107941441
C            0.49668554700421        2.17788609063895        4.91510977715184
C            0.78768550034007        3.35327266432932        4.01074409885769
C           -0.25723747610698        4.15230126142992        3.42846780013442
C           -1.13762499471341        0.86400973568355        5.92203252116766
C           -0.00761728003739        0.27479566860650        6.68345842978475
C            1.37892649066986        0.80118117974738        6.46756856771038
N            1.57307108522522        1.63255770353783        5.44126362155564
C           -2.38921335297255        0.28992198231297        6.00296143641437
C           -2.42579264420778       -1.09362053973679        6.44510523140529
N           -1.35883090260369       -1.69670762281701        7.04905593517320
C           -0.15832665314332       -1.03365901058630        7.22676780344764
C            0.86695909083525       -1.49046966490974        8.05650331921389
C            2.07741767312834       -0.83883611634691        8.12404396620700
C            2.35304940133330        0.25637898228262        7.29783606092500
C           -3.82479601580459        0.73707585791302        5.63431683794534
C           -4.85644015583934       -0.19863315702136        5.09208273196634
C           -4.65119400654134       -1.56093913128204        5.48333933980996
C           -3.46092804864240       -1.98210885974252        6.12880952976267
O           -4.40044070931060        1.97349583910040        5.87888945581065
O           -3.02849051499744        1.71505297033568        3.58059333505350
C            0.21299702122247        5.22624782980064        2.39453671557442
C           -5.81074790514602       -2.46586514898269        5.28105983577947
H            1.82452913457039        3.56420141027692        3.83226340547233
H           -2.12719405284411        4.09708642483001        2.75131258995230
H            3.28049434228895        0.68234054770516        7.06526314159980
H            0.66245172675810       -2.48565059390167        8.63253870997114
H           -3.19208964875823       -2.99197703143302        5.91015968827812
H           -5.89617550942856        0.06611467298203        4.88988484408488
O            1.39667031813037        5.22397994846465        1.90201500243566
O           -0.81529458251860        5.85163812054165        1.60999119160345
C           -0.16026327967528        6.36975604440295        0.50332102852446
C            3.00891193987818       -1.15689211989092        9.18522388109755
O            3.00831760921999       -2.26057598984174        9.77531840968511
O            3.91306176607453       -0.18026885499027        9.76454871096918
C            4.90692730869335       -0.90012812399361       10.53126736008702
O           -5.61143743562577       -3.67694697244262        4.94703095501309
O           -7.09183522881653       -2.03386724048166        5.26940299944781
C           -7.85243614325205       -3.18273591065573        5.21398606730940
C           -3.87129898576201        2.70863440479514        7.04736733268900
C           -3.54119965308446        2.06705454586284        2.32565924208097
H           -7.79511699029824       -3.58047101404283        4.18468276567372
H           -8.89987765196850       -2.94856053818312        5.36939016634341
H           -7.28389797648075       -3.98712021227556        5.55092167864674
H            5.48860046790591       -1.43584504787706        9.86328812881073
H            4.36406112500320       -1.79613467782438       10.92616075058872
H            5.52088145645677       -0.33848371726494       11.25107902045958
H           -3.60081693407919        3.12493812752033        2.09899082553619
H           -4.45221414305681        1.48739383104507        2.09563274787231
H           -2.82128959071531        1.55689418082237        1.68012051778031
H           -2.88443777580623        2.91524525755926        7.02697685517056
H           -3.96824694496958        2.01656318507279        7.89764966762682
H           -4.41561838734743        3.72866774324318        7.14108903539853
H           -0.89573893584097        6.88261660610601       -0.13822074200331
H            0.37000419135714        5.57273830360554       -0.10190553289392
H            0.45781771616546        7.05573489034176        1.02414262143002
116
 energy: -22.692296965657 gnorm: 0.511871036170 xtb: 6.6.1 (8d0f1dd)
C           -3.08748706235204        0.24187974697839       -1.71126360188056
C           -2.28862970839455       -0.51144348945196       -0.87618370741897
C           -1.54485450276972       -0.04965226183321        0.29669032208579
C           -1.34439189087348        1.35176416094781        0.19609369083803
C           -2.00621913703983        2.11308625393399       -0.81350017142544
C           -2.88409993564653        1.60936240120787       -1.68453013849817
C           -0.87858557766167       -0.81812994701686        1.25720241288901
C            0.25908765436773       -0.17250417073448        1.93604318366395
C            0.49789627502547        1.21958260411710        1.65194054124962
N           -0.30865718787001        1.96804317650970        0.91881219272780
C           -1.38764149247933       -1.94647528361034        2.01329603490535
C           -0.42494278158092       -2.61062290182370        2.82899912546142
N            0.81091649844254       -2.14517197300319        3.17286998097612
C            1.16497075813420       -0.95457393398907        2.70189060010598
C            2.45301231688992       -0.39179337039628        2.97500026240927
C            2.67815568030705        0.98488921825083        2.77355990130634
C            1.71036620939621        1.81533118087136        2.08469271411725
C           -2.75729711578138       -2.37872060023395        2.05195508185695
C           -3.05335212123341       -3.58270630450930        2.68106969604584
C           -2.12747761433471       -4.15677264315333        3.56752830971301
C           -0.92798207893195       -3.53517648664104        3.66674070670475
O           -3.52787141776590       -1.53006923939005        1.26495426619592
O           -2.15567230846502       -1.98529211739486       -1.06362060872523
C           -3.65921311512568        2.51666958535590       -2.57977760961094
C           -2.41092488607340       -5.26337162884671        4.55967767947300
H           -1.57410593583853        3.18041737113244       -0.86915034979964
H           -3.83234693887464       -0.09038344347592       -2.37346087001539
H            2.06316806241611        2.82775694326876        1.90503208427005
H            3.15385450320048       -1.02836093773092        3.35641433100024
H           -0.14801986681707       -3.95585005698020        4.34864046639100
H           -4.02476963242162       -4.13345625484646        2.66054293333928
O           -3.38898878762240        3.74242489152402       -2.60279433048594