116
 energy: -22.928061455056 gnorm: 0.329736929581 xtb: 6.6.1 (8d0f1dd)
C           -3.31122850772930        0.79849766164622       -0.92477639677520
C           -2.44380812530352       -0.12270372891954       -0.27661132624697
C           -1.41337090092821        0.39579727573559        0.56335275196199
C           -0.89266158675590        1.65801491088749        0.27377586709581
C           -1.72665675402493        2.51431363229076       -0.49448366572522
C           -2.95444148494349        2.13954154133227       -1.01494489940871
C           -0.74098268209890       -0.43411532818871        1.49825021926784
C            0.56872586496315        0.03782116815119        1.86248088067890
C            1.03782416582094        1.29402317993033        1.50887470833621
N            0.31238977034758        2.07067427098208        0.65193736800696
C           -1.29695700510141       -1.39996043042223        2.41574187746061
C           -0.38243517664656       -2.18060797534842        3.13232615520648
N            0.91308504082021       -1.90366887689689        3.30325166013478
C            1.37712470144904       -0.74872102533751        2.81811050966982
C            2.52149331701875       -0.17739833758153        3.39379298866852
C            2.95849061756259        1.02681208890480        2.95105897606587
C            2.24288949469137        1.78498308775960        2.03503020483770
C           -2.74860936222260       -1.74497937691422        2.38401158947411
C           -3.09416315450955       -2.91614440870436        3.00571134491758
C           -2.16786021984049       -3.77788778654213        3.63251872101904
C           -0.85708937311598       -3.40495313382985        3.68547234358092
O           -3.71994433332149       -0.94984598373544        1.67726658385724
O           -2.55702603277562       -1.47241711578389       -0.57241635275616
C           -3.84297843593025        3.13357444054366       -1.60938954875544
C           -2.68769581069131       -5.03867041417370        4.30484659386931
H           -1.39666850744143        3.51251503834900       -0.76806311868865
H           -4.27662633836220        0.55105838579656       -1.33106614114542
H            2.66329581305412        2.73912661909249        1.72562431984580
H            3.05775395548473       -0.69369546277216        4.16536137542516
H           -0.24710966264510       -4.12034095424229        4.22946223699121
H           -4.11477991332403       -3.04712728052358        3.03244694615357
O           -4.21824883374556        4.03433712717988       -0.87713382485991
O           -4.44510595673734        2.90643496899600       -2.81853501752979
C           -5.44216520282800        3.83300025693726       -3.02488532025093
C            4.23586651889298        1.50004220933226        3.59165660008449
O            5.05927614697201        0.66079890002952        3.91714215179376
O            4.47001334453535        2.86385149488593        3.72605651435371
C            5.79457498613219        3.08584475587818        4.15829123132174
O           -3.82227255313510       -5.27347675879771        4.16636005494405
O           -1.85023202017753       -5.79767454267276        5.06656077253571
C           -2.55119635829503       -6.86252441382958        5.62930343183426
C           -5.07197156564436       -1.42399175670916        1.58830531863830
C           -1.33089900128490       -2.23622472573986       -0.99264499351172
H           -2.54510546830388       -7.76426885143998        4.99136022291012
H           -3.57194749219491       -6.44405511486021        5.74196173723541
H           -2.09133598235598       -7.02043774843818        6.64022264233588
H            5.72707967266424        3.46798026205549        5.10135971236643
H            6.34060091246885        3.78468702308830        3.50069950143490
H            6.17933064298187        2.03010500085905        4.19342358084693
H           -0.91862729772622       -2.57650129080332       -0.01361370304871
H           -0.49769766914251       -1.60651221708571       -1.34094446550576
H           -1.52632419730509       -2.94569707152159       -1.75361447637286
H           -5.11788846557077       -2.41810833635233        1.17520213188926
H           -5.67929807973498       -0.69619639428435        1.04301666067831
H           -5.57598832326623       -1.42383358739762        2.57928294206544
H           -6.13050215934830        3.76035386975488       -2.23272855695873
H           -5.86615610071888        3.45938329385866       -4.02668959924245
H           -5.13479557532099        4.87790991548477       -2.98314551356402
C           -1.38192942069774        3.73616555005018        2.91232598411686
C           -1.84821468128685        2.59982427735607        3.49755545445181
C           -1.05946531454833        2.05730632010638        4.60922730982276
C            0.19893954712228        2.69376791964407        4.86302140881997
C            0.50425395911860        3.94630308659851        4.28768785650746
C           -0.26031777722226        4.46998310053134        3.25072669343212
C           -1.20488993561782        0.74454293276906        5.14851520323437
C           -0.06287609782692        0.02744069315890        5.60930570802864
C            1.19208754369866        0.71421540266195        5.78882868583885
N            1.19428660993148        2.06344359410476        5.62744624321596
C           -2.41361422770794        0.07928500213936        5.25249410304426
C           -2.45851584031083       -1.32662100968547        5.60237876023992
N           -1.29466212405906       -1.98318595734370        5.89916817085159
C           -0.14475655767527       -1.32117560077092        5.98824682881008
C            0.97209270935794       -1.98958449505532        6.53157704134458
C            2.21982707914082       -1.36973967291181        6.68703967237737
C            2.30561929262884       -0.09745313075593        6.26436900324455
C           -3.73018485967715        0.71367583494582        5.25810242262992
C           -4.89964478833448       -0.06184623426677        5.21204641615509
C           -4.82617965800088       -1.39228978090841        5.46901303780036
C           -3.67144193418464       -1.98914944386360        5.67265433266067
O           -3.75568638935321        2.07705011038914        5.52067969627343
O           -2.94192434743730        1.91263938797883        3.01658762327703
C            0.21273512614467        5.50086066357994        2.34765104514621
C           -6.06660304520411       -2.17604633098929        5.80641622556876
H            1.41756699010566        4.38133362238595        4.66974005703471
H           -1.82880610647429        4.11982501512100        2.06992133318584
H            3.26888037378556        0.32655662585251        6.31721410015598
H            0.87146188387207       -3.08471526305024        6.57830423410869
H           -3.67716811065157       -3.05999292755990        5.83019634570050
H           -5.77379677507622        0.43595144608221        4.71017130754348
O            1.34459852619901        5.82615848916894        2.44941456579099
O           -0.74718748219123        6.07961784856304        1.59848183464284
C           -0.21473095568964        7.24015934882472        1.05753806029483
C            3.53228080814219       -2.00967610361154        7.02506769044485
O            3.64093082622715       -3.14437803815732        7.50071391725347
O            4.56565258381079       -1.22937033368332        6.69086985080897
C            5.72579357310716       -1.80692399125161        7.22246151275881
O           -7.04801223588612       -1.95726935745904        5.14194115322235
O           -6.01514389321278       -2.93743591896022        6.94765316328794
C           -7.21292732384718       -3.62681918543340        7.15115816329978
C           -4.95459780685163        2.65960679932188        5.86868674392943
C           -3.68284113682406        2.59129188358641        2.05479246020704
H           -7.43119628931628       -4.22607794725959        6.20622607140901
H           -8.06548455146707       -2.91765848248592        7.29781126410398
H           -7.07314693247270       -4.33087306029711        7.91223421050944
H            6.57332189837178       -1.29353136199234        6.78341268688262
H            5.74663761932316       -2.84282155125561        6.88089468184451
H            5.69426191474290       -1.72781984964892        8.29460302186842
H           -4.10481209541493        3.44288266176275        2.60483747673152
H           -4.49244774344916        1.87419893016926        1.82433103764650
H           -3.18901540870812        2.85154642679373        1.06781919454921
H           -5.55414326821421        2.76698137191684        4.93950725322359
H           -4.78658370641210        3.62090640967288        6.25983200635257
H           -5.43485580473958        1.97242995129449        6.65265772412460
H            0.89164886030839        7.38838561720231        1.13776105146914
H           -0.62894889903848        8.04195665205089        1.64837664327952
H           -0.59282546386754        7.45699159724320        0.03719083132488
116
 energy: -22.750604975377 gnorm: 0.460278437466 xtb: 6.6.1 (8d0f1dd)
C           -2.86431611937118        0.39873309680845       -1.72828690662297
C           -2.54593398774112       -0.33314649820897       -0.53586513866661
C           -1.69254837443863        0.23850094991400        0.48683700118933
C           -1.48600772028725        1.57303755823269        0.40713826043999
C           -2.09842823588534        2.31326554674315       -0.65080033750297
C           -2.70686042889174        1.77397674666068       -1.73003483863761
C           -0.96257503747988       -0.60768848536752        1.40478833289009
C            0.24592087419670        0.01741556033243        1.86525012593112
C            0.34491333819813        1.42960368728108        1.69751300894372
N           -0.57100574319659        2.24513033491977        1.14290380684594
C           -1.18011880620309       -1.95310764642591        1.92216928245239
C           -0.09275898757043       -2.78292173677121        2.40660175628991
N            1.03997697335902       -2.15510251894966        2.86369721882330
C            1.16287131349442       -0.83651767188847        2.63299756280629
C            2.28529381462041       -0.08802456110669        3.10169298307444
C            2.41883926496654        1.29845123206970        2.92171915326067
C            1.39312821409057        2.08679915224069        2.27337224339328
C           -2.51006343895911       -2.44121111688024        2.03583797928224
C           -2.71442689410732       -3.79489988536012        2.28798831262846
C           -1.63415788593407       -4.60477390206306        2.68500388952799
C           -0.28570439109131       -4.07908802314651        2.80600412793632
O           -3.48054903293471       -1.45606095548968        1.97904491347045
O           -2.75220977330987       -1.76349395328159       -0.52323161339507
C           -3.33520064133563        2.62856283601362       -2.76175211509160
C           -1.76742629222026       -6.04929500870867        2.93438794123272
H           -2.10687831190759        3.37201357027439       -0.72609434014973
H           -3.20099463882211       -0.08931397366317       -2.59247974521480
H            1.54761288002512        3.10095354096380        2.06967921528279
H            3.05911037654546       -0.71182088814090        3.53324699096515
H            0.43960891017413       -4.76947068642724        3.07119567775412
H           -3.73905528853332       -4.09085961898122        2.43366603184467
O           -3.25670668803504        3.83524526755588       -2.57327475227831
O           -3.75563851535716        2.11889574119935       -4.00564985354196
C           -4.04509682851237        3.23164842043594       -4.80810544866037
C            3.60172755429234        1.85493265462063        3.47517306120193
O            4.42356403658133        1.15447228615851        4.06765171141428
O            3.81552957612799        3.13304861449278        3.18097639598962
C            5.10749084994591        3.80864557262849        3.54858864195786
O           -2.87426302762153       -6.53417855635557        3.11092071037257
O           -0.66077065372477       -6.79657510522608        2.67240232152469
C           -0.89884913635048       -8.16597124315512        2.63810907620582
C           -4.76748252367107       -1.67975638326954        2.45509309115285
C           -1.81983917736241       -2.55901429959423       -1.31402451461623
H           -1.90096046328441       -8.13796857519969        2.17430287263202
H           -0.81414330270482       -8.75197911738578        3.69684188047915
H           -0.39144156119608       -8.90682105405751        2.00379027579681
H            5.72065711725003        3.44572137258318        2.75857595153994
H            5.52762710855615        3.53504734356458        4.50370812069488
H            5.10831082534865        4.95216273976738        3.41762677937179
H           -1.53526495844086       -1.90437929422939       -2.11458513578048
H           -2.36754829296910       -3.45472813537435       -1.62973760089105
H           -1.07161617672429       -2.66297430799606       -0.67539434446279
H           -5.17365121236658       -2.57333342569158        1.92590932413347
H           -5.50205275272652       -0.80024710759017        2.22429265411147
H           -4.69808003506305       -1.93056607093085        3.48038484244224
H           -3.88555722449252        2.99656636581150       -5.86903477825709
H           -3.18867348153527        3.85617154285103       -4.51374876375391
H           -5.18365653902239        3.24317570054856       -4.80077752773230
C           -1.94221311394808        4.21232020039135        3.63340380258681
C           -2.19275778781489        3.10064960221952        4.53849975289581
C           -1.20015826369494        2.33421196902785        5.18945390683037
C            0.13680875931774        2.83778764596709        5.04841133005729
C            0.35949844319311        3.98606976203958        4.36847242410647
C           -0.61285230946142        4.61583297852381        3.62069396691530
C           -1.28309458612518        1.20596517366304        6.07183044430024
C           -0.20501831170632        0.38976140759556        6.15087399608812
C            1.11475075410323        0.86782568073823        5.95757052273629
N            1.28402716002886        2.11633088462078        5.52399778019315
C           -2.58336405033144        0.62144405927920        6.59359596199644
C           -2.63883818550051       -0.79759270820968        6.72141541823831
N           -1.56615393727308       -1.54419865109853        6.84245436847374
C           -0.34668733421858       -0.89708703644589        6.80480031612138
C            0.91140299660884       -1.53341441786972        7.19259919960344
C            2.17164047142307       -1.05570185123917        7.01947393816034
C            2.26617132947439        0.16185639123816        6.38150082489745
C           -3.73408769557357        1.39503472653570        6.97479501286461
C           -5.02638374438348        0.80084878567185        6.93443723933076
C           -5.12286003103694       -0.54044702032817        6.57450119643531
C           -4.00761745225372       -1.31062234804596        6.54169678691667
O           -3.72505589018107        2.58111907645594        7.68337600627387
O           -3.54734707603960        2.60524522620379        4.52478940116455
C           -0.14210873471830        5.58449598426323        2.63131334272051
C           -6.33383268442767       -1.20116011339535        6.01592225608036
H            1.33448445151522        4.17634956376337        3.99689840279417
H           -2.70172529690041        4.61510753594801        3.08811770560871
H            3.21709058480228        0.21624854276862        5.79349025799380
H            0.89937574825287       -2.56122843482460        7.66404256321289
H           -4.05480157005534       -2.38193879243378        6.23639996242302
H           -5.76788911585931        1.62729430516055        6.90465102486313
O            0.95762332772101        6.00880678078898        2.87360291791423
O           -0.88334725967618        5.77398433781221        1.42372737999105
C           -0.12826662594471        6.47861586398719        0.52154165102758
C            3.33768463347249       -1.99682494463549        7.36126440734600
O            3.14551620966396       -3.19142133651339        7.75135630112474
O            4.57533974664506       -1.45779497138388        7.10824960517548
C            5.36947219195642       -2.50109201910106        7.33520652383009
O           -6.45078739653580       -1.52829601876520        4.85864620464674
O           -7.12461243414154       -1.38222111863908        7.12387528671719
C           -8.40897882761759       -2.10186983319019        7.02526357751221
C           -2.41252165363553        3.00554743802331        7.99024585346110
C           -4.33126174323026        2.82776505246040        3.30542956986520
H           -9.28066634468118       -1.39640667636610        7.20070758449369
H           -8.53976318050439       -3.02661378369800        7.73408328037251
H           -8.56257385429103       -2.35832751973075        5.97780750287419
H            6.36924167701024       -2.09180660094762        6.87538812356780
H            4.94301602708708       -3.48846408571517        6.96139198293536
H            5.57741741602355       -2.88661396724331        8.35741075129986
H           -4.78189173742783        3.87527099439314        2.88602519888652
H           -5.32463514582530        2.21515972708062        3.40245195429665
H           -3.69892077953226        2.40903243607772        2.42915144552562
H           -1.62801551172056        2.13328032121241        8.16497265277477
H           -2.30119065185782        3.74164635508446        8.81249540717151
H           -2.21569669686551        3.63192384851211        7.14067113329137
H            0.68083223729143        5.84534027532813        0.04244911842335
H            0.13387478625544        7.37787099055535        1.00440129109533
H           -0.86031619304409        6.70825055426780       -0.40824736305270
116
 energy: -22.762025423190 gnorm: 0.454136756496 xtb: 6.6.1 (8d0f1dd)
C           -3.23673732717285        0.10802112800545       -1.36363955101510
C           -2.47596555563441       -0.63295557290906       -0.39372210194661
C           -1.48880018974181        0.02962161880286        0.35254212884282
C           -1.01264295052547        1.34775184717020       -0.06849136195523
C           -1.79042208577404        2.06357701004359       -1.01364435691598
C           -2.79858081573123        1.42182474858816       -1.55765499759460
C           -0.84621213148441       -0.63416835281566        1.46369701056979
C            0.36515300905091        0.00202734035380        1.80357923690767
C            0.71704999148257        1.27577253639932        1.33952762933455
N           -0.02435775171193        2.04080733104017        0.54296377286618
C           -1.31168392218042       -1.70430640770577        2.24395873269758
C           -0.24225502688124       -2.52611191493004        2.74961404589363
N            1.03606993642179       -2.05678743097995        3.00800601835255
C            1.33328868082498       -0.81750508671218        2.55295948808727
C            2.42224708694702       -0.09523705905084        3.14652368262567
C            2.67896308915869        1.20527525563758        2.74845494320466
C            1.93979920597520        1.81188623592309        1.79973306084825
C           -2.68565353668029       -2.26637139780699        2.27175632780734
C           -2.90140052129107       -3.60361843449001        2.49901039593436
C           -1.78319138867013       -4.44044092902546        2.68775410946781
C           -0.58581123081525       -3.88992365901586        2.69719021773586
O           -3.59763146555931       -1.32282504590191        1.88803949028177
O           -2.67454704719627       -2.00255204026392       -0.43124531552957
C           -3.54745443370053        2.37359489930317       -2.51355783832045
C           -1.79095879711656       -5.93646685577084        2.55431194418206
H           -1.64945827172628        3.15295341550920       -1.19634699775216
H           -3.88935006746375       -0.46067435834798       -2.08905500472682
H            2.24408018182081        2.87688420609384        1.55820438286545
H            2.99279480906579       -0.62771202407732        3.82158579953152
H            0.26023618726366       -4.63604407714161        2.60552286551293
H           -3.74498036913003       -4.18001250359754        2.21054756508607
O           -3.79812057857560        3.56937418673140       -2.32774282475626
O           -4.25076552152678        1.63257367948747       -3.47158201169255
C           -5.35440842688067        2.29387057246509       -4.00084269338802
C            3.83703423927399        1.91460115779831        3.44648649579523
O            4.66810518994045        1.30208672535650        4.06257177885287
O            3.81419873919848        3.26475616092506        3.35796831454580
C            4.62142260565277        3.93724727608346        4.14648794743665
O           -2.84642646326745       -6.55129324180583        2.48538927866804
O           -0.46753436413930       -6.42418653864239        2.24957273314705
C           -0.60307701029011       -7.85167343549077        2.16768417346250
C           -4.88121676685960       -1.53559615503049        2.28744135663319
C           -1.53628987032023       -2.89448040436012       -0.61440216230774
H           -0.77390204061990       -8.02517356278118        3.22742711906463
H            0.30615427556905       -8.44273097132159        2.05644398550235
H           -1.51271001273594       -8.06194507901091        1.48276574769871
H            5.28973915327931        3.15669817968196        4.68168679009323
H            4.06297821252739        4.77840511489402        4.55503121060562
H            5.18589305401551        4.47506899847794        3.34896649207296
H           -0.98876952013223       -2.46029446161201       -1.46177542731091
H           -1.81750940799216       -3.88280187075200       -0.81349264121885
H           -0.98466784081984       -3.02251309733744        0.20008749480578
H           -5.17460629885801       -2.24175975954690        1.46588065617317
H           -5.29278034545783       -0.53836101249025        2.14298970430876
H           -4.82399349751518       -1.81551856427599        3.42490114494061
H           -5.05659118110293        3.35516349076013       -4.37883294952784
H           -6.10142584538100        2.17506281344201       -3.24029077310395
H           -5.77909334928283        1.60431889762734       -4.79663022748295
C           -1.39800515492200        3.92700232665074        3.30698149643255
C           -1.73382067618185        2.62778213668112        3.74988938173633
C           -0.82513787300624        2.07599523711395        4.77055334195078
C            0.33169256390254        2.70133217399699        5.26793257621258
C            0.52353367268346        4.02831719463629        4.85229871630291
C           -0.34286014186217        4.63925911098992        3.88882204749465
C           -1.17969486117922        0.93264823105278        5.56690552162327
C           -0.07946533223250        0.27971233491442        6.19622570452727
C            1.17255598126836        0.99301536885263        6.34264295089205
N            1.26556177219579        2.28590182406486        6.05361287982377
C           -2.55923872883734        0.48170912634069        5.97745527952281
C           -2.58155173402557       -0.86276782141145        6.54615973084440
N           -1.54665868602140       -1.57237882608266        6.98583330788235
C           -0.26756303175287       -1.09253593453906        6.69580307576862
C            0.86001293455688       -1.79156912775219        6.99194201732188
C            2.20199571963410       -1.20394390254494        6.92429234259356
C            2.34239097363703        0.15522412941287        6.72178607074476
C           -3.74408937576353        1.27219572451535        5.93234229069093
C           -5.02235484640932        0.67995951975711        6.07883909594458
C           -5.05972937039295       -0.65301849236538        6.58279243308678
C           -3.88618119476841       -1.42889216856120        6.83616900132115
O           -3.80855096668127        2.68494467341658        5.72997897973972
O           -2.88152936901988        1.87939599564737        3.38754792663411
C           -0.12014817597425        6.02652494639720        3.54434399418646
C           -6.48988440586479       -1.12711499258877        6.93308257992451
H            1.44749929300071        4.51016357063842        5.13344597101373
H           -2.12537079172831        4.50143926645150        2.90457954224146
H            3.30077514465192        0.56634640656376        6.85681046071923
H            0.78667500212443       -2.91047358703802        7.08801949997331
H           -4.13153004208380       -2.51486798794911        6.80155088770303
H           -5.95281712860422        1.14062502555245        5.94096209086962
O            0.91246244882212        6.62559510863878        3.93160883782111
O           -0.93484865762819        6.60399762840991        2.67132283817891
C           -0.42285151263313        7.76288777107367        2.03311832682716
C            3.31519727430297       -2.12769466404661        7.10931981308166
O            3.06801004942160       -3.25480808828035        7.41363535642452
O            4.54335853838408       -1.53486278944793        7.04187499588120
C            5.49454074001685       -2.63734238705702        7.11767991341363
O           -6.56713113399446       -2.11724223956162        7.67802917143584
O           -7.55713869565469       -0.53873585021226        6.36857550076534
C           -8.83862674142752       -1.16157092601609        6.42089363037200
C           -3.10636280650932        3.37661957123802        6.75255840721437
C           -3.41243922528408        2.29867006974516        2.19177963998444
H           -9.16476340456225       -1.20514577201884        7.42210590925932
H           -8.72055702695633       -2.22247785611614        6.26607445417406
H           -9.45204900729635       -0.50024198317810        5.88595102357232
H            6.53401169946606       -2.64096660612671        7.29815883091234
H            5.35117645329068       -3.46668454069797        6.43912773196654
H            5.05914782551227       -3.21944841590493        7.97094647232622
H           -4.45725761210418        2.73654460864467        2.51712153259426
H           -3.51971842197966        1.35315681685722        1.62721530007436
H           -2.67803752990804        2.79876051096748        1.45618491055486
H           -1.96886343981564        3.40363512203438        6.68285229213957
H           -3.34618709924561        2.98709139947552        7.74414158043677
H           -3.49124787798372        4.43695307672376        6.67731062345508
H            0.22228877014276        8.23126162421625        2.95028315992407
H           -1.31517423049133        8.41470584104825        1.84622647335515
H            0.03675729602058        7.65851439459560        1.03871824541964
116
 energy: -22.784586873450 gnorm: 0.456162658905 xtb: 6.6.1 (8d0f1dd)
C           -3.20737055338988        0.39313622542973       -1.05878360959231
C           -2.34261058738064       -0.43094195281338       -0.46030801145133
C           -1.52812651991233        0.19936802539489        0.56849769006689
C           -1.23279101313859        1.61881301260514        0.52438861082719
C           -2.18564470580041        2.38792319996754       -0.26002194370428
C           -3.12644158742789        1.83052722424961       -1.04479310364633
C           -0.61493168886953       -0.57714084708294        1.41020905837216
C            0.62184183647382       -0.01995113611389        1.83004356910326
C            0.92641339587305        1.33622598167570        1.63522630535331
N           -0.01300860080034        2.10702410046692        0.95498958103289
C           -1.03733884366714       -1.84962521729296        1.91963387852352
C            0.00032668167188       -2.56633007481156        2.50402423654776
N            1.24345094230027       -2.05291670350390        2.82319213549684
C            1.56619728568928       -0.81537491542803        2.47571473746415
C            2.76399041967313       -0.24125853071133        2.92693889734127
C            3.07637486234999        1.05652317595711        2.63499540534488
C            2.15748244438406        1.92813601272144        2.00810868572925
C           -2.41345486725864       -2.27680606069830        2.20483777743818
C           -2.82294533868182       -3.49715770159471        2.84682183788973
C           -1.74637350140169       -4.31161805718126        3.16067698917079
C           -0.43301614750119       -3.78434877730765        3.09784111321154
O           -3.52490083923832       -1.50929767099350        1.67086869708386
O           -2.48360595497459       -1.76347941368209       -0.88989126324919
C           -4.22741689951106        2.60885566884669       -1.69038168917291
C           -2.02471785056021       -5.40781013884154        4.10198302756198
H           -2.15208321995592        3.46545065094750       -0.36606932533116
H           -4.03594435470127       -0.14162806506391       -1.55382831328820
H            2.48253282031807        2.96256158313360        1.84387203624788
H            3.33369644096244       -0.78772682521981        3.68080048688719
H            0.44718616366986       -4.41511739797337        3.57068566324966
H           -3.75431830837636       -3.99795376493049        2.74552298329667
O           -4.31041722313286        3.83367160368209       -1.58902682320946