Optimization of monomers started
      -----------------------------------------------------------      
     |                   =====================                   |     
     |                           x T B                           |     
     |                   =====================                   |     
     |                         S. Grimme                         |     
     |          Mulliken Center for Theoretical Chemistry        |     
     |                    University of Bonn                     |     
      -----------------------------------------------------------      

   * xtb version 6.7.1 (edcfbbe) compiled by 'runner@Mac-1732539442253.local' on 2024-11-25

   xtb is free software: you can redistribute it and/or modify it under
   the terms of the GNU Lesser General Public License as published by
   the Free Software Foundation, either version 3 of the License, or
   (at your option) any later version.
   
   xtb is distributed in the hope that it will be useful,
   but WITHOUT ANY WARRANTY; without even the implied warranty of
   MERCHANTABILITY or FITNESS FOR A PARTICULAR PURPOSE.  See the
   GNU Lesser General Public License for more details.
   
   Cite this work as:
   * C. Bannwarth, E. Caldeweyher, S. Ehlert, A. Hansen, P. Pracht,
     J. Seibert, S. Spicher, S. Grimme, WIREs Comput. Mol. Sci., 2020, 11,
     e01493. DOI: 10.1002/wcms.1493
   
   for GFN2-xTB:
   * C. Bannwarth, S. Ehlert and S. Grimme., J. Chem. Theory Comput., 2019,
     15, 1652-1671. DOI: 10.1021/acs.jctc.8b01176
   for GFN1-xTB:
   * S. Grimme, C. Bannwarth, P. Shushkov, J. Chem. Theory Comput., 2017,
     13, 1989-2009. DOI: 10.1021/acs.jctc.7b00118
   for GFN0-xTB:
   * P. Pracht, E. Caldeweyher, S. Ehlert, S. Grimme, ChemRxiv, 2019, preprint.
     DOI: 10.26434/chemrxiv.8326202.v1
   for GFN-FF:
   * S. Spicher and S. Grimme, Angew. Chem. Int. Ed., 2020, 59, 15665-15673.
     DOI: 10.1002/anie.202004239
   
   for ALPB and GBSA implicit solvation:
   * S. Ehlert, M. Stahn, S. Spicher, S. Grimme, J. Chem. Theory Comput.,
     2021, 17, 4250-4261. DOI: 10.1021/acs.jctc.1c00471
   
   for ddCOSMO and CPCM-X implicit solvation:
   * M. Stahn, S. Ehlert, S. Grimme, J. Phys. Chem. A,
     2023, XX, XXXX-XXXX. DOI: 10.1021/acs.jpca.3c04382
   
   for DFT-D4:
   * E. Caldeweyher, C. Bannwarth and S. Grimme, J. Chem. Phys., 2017,
     147, 034112. DOI: 10.1063/1.4993215
   * E. Caldeweyher, S. Ehlert, A. Hansen, H. Neugebauer, S. Spicher,
     C. Bannwarth and S. Grimme, J. Chem. Phys., 2019, 150, 154122.
     DOI: 10.1063/1.5090222
   * E. Caldeweyher, J.-M. Mewes, S. Ehlert and S. Grimme, Phys. Chem. Chem. Phys.
     2020, 22, 8499-8512. DOI: 10.1039/D0CP00502A
   
   for sTDA-xTB:
   * S. Grimme and C. Bannwarth, J. Chem. Phys., 2016, 145, 054103.
     DOI: 10.1063/1.4959605
   
   in the mass-spec context:
   * V. Asgeirsson, C. Bauer and S. Grimme, Chem. Sci., 2017, 8, 4879.
     DOI: 10.1039/c7sc00601b
   * J. Koopman and S. Grimme, ACS Omega 2019, 4, 12, 15120-15133.
     DOI: 10.1021/acsomega.9b02011
   
   for metadynamics refer to:
   * S. Grimme, J. Chem. Theory Comput., 2019, 155, 2847-2862
     DOI: 10.1021/acs.jctc.9b00143
   
   for SPH calculations refer to:
   * S. Spicher and S. Grimme, J. Chem. Theory Comput., 2021, 17, 1701-1714
     DOI: 10.1021/acs.jctc.0c01306
   
   for ONIOM refer to:
   * C. Plett, A. Katbashev, S. Ehlert, S. Grimme, M. Bursch,
     Phys. Chem. Chem. Phys., 2023, 25, 17860-17868. DOI: 10.1039/D3CP02178E
   
   for DIPRO refer to:
   * J. Kohn, N. Gildemeister, S. Grimme, D. Fazzi, A. Hansen,
     J. Chem. Phys., 2023, just accepted.
   
   for PTB refer to:
   * S. Grimme, M. Mueller, A. Hansen, J. Chem. Phys., 2023, 158, 124111.
     DOI: 10.1063/5.0137838
   
   with help from (in alphabetical order)
   P. Atkinson, C. Bannwarth, F. Bohle, G. Brandenburg, E. Caldeweyher
   M. Checinski, S. Dohm, S. Ehlert, S. Ehrlich, I. Gerasimov, C. Hölzer
   A. Katbashev, J. Kohn, J. Koopman, C. Lavigne, S. Lehtola, F. März, M. Müller,
   F. Musil, H. Neugebauer, J. Pisarek, C. Plett, P. Pracht, F. Pultar,
   J. Seibert, P. Shushkov, S. Spicher, M. Stahn, M. Steiner, T. Strunk,
   J. Stückrath, T. Rose, and J. Unsleber
   
 * started run on 2025/02/24 at 15:38:32.653     
   ID    Z sym.   atoms
    1    6 C      1-9, 11, 12, 14-21, 30, 31
    2    7 N      10, 13
    3    8 O      22, 23
    4    1 H      24-29, 50-55
    5   16 S      32, 38, 44
    6    9 F      33-37, 39-43, 45-49

           -------------------------------------------------
          |                Calculation Setup                |
           -------------------------------------------------

          program call               : xtb Base3SF5.mol --opt tight --cycles 500 --chrg 0 --uhf 1 --spinpol --tblite
          coordinate file            : Base3SF5.mol
          omp threads                :                     8

repulsion energy          1.7698604734740E+00 Eh
dispersion energy         3.8012792100839E-05 Eh
interaction energy        0.0000000000000E+00 Eh
number of electrons       2.4100000000000E+02 e
integral cutoff           1.8403572253217E+01 bohr

------------------------------------------------------------
  cycle        total energy    energy error   density error
------------------------------------------------------------
      1     -140.4049965613  -1.4217490E+02   2.0898241E-01
      2     -138.8899656200   1.5150309E+00   1.6963732E-01
      3     -133.6740068948   5.2159587E+00   1.4857278E-01
      4     -131.1765015043   2.4975054E+00   1.7041680E-01
      5     -141.0037758537  -9.8272743E+00   7.3238195E-02
      6     -141.4136282576  -4.0985240E-01   4.6264278E-02
      7     -141.5905115533  -1.7688330E-01   3.1848728E-02
      8     -141.5795923028   1.0919250E-02   3.0450860E-02
      9     -141.6320166573  -5.2424355E-02   2.1641407E-02
     10     -141.6362259716  -4.2093142E-03   1.5688263E-02
     11     -141.3961185238   2.4010745E-01   2.7192108E-02
     12     -141.6598062350  -2.6368771E-01   9.8655005E-03
     13     -141.4942955876   1.6551065E-01   2.9475046E-02
     14     -141.6607261803  -1.6643059E-01   8.0755770E-03
     15     -141.6574104273   3.3157530E-03   6.5199679E-03
     16     -141.6609939934  -3.5835661E-03   5.5476563E-03
     17     -141.6630893598  -2.0953664E-03   5.3871246E-03
     18     -141.6650158483  -1.9264885E-03   4.5770868E-03
     19     -141.6659137671  -8.9791883E-04   3.2951885E-03
     20     -141.6663389851  -4.2521792E-04   2.9782516E-03
     21     -141.6663098813   2.9103736E-05   2.9592795E-03
     22     -141.6664758566  -1.6597531E-04   2.1389287E-03
     23     -141.6665915164  -1.1565978E-04   1.8080618E-03
     24     -141.6667721467  -1.8063032E-04   1.4491153E-03
     25     -141.6670562632  -2.8411649E-04   7.9007939E-04
     26     -141.6671489007  -9.2637444E-05   6.1317542E-04
     27     -141.6672082575  -5.9356839E-05   4.1203643E-04
     28     -141.6671970807   1.1176749E-05   3.4877596E-04
     29     -141.6671983719  -1.2911707E-06   2.9991967E-04
     30     -141.6672068992  -8.5272586E-06   2.0635559E-04
     31     -141.6672172267  -1.0327518E-05   7.9805219E-05
     32     -141.6672179296  -7.0292646E-07   6.8813945E-05
     33     -141.6672180794  -1.4976357E-07   7.0327635E-05
     34     -141.6672189664  -8.8703902E-07   2.4627155E-05
     35     -141.6672189839  -1.7444222E-08   1.9612744E-05
------------------------------------------------------------

electronic energy        -1.4343711747014E+02 Eh
total energy             -1.4166721898387E+02 Eh

 total:                                   1.238 sec
 - repulsion                              0.000 sec (  0%)
 - dispersion                             0.003 sec (  0%)
 - coulomb                                0.001 sec (  0%)
 - hamiltonian                            0.008 sec (  0%)
 - scc                                    1.226 sec ( 99%)

      ----------------------------------------------------------- 
     |                   =====================                   |
     |                        A N C O P T                        |
     |                   =====================                   |
     |               Approximate Normal Coordinate               |
     |                Rational Function Optimizer                |
      ----------------------------------------------------------- 
      ----------------------------------------------------------- 
     |                   =====================                   |
     |                        A N C O P T                        |
     |                   =====================                   |
     |               Approximate Normal Coordinate               |
     |                Rational Function Optimizer                |
      ----------------------------------------------------------- 

          ...................................................
          :                      SETUP                      :
          :.................................................:
          :   optimization level             tight          :
          :   max. optcycles                   500          :
          :   ANC micro-cycles                  20          :
          :   degrees of freedom               159          :
          :.................................................:
          :   RF solver                   davidson          :
          :   write xtbopt.log                true          :
          :   linear?                        false          :
          :   energy convergence         0.1000000E-05 Eh   :
          :   grad. convergence          0.8000000E-03 Eh/α :
          :   maxmium RF displ.          1.0000000          :
          :   Hlow (freq-cutoff)         0.1000000E-01      :
          :   Hmax (freq-cutoff)         5.0000000          :
          :   S6 in model hess.         20.0000000          :
          ...................................................

generating ANC from exact Hessian ...
Using Lindh-Hessian (1995)
 Shifting diagonal of input Hessian by    1.0109478919998803E-002
 Lowest  eigenvalues of input Hessian
    0.010000    0.000000    0.000000    0.000000    0.000000    0.000000
    0.000000    0.010152    0.010208    0.010458    0.010758    0.011046
    0.011443    0.011928    0.012069    0.012759    0.013746    0.014180
 Highest eigenvalues
    4.956065    5.041307    5.126980    5.373298    5.822035    5.968903


........................................................................
.............................. CYCLE    1 ..............................
........................................................................
------------------------------------------------------------
  cycle        total energy    energy error   density error
------------------------------------------------------------
      1     -141.6671461456  -1.4343704E+02   6.2495319E-04
      2     -141.6637014954   3.4446502E-03   4.4047584E-03
      3     -141.6671444257  -3.4429303E-03   6.5400777E-04
      4     -141.6672043396  -5.9913852E-05   2.8154841E-04
      5     -141.6672116000  -7.2604029E-06   2.0174253E-04
      6     -141.6672187415  -7.1415100E-06   4.4118834E-05
      7     -141.6672188339  -9.2433680E-08   3.6335752E-05
      8     -141.6672190211  -1.8713999E-07   1.5653711E-05
------------------------------------------------------------

 total:                                   0.328 sec
 * total energy  :  -141.6672190 Eh     change       -0.3720697E-07 Eh
   gradient norm :     3.9961530 Eh/α   predicted     0.0000000E+00 (-100.00%)
   displ. norm   :     0.6950966 α      lambda       -0.2661084E+01
   maximum displ.:     0.2648852 α      in ANC's #148, #155, #153, ...

........................................................................
.............................. CYCLE    2 ..............................
........................................................................
------------------------------------------------------------
  cycle        total energy    energy error   density error
------------------------------------------------------------
      1     -142.6109918020  -1.4352856E+02   6.3520281E-02
      2     -140.6527093132   1.9582825E+00   9.5595512E-02
      3     -142.8172012553  -2.1644919E+00   4.0436839E-02
      4     -142.9168712577  -9.9670002E-02   3.8157191E-02
      5     -143.0831636719  -1.6629241E-01   3.5739895E-02
      6     -143.1558109414  -7.2647269E-02   2.3471247E-02
      7     -143.2811855153  -1.2537457E-01   1.8951462E-02
      8     -143.2897799687  -8.5944534E-03   1.5921389E-02
      9     -143.1153943309   1.7438564E-01   3.2980626E-02
     10     -143.2979476324  -1.8255330E-01   1.3555912E-02
     11     -143.3075409547  -9.5933224E-03   9.5330608E-03
     12     -143.2926352756   1.4905679E-02   1.1794598E-02
     13     -143.3073754876  -1.4740212E-02   6.8724104E-03
     14     -143.3097080596  -2.3325719E-03   5.8815111E-03
     15     -143.3098354388  -1.2737921E-04   5.5627355E-03
     16     -143.3124288491  -2.5934104E-03   4.5074184E-03
     17     -143.3123736700   5.5179174E-05   4.2194186E-03
     18     -143.3125983995  -2.2472951E-04   4.1902287E-03
     19     -143.3126611242  -6.2724733E-05   4.0329025E-03
     20     -143.3127667837  -1.0565945E-04   3.9000314E-03
     21     -143.3128689531  -1.0216939E-04   3.6656262E-03
     22     -143.3130514130  -1.8245991E-04   3.1856838E-03
     23     -143.3133101995  -2.5878654E-04   2.4147965E-03
     24     -143.3134680211  -1.5782165E-04   1.8601454E-03
     25     -143.3135185982  -5.0577072E-05   1.7066488E-03
     26     -143.3135912814  -7.2683213E-05   1.4340853E-03
     27     -143.3135950407  -3.7592277E-06   1.1609950E-03
     28     -143.3137636155  -1.6857486E-04   6.2286432E-04
     29     -143.3137848711  -2.1255563E-05   5.0027145E-04
     30     -143.3137909658  -6.0947349E-06   4.2736735E-04
     31     -143.3138198845  -2.8918692E-05   6.7897305E-05
     32     -143.3138203469  -4.6239808E-07   5.2695511E-05
     33     -143.3138183025   2.0444232E-06   1.2055304E-04
     34     -143.3138201844  -1.8819346E-06   5.6813177E-05
     35     -143.3138205643  -3.7990850E-07   3.1039216E-05
     36     -143.3138206976  -1.3326127E-07   1.4864548E-05
------------------------------------------------------------

 total:                                   1.331 sec
 * total energy  :  -143.3138207 Eh     change       -0.1646602E+01 Eh
   gradient norm :     1.6705643 Eh/α   predicted    -0.1973410E+01 (  19.85%)
   displ. norm   :     0.6961609 α      lambda       -0.1096544E+01
   maximum displ.:     0.2508939 α      in ANC's #142, #137, #138, ...

........................................................................
.............................. CYCLE    3 ..............................
........................................................................
------------------------------------------------------------
  cycle        total energy    energy error   density error
------------------------------------------------------------
      1     -143.6383919630  -1.4439863E+02   4.6710114E-02
      2     -138.0126913407   5.6257006E+00   1.1638240E-01
      3     -144.0968480009  -6.0841567E+00   4.1974342E-02
      4     -144.1934402298  -9.6592229E-02   2.8966709E-02
      5     -144.0461837744   1.4725646E-01   3.3821428E-02
      6     -144.1051717272  -5.8987953E-02   3.0375070E-02
      7     -144.1923023343  -8.7130607E-02   2.2491831E-02
      8     -144.2033012771  -1.0998943E-02   1.7562668E-02
      9     -144.1968042065   6.4970706E-03   1.8344320E-02
     10     -144.2000269784  -3.2227719E-03   1.5964296E-02
     11     -144.2028754034  -2.8484250E-03   1.2828473E-02
     12     -144.2073946547  -4.5192514E-03   9.4533100E-03
     13     -144.2119590494  -4.5643947E-03   6.9265826E-03
     14     -144.2179028967  -5.9438473E-03   1.3962595E-03
     15     -144.2173854342   5.1746251E-04   2.6946768E-03
     16     -144.2179460416  -5.6060739E-04   7.0368376E-04
     17     -144.2179170933   2.8948290E-05   1.0488396E-03
     18     -144.2180040125  -8.6919218E-05   5.7711738E-04
     19     -144.2180226728  -1.8660333E-05   4.6888867E-04
     20     -144.2180303825  -7.7096594E-06   4.0544558E-04
     21     -144.2180576364  -2.7253876E-05   4.6418807E-05
     22     -144.2180576397  -3.3629135E-09   4.4937602E-05
     23     -144.2180571580   4.8174709E-07   7.0971423E-05
     24     -144.2180577604  -6.0240285E-07   2.4903202E-05
     25     -144.2180578280  -6.7571108E-08   5.2023491E-06
------------------------------------------------------------

 total:                                   0.966 sec
 * total energy  :  -144.2180578 Eh     change       -0.9042371E+00 Eh
   gradient norm :     1.0840745 Eh/α   predicted    -0.8139925E+00 (  -9.98%)
   displ. norm   :     0.7418540 α      lambda       -0.7656862E+00
   maximum displ.:     0.2641279 α      in ANC's #142, #137, #138, ...

........................................................................
.............................. CYCLE    4 ..............................
........................................................................
------------------------------------------------------------
  cycle        total energy    energy error   density error
------------------------------------------------------------
      1     -144.8064537086  -1.4550506E+02   1.9180027E-02
      2     -144.8059757314   4.7797722E-04   1.7865116E-02
      3     -144.8222183980  -1.6242667E-02   1.0918515E-02
      4     -144.8201025417   2.1158563E-03   1.0653042E-02
      5     -144.8322006496  -1.2098108E-02   3.6570218E-03
      6     -144.8334002517  -1.1996021E-03   1.7161630E-03
      7     -144.8335316188  -1.3136717E-04   1.2132763E-03
      8     -144.8335960614  -6.4442590E-05   6.4850702E-04
      9     -144.8336325021  -3.6440638E-05   3.2371248E-04
     10     -144.8336375512  -5.0491621E-06   2.2155015E-04
     11     -144.8336397188  -2.1675773E-06   1.3188156E-04
     12     -144.8336405915  -8.7264411E-07   6.6701422E-05
     13     -144.8336406828  -9.1358487E-08   4.1726961E-05
     14     -144.8336407804  -9.7635194E-08   2.5128463E-05
     15     -144.8336408099  -2.9494458E-08   1.3363879E-05
------------------------------------------------------------

 total:                                   0.563 sec
 * total energy  :  -144.8336408 Eh     change       -0.6155830E+00 Eh
   gradient norm :     0.6529842 Eh/α   predicted    -0.5935400E+00 (  -3.58%)
   displ. norm   :     0.7358176 α      lambda       -0.4523216E+00
   maximum displ.:     0.2236638 α      in ANC's #48, #142, #137, ...

........................................................................
.............................. CYCLE    5 ..............................
........................................................................
------------------------------------------------------------
  cycle        total energy    energy error   density error
------------------------------------------------------------
      1     -145.1927636404  -1.4589418E+02   1.2444855E-02
      2     -145.1915932411   1.1703993E-03   1.1668091E-02
      3     -145.2003912566  -8.7980155E-03   6.6734917E-03
      4     -145.1974051349   2.9861217E-03   6.6865157E-03
      5     -145.2029004765  -5.4953416E-03   1.8671452E-03
      6     -145.2031768090  -2.7633249E-04   8.4857181E-04
      7     -145.2032319883  -5.5179326E-05   4.7626548E-04
      8     -145.2032421331  -1.0144807E-05   2.4047654E-04
      9     -145.2032466300  -4.4968546E-06   1.2737193E-04
     10     -145.2032477066  -1.0766192E-06   8.0591253E-05
     11     -145.2032479298  -2.2325506E-07   5.3339779E-05
     12     -145.2032481033  -1.7342464E-07   2.5585350E-05
     13     -145.2032481487  -4.5410076E-08   1.5075979E-05
------------------------------------------------------------

 total:                                   0.465 sec
 * total energy  :  -145.2032481 Eh     change       -0.3696073E+00 Eh
   gradient norm :     0.4126365 Eh/α   predicted    -0.3486109E+00 (  -5.68%)
   displ. norm   :     0.7596517 α      lambda       -0.2945965E+00
   maximum displ.:     0.2771989 α      in ANC's #48, #51, #76, ...

........................................................................
.............................. CYCLE    6 ..............................
........................................................................
------------------------------------------------------------
  cycle        total energy    energy error   density error
------------------------------------------------------------
      1     -145.4410740551  -1.4617594E+02   1.0888642E-02
      2     -145.4398280750   1.2459801E-03   9.8578098E-03
      3     -145.4458781287  -6.0500537E-03   5.6249900E-03
      4     -145.4444488924   1.4292363E-03   4.8176387E-03
      5     -145.4476064960  -3.1576035E-03   1.4362420E-03
      6     -145.4477830748  -1.7657879E-04   5.6934774E-04
      7     -145.4477970908  -1.4016056E-05   3.7271053E-04
      8     -145.4478039126  -6.8218098E-06   1.4162010E-04
      9     -145.4478043274  -4.1477233E-07   1.0198109E-04
     10     -145.4478049368  -6.0936662E-07   6.1135554E-05
     11     -145.4478050017  -6.4899268E-08   3.1976218E-05
     12     -145.4478050945  -9.2776929E-08   1.5116600E-05
------------------------------------------------------------

 total:                                   0.462 sec
 * total energy  :  -145.4478051 Eh     change       -0.2445569E+00 Eh
   gradient norm :     0.2812505 Eh/α   predicted    -0.2322998E+00 (  -5.01%)
   displ. norm   :     0.7771020 α      lambda       -0.1999944E+00
   maximum displ.:     0.2964683 α      in ANC's #48, #51, #25, ...

........................................................................
.............................. CYCLE    7 ..............................
........................................................................
------------------------------------------------------------
  cycle        total energy    energy error   density error
------------------------------------------------------------
      1     -145.6098045112  -1.4639858E+02   1.0301061E-02
      2     -145.6087373378   1.0671734E-03   8.5851716E-03
      3     -145.6120783657  -3.3410279E-03   5.2279018E-03
      4     -145.6120958651  -1.7499416E-05   3.7483214E-03
      5     -145.6141287652  -2.0329001E-03   1.2644911E-03
      6     -145.6142688494  -1.4008422E-04   4.7979909E-04
      7     -145.6142731011  -4.2516154E-06   3.5983621E-04
      8     -145.6142794871  -6.3860058E-06   1.7479365E-04
      9     -145.6142822238  -2.7367114E-06   1.0202893E-04
     10     -145.6142829801  -7.5635086E-07   5.9036270E-05
     11     -145.6142829677   1.2428814E-08   4.0973155E-05
     12     -145.6142831119  -1.4424720E-07   1.4191116E-05
------------------------------------------------------------

 total:                                   0.481 sec
 * total energy  :  -145.6142831 Eh     change       -0.1664780E+00 Eh
   gradient norm :     0.2109183 Eh/α   predicted    -0.1603843E+00 (  -3.66%)
   displ. norm   :     0.7802895 α      lambda       -0.1368889E+00
   maximum displ.:     0.2705534 α      in ANC's #48, #25, #26, ...

........................................................................
.............................. CYCLE    8 ..............................
........................................................................
------------------------------------------------------------
  cycle        total energy    energy error   density error
------------------------------------------------------------
      1     -145.7260030834  -1.4657515E+02   9.4433036E-03
      2     -145.7253954129   6.0767050E-04   7.1298796E-03
      3     -145.7259729457  -5.7753282E-04   4.8384924E-03
      4     -145.7274205201  -1.4475744E-03   2.6361431E-03
      5     -145.7284954198  -1.0748997E-03   8.7167256E-04
      6     -145.7285619163  -6.6496495E-05   3.9498701E-04
      7     -145.7285659029  -3.9865824E-06   2.5638496E-04
      8     -145.7285700451  -4.1422623E-06   1.4071539E-04
      9     -145.7285721301  -2.0850005E-06   7.0136233E-05
     10     -145.7285723373  -2.0716666E-07   4.5880934E-05
     11     -145.7285723666  -2.9334132E-08   2.6367854E-05
     12     -145.7285724159  -4.9247006E-08   1.0555262E-05
------------------------------------------------------------

 total:                                   0.448 sec
 * total energy  :  -145.7285724 Eh     change       -0.1142893E+00 Eh
   gradient norm :     0.1711236 Eh/α   predicted    -0.1101170E+00 (  -3.65%)
   displ. norm   :     0.7819243 α      lambda       -0.9695209E-01
   maximum displ.:     0.2557110 α      in ANC's #25, #26, #48, ...

........................................................................
.............................. CYCLE    9 ..............................
........................................................................
------------------------------------------------------------
  cycle        total energy    energy error   density error
------------------------------------------------------------
      1     -145.8090912636  -1.4671112E+02   8.4469352E-03
      2     -145.8087827491   3.0851446E-04   5.7130714E-03
      3     -145.8075601107   1.2226384E-03   4.4642042E-03
      4     -145.8099507516  -2.3906409E-03   1.5569561E-03
      5     -145.8103040627  -3.5331108E-04   5.3681042E-04
      6     -145.8103210201  -1.6957402E-05   3.6699461E-04
      7     -145.8103343684  -1.3348284E-05   1.5512009E-04
      8     -145.8103360243  -1.6559250E-06   8.7997332E-05
      9     -145.8103367933  -7.6896438E-07   4.7376928E-05
     10     -145.8103368529  -5.9649210E-08   3.0336336E-05
     11     -145.8103368808  -2.7922965E-08   1.4969438E-05
------------------------------------------------------------

 total:                                   0.429 sec
 * total energy  :  -145.8103369 Eh     change       -0.8176446E-01 Eh
   gradient norm :     0.1404581 Eh/α   predicted    -0.7811465E-01 (  -4.46%)
   displ. norm   :     0.7826309 α      lambda       -0.7165624E-01
   maximum displ.:     0.2829661 α      in ANC's #26, #25, #8, ...

........................................................................
.............................. CYCLE   10 ..............................
........................................................................
------------------------------------------------------------
  cycle        total energy    energy error   density error
------------------------------------------------------------
      1     -145.8699939297  -1.4681532E+02   7.5943894E-03
      2     -145.8698573715   1.3655822E-04   4.7302510E-03
      3     -145.8683790764   1.4782950E-03   3.9966748E-03
      4     -145.8706105774  -2.2315009E-03   1.1507323E-03
      5     -145.8707713189  -1.6074156E-04   4.1349657E-04
      6     -145.8707768076  -5.4886445E-06   2.2757203E-04
      7     -145.8707804435  -3.6359432E-06   1.2064865E-04
      8     -145.8707813830  -9.3944587E-07   7.4700593E-05
      9     -145.8707817374  -3.5447934E-07   5.0492009E-05
     10     -145.8707818270  -8.9545011E-08   2.8933074E-05
     11     -145.8707818892  -6.2188207E-08   1.2119239E-05
------------------------------------------------------------

 total:                                   0.433 sec
 * total energy  :  -145.8707819 Eh     change       -0.6044501E-01 Eh
   gradient norm :     0.1102701 Eh/α   predicted    -0.5777324E-01 (  -4.42%)
   displ. norm   :     0.7770684 α      lambda       -0.5347218E-01
   maximum displ.:     0.2879628 α      in ANC's #26, #25, #8, ...

........................................................................
.............................. CYCLE   11 ..............................
........................................................................
------------------------------------------------------------
  cycle        total energy    energy error   density error
------------------------------------------------------------
      1     -145.9147741968  -1.4689712E+02   6.9542937E-03
      2     -145.9147661553   8.0414929E-06   4.1868240E-03
      3     -145.9134274889   1.3386663E-03   3.5124525E-03
      4     -145.9151801443  -1.7526554E-03   1.0297817E-03
      5     -145.9153019065  -1.2176218E-04   3.9969096E-04
      6     -145.9153089913  -7.0848158E-06   2.0612060E-04
      7     -145.9153125176  -3.5262334E-06   1.0983915E-04
      8     -145.9153130119  -4.9439018E-07   6.5439221E-05
      9     -145.9153131212  -1.0923583E-07   5.2857086E-05
     10     -145.9153133357  -2.1452843E-07   2.4777398E-05
     11     -145.9153133732  -3.7468567E-08   1.0781862E-05
------------------------------------------------------------

 total:                                   0.416 sec
 * total energy  :  -145.9153134 Eh     change       -0.4453148E-01 Eh
   gradient norm :     0.0868282 Eh/α   predicted    -0.4288033E-01 (  -3.71%)
   displ. norm   :     0.7946876 α      lambda       -0.4264113E-01
   maximum displ.:     0.2750368 α      in ANC's #26, #25, #8, ...

........................................................................
.............................. CYCLE   12 ..............................
........................................................................
------------------------------------------------------------
  cycle        total energy    energy error   density error
------------------------------------------------------------
      1     -145.9442043682  -1.4695520E+02   7.9460428E-03
      2     -145.9441185830   8.5785287E-05   4.8643242E-03
      3     -145.9424989691   1.6196138E-03   4.2006837E-03
      4     -145.9448366166  -2.3376475E-03   1.1184833E-03
      5     -145.9449710945  -1.3447791E-04   4.2113685E-04
      6     -145.9449786717  -7.5771772E-06   2.0875227E-04
      7     -145.9449824445  -3.7728390E-06   1.1605453E-04
      8     -145.9449834199  -9.7540146E-07   6.2090656E-05
      9     -145.9449834579  -3.7963559E-08   4.5240265E-05
     10     -145.9449835781  -1.2016392E-07   2.3783089E-05
     11     -145.9449836217  -4.3675186E-08   1.2348922E-05
------------------------------------------------------------

 total:                                   0.398 sec
 * total energy  :  -145.9449836 Eh     change       -0.2967025E-01 Eh
   gradient norm :     0.0896203 Eh/α   predicted    -0.3478513E-01 (  17.24%)
   displ. norm   :     0.7678955 α      lambda       -0.3963077E-01
   maximum displ.:     0.2539999 α      in ANC's #26, #25, #8, ...

........................................................................
.............................. CYCLE   13 ..............................
........................................................................
------------------------------------------------------------
  cycle        total energy    energy error   density error
------------------------------------------------------------
      1     -145.9691525572  -1.4700466E+02   8.0517670E-03
      2     -145.9691649818  -1.2424656E-05   5.0629603E-03
      3     -145.9680660320   1.0989499E-03   3.9852999E-03
      4     -145.9698705657  -1.8045337E-03   1.1162976E-03
      5     -145.9699909666  -1.2040090E-04   5.1850035E-04
      6     -145.9700144255  -2.3458886E-05   2.3651770E-04
      7     -145.9700199465  -5.5210514E-06   1.2048547E-04
      8     -145.9700209699  -1.0233397E-06   7.2485154E-05
      9     -145.9700211836  -2.1379464E-07   5.2286229E-05
     10     -145.9700213598  -1.7617575E-07   2.3179539E-05
     11     -145.9700213923  -3.2429796E-08   1.0779650E-05
------------------------------------------------------------

 total:                                   0.404 sec
 * total energy  :  -145.9700214 Eh     change       -0.2503777E-01 Eh
   gradient norm :     0.0924447 Eh/α   predicted    -0.3149981E-01 (  25.81%)
   displ. norm   :     0.6500876 α      lambda       -0.2077261E-01
   maximum displ.:     0.2361987 α      in ANC's #15, #26, #8, ...

........................................................................
.............................. CYCLE   14 ..............................
........................................................................
------------------------------------------------------------
  cycle        total energy    energy error   density error
------------------------------------------------------------
      1     -145.9873639175  -1.4703375E+02   4.6082468E-03
      2     -145.9873805122  -1.6594726E-05   2.9381849E-03
      3     -145.9872347522   1.4575997E-04   2.1703108E-03
      4     -145.9876611007  -4.2634845E-04   5.4088325E-04
      5     -145.9876833859  -2.2285269E-05   2.7710561E-04
      6     -145.9876922969  -8.9109992E-06   1.2331438E-04
      7     -145.9876932840  -9.8704476E-07   7.4038065E-05
      8     -145.9876936257  -3.4168374E-07   4.6110577E-05
      9     -145.9876937164  -9.0772318E-08   2.9461455E-05
     10     -145.9876937682  -5.1754455E-08   1.4323285E-05
------------------------------------------------------------

 total:                                   0.402 sec
 * total energy  :  -145.9876938 Eh     change       -0.1767238E-01 Eh
   gradient norm :     0.0916642 Eh/α   predicted    -0.1477571E-01 ( -16.39%)
   displ. norm   :     0.7186278 α      lambda       -0.2448490E-01
   maximum displ.:     0.2096139 α      in ANC's #15, #18, #8, ...

........................................................................
.............................. CYCLE   15 ..............................
........................................................................
------------------------------------------------------------
  cycle        total energy    energy error   density error
------------------------------------------------------------
      1     -146.0043537496  -1.4705076E+02   6.5646433E-03
      2     -146.0047929558  -4.3920626E-04   3.9833005E-03
      3     -146.0053607469  -5.6779104E-04   2.5953310E-03
      4     -146.0057023594  -3.4161247E-04   8.3798441E-04
      5     -146.0057478958  -4.5536486E-05   3.8516202E-04
      6     -146.0057653365  -1.7440635E-05   1.8258645E-04
      7     -146.0057671201  -1.7836032E-06   9.8237129E-05
      8     -146.0057678182  -6.9813274E-07   5.9231827E-05
      9     -146.0057679062  -8.8024166E-08   3.9022830E-05
     10     -146.0057679837  -7.7456775E-08   2.1252705E-05
     11     -146.0057680222  -3.8453607E-08   8.9131669E-06
------------------------------------------------------------

 total:                                   0.392 sec
 * total energy  :  -146.0057680 Eh     change       -0.1807425E-01 Eh
   gradient norm :     0.0831141 Eh/α   predicted    -0.1856479E-01 (   2.71%)
   displ. norm   :     0.7014243 α      lambda       -0.2475231E-01
   maximum displ.:     0.2015247 α      in ANC's #15, #13, #24, ...

........................................................................
.............................. CYCLE   16 ..............................
........................................................................
------------------------------------------------------------
  cycle        total energy    energy error   density error
------------------------------------------------------------
      1     -146.0166566111  -1.4705517E+02   8.6787249E-03
      2     -146.0174547540  -7.9814285E-04   4.9447144E-03
      3     -146.0182495559  -7.9480195E-04   3.4311997E-03
      4     -146.0187653479  -5.1579193E-04   1.3645775E-03
      5     -146.0189384059  -1.7305800E-04   6.1887417E-04
      6     -146.0189785447  -4.0138822E-05   2.3207465E-04
      7     -146.0189823669  -3.8221966E-06   1.2288909E-04
      8     -146.0189832897  -9.2283042E-07   5.9417883E-05
      9     -146.0189833858  -9.6030988E-08   4.1765861E-05
     10     -146.0189834560  -7.0274297E-08   2.0436027E-05
     11     -146.0189834877  -3.1719310E-08   9.6385498E-06
------------------------------------------------------------

 total:                                   0.414 sec
 * total energy  :  -146.0189835 Eh     change       -0.1321547E-01 Eh
   gradient norm :     0.0727635 Eh/α   predicted    -0.1846521E-01 (  39.72%)
   displ. norm   :     0.5605582 α      lambda       -0.1263511E-01
   maximum displ.:     0.1577706 α      in ANC's #16, #24, #21, ...

........................................................................
.............................. CYCLE   17 ..............................
........................................................................
------------------------------------------------------------
  cycle        total energy    energy error   density error
------------------------------------------------------------
      1     -146.0267680600  -1.4707098E+02   5.5956646E-03
      2     -146.0269060517  -1.3799174E-04   3.0070336E-03
      3     -146.0267211190   1.8493274E-04   2.1103679E-03
      4     -146.0270576967  -3.3657775E-04   4.8533373E-04
      5     -146.0270680464  -1.0349726E-05   2.7526081E-04
      6     -146.0270764961  -8.4496182E-06   1.1070776E-04
      7     -146.0270775161  -1.0200802E-06   5.0407941E-05
      8     -146.0270776290  -1.1283419E-07   2.8638948E-05
      9     -146.0270776493  -2.0317401E-08   1.7993600E-05
------------------------------------------------------------

 total:                                   0.341 sec
 * total energy  :  -146.0270776 Eh     change       -0.8094162E-02 Eh
   gradient norm :     0.0582828 Eh/α   predicted    -0.8302705E-02 (   2.58%)
   displ. norm   :     0.5137419 α      lambda       -0.8192078E-02
   maximum displ.:     0.1341533 α      in ANC's #19, #4, #13, ...

........................................................................
.............................. CYCLE   18 ..............................
........................................................................
------------------------------------------------------------
  cycle        total energy    energy error   density error
------------------------------------------------------------
      1     -146.0304623397  -1.4708785E+02   4.9658191E-03
      2     -146.0305231305  -6.0790795E-05   2.8028596E-03
      3     -146.0303203484   2.0278202E-04   1.4067381E-03
      4     -146.0305528437  -2.3249532E-04   4.2486979E-04
      5     -146.0305676486  -1.4804860E-05   2.2896863E-04
      6     -146.0305727664  -5.1177617E-06   8.3936912E-05
      7     -146.0305731807  -4.1428424E-07   4.4207785E-05
      8     -146.0305732683  -8.7653859E-08   2.4125060E-05
      9     -146.0305732709  -2.6039686E-09   1.5271019E-05
------------------------------------------------------------

 total:                                   0.324 sec
 * total energy  :  -146.0305733 Eh     change       -0.3495622E-02 Eh
   gradient norm :     0.0523288 Eh/α   predicted    -0.5177111E-02 (  48.10%)
   displ. norm   :     0.4186317 α      lambda       -0.7389595E-02
   maximum displ.:     0.1412413 α      in ANC's #4, #28, #13, ...

........................................................................
.............................. CYCLE   19 ..............................
........................................................................
------------------------------------------------------------
  cycle        total energy    energy error   density error
------------------------------------------------------------
      1     -146.0343620548  -1.4709925E+02   4.4066123E-03
      2     -146.0344154879  -5.3433160E-05   2.4745475E-03
      3     -146.0343012416   1.1424634E-04   1.1765331E-03
      4     -146.0344243861  -1.2314451E-04   3.9660762E-04
      5     -146.0344372396  -1.2853544E-05   2.4123683E-04
      6     -146.0344431408  -5.9012247E-06   7.8161236E-05
      7     -146.0344432860  -1.4516809E-07   5.0408366E-05
      8     -146.0344433915  -1.0550295E-07   2.7440012E-05
      9     -146.0344434019  -1.0337203E-08   1.4914247E-05
------------------------------------------------------------

 total:                                   0.350 sec
 * total energy  :  -146.0344434 Eh     change       -0.3870131E-02 Eh
   gradient norm :     0.0462655 Eh/α   predicted    -0.4342315E-02 (  12.20%)
   displ. norm   :     0.3859889 α      lambda       -0.5743497E-02
   maximum displ.:     0.1592598 α      in ANC's #4, #30, #16, ...

........................................................................
.............................. CYCLE   20 ..............................
........................................................................
------------------------------------------------------------
  cycle        total energy    energy error   density error
------------------------------------------------------------
      1     -146.0365501155  -1.4710062E+02   4.9525372E-03
      2     -146.0365586029  -8.4874017E-06   2.8563199E-03
      3     -146.0359407645   6.1783839E-04   2.3711970E-03
      4     -146.0367009314  -7.6016686E-04   5.1771935E-04
      5     -146.0367220970  -2.1165632E-05   2.0466629E-04
      6     -146.0367246508  -2.5537856E-06   6.6646802E-05
      7     -146.0367250266  -3.7576098E-07   3.6696743E-05
      8     -146.0367251318  -1.0520682E-07   1.7169058E-05
------------------------------------------------------------

 total:                                   0.308 sec
 * total energy  :  -146.0367251 Eh     change       -0.2281730E-02 Eh
   gradient norm :     0.0421102 Eh/α   predicted    -0.3299603E-02 (  44.61%)
   displ. norm   :     0.3640570 α      lambda       -0.5122948E-02
   maximum displ.:     0.1516236 α      in ANC's #4, #11, #2, ...
 * RMSD in coord.:     1.2470240 α      energy gain  -0.4369506E+01 Eh

generating ANC from exact Hessian ...
Using Lindh-Hessian (1995)
 Shifting diagonal of input Hessian by    9.7056158652036248E-003
 Lowest  eigenvalues of input Hessian
    0.000000    0.000000    0.000000    0.000000    0.000000    0.000000
    0.010000    0.010242    0.010468    0.010763    0.011468    0.011932
    0.012010    0.012166    0.012229    0.012729    0.012897    0.012971
 Highest eigenvalues
    2.192927    2.206534    2.220669    2.227533    2.243185    2.290270


........................................................................
.............................. CYCLE   21 ..............................
........................................................................
------------------------------------------------------------
  cycle        total energy    energy error   density error
------------------------------------------------------------
      1     -146.0388972837  -1.4710220E+02   4.7024785E-03
      2     -146.0389564738  -5.9190061E-05   2.7006849E-03
      3     -146.0387989650   1.5750878E-04   1.2523946E-03
      4     -146.0389705807  -1.7161564E-04   4.6716395E-04
      5     -146.0389940911  -2.3510488E-05   1.8708358E-04
      6     -146.0389967141  -2.6229268E-06   6.9417582E-05
      7     -146.0389972593  -5.4527075E-07   2.7571267E-05
      8     -146.0389972989  -3.9588940E-08   1.5029089E-05
------------------------------------------------------------

 total:                                   0.299 sec
 * total energy  :  -146.0389973 Eh     change       -0.2272167E-02 Eh
   gradient norm :     0.0401222 Eh/α   predicted     0.0000000E+00 (-100.00%)
   displ. norm   :     0.2752102 α      lambda       -0.4684944E-02
   maximum displ.:     0.0848783 α      in ANC's #12, #5, #11, ...

........................................................................
.............................. CYCLE   22 ..............................
........................................................................
------------------------------------------------------------
  cycle        total energy    energy error   density error
------------------------------------------------------------
      1     -146.0424758937  -1.4710640E+02   2.3407724E-03
      2     -146.0424851209  -9.2272068E-06   1.4577881E-03
      3     -146.0423689315   1.1618938E-04   1.1393919E-03
      4     -146.0425230826  -1.5415105E-04   2.5020073E-04
      5     -146.0425285629  -5.4802843E-06   1.2393687E-04
      6     -146.0425298249  -1.2620026E-06   5.0343116E-05
      7     -146.0425299848  -1.5997227E-07   2.5539404E-05
      8     -146.0425300293  -4.4483130E-08   1.2875634E-05
------------------------------------------------------------

 total:                                   0.291 sec
 * total energy  :  -146.0425300 Eh     change       -0.3532730E-02 Eh
   gradient norm :     0.0205951 Eh/α   predicted    -0.2527655E-02 ( -28.45%)
   displ. norm   :     0.4116862 α      lambda       -0.3328202E-02
   maximum displ.:     0.1526003 α      in ANC's #5, #11, #12, ...

........................................................................
.............................. CYCLE   23 ..............................
........................................................................
------------------------------------------------------------
  cycle        total energy    energy error   density error
------------------------------------------------------------
      1     -146.0447113780  -1.4710803E+02   2.7880409E-03
      2     -146.0447208798  -9.5017174E-06   1.7311319E-03
      3     -146.0445667702   1.5410953E-04   1.4061112E-03
      4     -146.0447865746  -2.1980437E-04   3.1005575E-04
      5     -146.0447935573  -6.9827360E-06   1.6520784E-04
      6     -146.0447960049  -2.4475192E-06   6.5061155E-05
      7     -146.0447962563  -2.5144399E-07   3.2401037E-05
      8     -146.0447963341  -7.7783056E-08   1.6337545E-05
------------------------------------------------------------

 total:                                   0.306 sec
 * total energy  :  -146.0447963 Eh     change       -0.2266305E-02 Eh
   gradient norm :     0.0110279 Eh/α   predicted    -0.1946714E-02 ( -14.10%)
   displ. norm   :     0.3810849 α      lambda       -0.1394400E-02
   maximum displ.:     0.1603107 α      in ANC's #5, #11, #10, ...

........................................................................
.............................. CYCLE   24 ..............................
........................................................................
------------------------------------------------------------
  cycle        total energy    energy error   density error
------------------------------------------------------------
      1     -146.0458040822  -1.4710838E+02   2.3820278E-03
      2     -146.0458043993  -3.1711497E-07   1.4613594E-03
      3     -146.0456657433   1.3865605E-04   1.2246790E-03
      4     -146.0458428794  -1.7713610E-04   2.2484420E-04
      5     -146.0458469443  -4.0649232E-06   1.1406035E-04
      6     -146.0458481810  -1.2366863E-06   4.4424802E-05
      7     -146.0458483058  -1.2485205E-07   2.1648069E-05
      8     -146.0458483361  -3.0286827E-08   1.0811134E-05
------------------------------------------------------------

 total:                                   0.317 sec
 * total energy  :  -146.0458483 Eh     change       -0.1052002E-02 Eh
   gradient norm :     0.0120553 Eh/α   predicted    -0.7984548E-03 ( -24.10%)
   displ. norm   :     0.4533125 α      lambda       -0.1245562E-02
   maximum displ.:     0.1996165 α      in ANC's #11, #5, #10, ...

........................................................................
.............................. CYCLE   25 ..............................
........................................................................
------------------------------------------------------------
  cycle        total energy    energy error   density error
------------------------------------------------------------
      1     -146.0467550470  -1.4710943E+02   2.7785479E-03
      2     -146.0467545620   4.8500891E-07   1.6949873E-03
      3     -146.0465601446   1.9441739E-04   1.3897937E-03
      4     -146.0467948031  -2.3465850E-04   2.4238711E-04
      5     -146.0468005664  -5.7633233E-06   1.0751130E-04
      6     -146.0468016669  -1.1004512E-06   4.3118020E-05
      7     -146.0468018063  -1.3939982E-07   2.0390143E-05
      8     -146.0468018250  -1.8739286E-08   9.9430989E-06
------------------------------------------------------------

 total:                                   0.319 sec
 * total energy  :  -146.0468018 Eh     change       -0.9534889E-03 Eh
   gradient norm :     0.0128886 Eh/α   predicted    -0.7507660E-03 ( -21.26%)
   displ. norm   :     0.4736929 α      lambda       -0.1163549E-02
   maximum displ.:     0.2038707 α      in ANC's #11, #5, #7, ...

........................................................................
.............................. CYCLE   26 ..............................
........................................................................
------------------------------------------------------------
  cycle        total energy    energy error   density error
------------------------------------------------------------
      1     -146.0476729927  -1.4711173E+02   2.8160382E-03
      2     -146.0476761952  -3.2024520E-06   1.7034143E-03
      3     -146.0474949919   1.8120325E-04   1.3030614E-03
      4     -146.0477034618  -2.0846984E-04   2.4275369E-04
      5     -146.0477099110  -6.4491824E-06   9.5912371E-05
      6     -146.0477107261  -8.1515472E-07   3.9870229E-05
      7     -146.0477108629  -1.3675466E-07   1.8465907E-05
------------------------------------------------------------

 total:                                   0.266 sec
 * total energy  :  -146.0477109 Eh     change       -0.9090378E-03 Eh
   gradient norm :     0.0122199 Eh/α   predicted    -0.7123182E-03 ( -21.64%)
   displ. norm   :     0.4979274 α      lambda       -0.1115632E-02
   maximum displ.:     0.2467139 α      in ANC's #7, #11, #5, ...

........................................................................
.............................. CYCLE   27 ..............................
........................................................................
------------------------------------------------------------
  cycle        total energy    energy error   density error
------------------------------------------------------------
      1     -146.0485658750  -1.4711398E+02   2.8122342E-03
      2     -146.0485725949  -6.7199038E-06   1.6949237E-03
      3     -146.0484162420   1.5635293E-04   1.1690893E-03
      4     -146.0485897647  -1.7352271E-04   2.2866905E-04
      5     -146.0485952749  -5.5101991E-06   9.1670961E-05
      6     -146.0485959527  -6.7781613E-07   4.0767555E-05
      7     -146.0485960904  -1.3770790E-07   2.0103350E-05
      8     -146.0485961150  -2.4537712E-08   8.6059059E-06
------------------------------------------------------------

 total:                                   0.337 sec
 * total energy  :  -146.0485961 Eh     change       -0.8852521E-03 Eh
   gradient norm :     0.0118476 Eh/α   predicted    -0.6961914E-03 ( -21.36%)
   displ. norm   :     0.5147854 α      lambda       -0.1089498E-02
   maximum displ.:     0.2955477 α      in ANC's #7, #10, #5, ...

........................................................................
.............................. CYCLE   28 ..............................
........................................................................
------------------------------------------------------------
  cycle        total energy    energy error   density error
------------------------------------------------------------
      1     -146.0494372122  -1.4711626E+02   2.6532519E-03
      2     -146.0494475049  -1.0292666E-05   1.5902561E-03
      3     -146.0493547550   9.2749834E-05   9.2926796E-04
      4     -146.0494538052  -9.9050175E-05   2.2571394E-04
      5     -146.0494596042  -5.7989838E-06   8.2717937E-05
      6     -146.0494600503  -4.4609209E-07   3.6569894E-05
      7     -146.0494601236  -7.3324969E-08   2.1751750E-05
      8     -146.0494601691  -4.5527457E-08   8.7421596E-06
------------------------------------------------------------

 total:                                   0.303 sec
 * total energy  :  -146.0494602 Eh     change       -0.8640542E-03 Eh
   gradient norm :     0.0119707 Eh/α   predicted    -0.6891112E-03 ( -20.25%)
   displ. norm   :     0.5284316 α      lambda       -0.1067501E-02
   maximum displ.:     0.3268014 α      in ANC's #7, #10, #5, ...

........................................................................
.............................. CYCLE   29 ..............................
........................................................................
------------------------------------------------------------
  cycle        total energy    energy error   density error
------------------------------------------------------------
      1     -146.0503020910  -1.4711718E+02   2.5210888E-03
      2     -146.0503113950  -9.3039482E-06   1.5046373E-03
      3     -146.0502523230   5.9071988E-05   7.6652775E-04
      4     -146.0503155445  -6.3221503E-05   1.9613126E-04
      5     -146.0503192406  -3.6961023E-06   8.8531147E-05
      6     -146.0503200677  -8.2710346E-07   3.1165613E-05
      7     -146.0503201345  -6.6777289E-08   1.7713149E-05
------------------------------------------------------------

 total:                                   0.253 sec
 * total energy  :  -146.0503201 Eh     change       -0.8599654E-03 Eh
   gradient norm :     0.0133410 Eh/α   predicted    -0.6828111E-03 ( -20.60%)
   displ. norm   :     0.5083070 α      lambda       -0.1388972E-02
   maximum displ.:     0.3370754 α      in ANC's #7, #16, #10, ...

........................................................................
.............................. CYCLE   30 ..............................
........................................................................
------------------------------------------------------------
  cycle        total energy    energy error   density error
------------------------------------------------------------
      1     -146.0508377227  -1.4712569E+02   2.4114253E-03
      2     -146.0508591524  -2.1429706E-05   1.4133384E-03
      3     -146.0508218791   3.7273309E-05   7.0183854E-04
      4     -146.0508683870  -4.6507896E-05   1.8792876E-04
      5     -146.0508705345  -2.1475522E-06   8.7907214E-05
      6     -146.0508710803  -5.4583410E-07   4.2292324E-05
      7     -146.0508711240  -4.3629825E-08   2.3185720E-05
      8     -146.0508711722  -4.8273705E-08   1.2488889E-05
------------------------------------------------------------

 total:                                   0.332 sec
 * total energy  :  -146.0508712 Eh     change       -0.5510378E-03 Eh
   gradient norm :     0.0178107 Eh/α   predicted    -0.8739246E-03 (  58.60%)
   displ. norm   :     0.5926579 α      lambda       -0.1919509E-02
   maximum displ.:     0.3280379 α      in ANC's #7, #10, #11, ...

........................................................................
.............................. CYCLE   31 ..............................
........................................................................
------------------------------------------------------------
  cycle        total energy    energy error   density error
------------------------------------------------------------
      1     -146.0516925001  -1.4711652E+02   3.0302968E-03
      2     -146.0517090554  -1.6555221E-05   1.8111130E-03
      3     -146.0516537760   5.5279404E-05   7.0790195E-04
      4     -146.0517180432  -6.4267287E-05   1.6491649E-04
      5     -146.0517189575  -9.1421506E-07   1.0143647E-04
      6     -146.0517198889  -9.3144465E-07   4.3437396E-05
      7     -146.0517199788  -8.9853529E-08   2.7845576E-05
      8     -146.0517200535  -7.4773368E-08   9.3829382E-06
------------------------------------------------------------

 total:                                   0.285 sec
 * total energy  :  -146.0517201 Eh     change       -0.8488813E-03 Eh
   gradient norm :     0.0215098 Eh/α   predicted    -0.1296862E-02 (  52.77%)
   displ. norm   :     0.1114779 α      lambda       -0.7291317E-03
   maximum displ.:     0.0442099 α      in ANC's #11, #7, #16, ...

........................................................................
.............................. CYCLE   32 ..............................
........................................................................
------------------------------------------------------------
  cycle        total energy    energy error   density error
------------------------------------------------------------
      1     -146.0522719057  -1.4711837E+02   7.6518403E-04
      2     -146.0522746217  -2.7159662E-06   4.6930181E-04
      3     -146.0522665368   8.0849138E-06   2.9894290E-04
      4     -146.0522766353  -1.0098530E-05   7.8700652E-05
      5     -146.0522771570  -5.2166135E-07   4.1932339E-05
      6     -146.0522773095  -1.5257092E-07   1.8519373E-05
------------------------------------------------------------

 total:                                   0.232 sec
 * total energy  :  -146.0522773 Eh     change       -0.5572560E-03 Eh
   gradient norm :     0.0130499 Eh/α   predicted    -0.3690996E-03 ( -33.76%)
   displ. norm   :     0.4168779 α      lambda       -0.1208309E-02
   maximum displ.:     0.1937364 α      in ANC's #7, #16, #10, ...

........................................................................
.............................. CYCLE   33 ..............................
........................................................................
------------------------------------------------------------
  cycle        total energy    energy error   density error
------------------------------------------------------------
      1     -146.0531507277  -1.4712117E+02   2.0205777E-03
      2     -146.0531569286  -6.2008865E-06   1.2284601E-03
      3     -146.0531100798   4.6848731E-05   6.0275152E-04
      4     -146.0531608529  -5.0773104E-05   1.4809621E-04
      5     -146.0531628247  -1.9717562E-06   7.5258925E-05
      6     -146.0531631874  -3.6269782E-07   3.5164735E-05
      7     -146.0531632271  -3.9720504E-08   1.7240856E-05
------------------------------------------------------------

 total:                                   0.251 sec
 * total energy  :  -146.0531632 Eh     change       -0.8859176E-03 Eh
   gradient norm :     0.0079817 Eh/α   predicted    -0.7091517E-03 ( -19.95%)
   displ. norm   :     0.6533544 α      lambda       -0.1150388E-02
   maximum displ.:     0.3391492 α      in ANC's #7, #10, #16, ...

........................................................................
.............................. CYCLE   34 ..............................
........................................................................
------------------------------------------------------------
  cycle        total energy    energy error   density error
------------------------------------------------------------
      1     -146.0539723450  -1.4711879E+02   2.8778330E-03
      2     -146.0539813032  -8.9582162E-06   1.7304605E-03
      3     -146.0539484002   3.2903049E-05   4.9172591E-04
      4     -146.0539857690  -3.7368894E-05   1.1944844E-04
      5     -146.0539867300  -9.6090668E-07   5.8261649E-05
      6     -146.0539868830  -1.5304178E-07   2.6958555E-05
      7     -146.0539869127  -2.9727119E-08   1.0566488E-05
------------------------------------------------------------

 total:                                   0.276 sec
 * total energy  :  -146.0539869 Eh     change       -0.8236856E-03 Eh
   gradient norm :     0.0154867 Eh/α   predicted    -0.8207345E-03 (  -0.36%)
   displ. norm   :     0.4879809 α      lambda       -0.1158667E-02
   maximum displ.:     0.2587157 α      in ANC's #16, #4, #10, ...

........................................................................
.............................. CYCLE   35 ..............................
........................................................................
------------------------------------------------------------
  cycle        total energy    energy error   density error
------------------------------------------------------------
      1     -146.0547558407  -1.4712308E+02   2.7856601E-03
      2     -146.0547710846  -1.5243924E-05   1.6559877E-03
      3     -146.0547367212   3.4363478E-05   5.9158301E-04
      4     -146.0547768395  -4.0118352E-05   1.4392517E-04
      5     -146.0547779230  -1.0834822E-06   7.5216192E-05
      6     -146.0547782034  -2.8038420E-07   3.6061410E-05
      7     -146.0547782674  -6.4038488E-08   1.8392754E-05
------------------------------------------------------------

 total:                                   0.296 sec
 * total energy  :  -146.0547783 Eh     change       -0.7913547E-03 Eh
   gradient norm :     0.0156573 Eh/α   predicted    -0.7172913E-03 (  -9.36%)
   displ. norm   :     0.5390372 α      lambda       -0.1135301E-02
   maximum displ.:     0.2854984 α      in ANC's #16, #7, #10, ...

........................................................................
.............................. CYCLE   36 ..............................
........................................................................
------------------------------------------------------------
  cycle        total energy    energy error   density error
------------------------------------------------------------
      1     -146.0555050488  -1.4712147E+02   2.2626510E-03
      2     -146.0555226454  -1.7596661E-05   1.3762399E-03
      3     -146.0555021708   2.0474626E-05   4.6755177E-04
      4     -146.0555253866  -2.3215799E-05   1.7006338E-04
      5     -146.0555277651  -2.3784824E-06   9.7734346E-05
      6     -146.0555282965  -5.3144393E-07   5.2949951E-05
      7     -146.0555284418  -1.4523314E-07   2.0771495E-05
      8     -146.0555284926  -5.0881454E-08   9.3897394E-06
------------------------------------------------------------

 total:                                   0.316 sec
 * total energy  :  -146.0555285 Eh     change       -0.7502252E-03 Eh
   gradient norm :     0.0132494 Eh/α   predicted    -0.7325924E-03 (  -2.35%)
   displ. norm   :     0.4040306 α      lambda       -0.1169840E-02
   maximum displ.:     0.2227166 α      in ANC's #16, #4, #18, ...

........................................................................
.............................. CYCLE   37 ..............................
........................................................................
------------------------------------------------------------
  cycle        total energy    energy error   density error
------------------------------------------------------------
      1     -146.0557616126  -1.4712997E+02   2.7178740E-03
      2     -146.0557791510  -1.7538377E-05   1.5847419E-03
      3     -146.0557275780   5.1573069E-05   6.9835629E-04
      4     -146.0557841127  -5.6534746E-05   2.0397456E-04
      5     -146.0557873679  -3.2551585E-06   1.0786843E-04
      6     -146.0557884959  -1.1280692E-06   4.7381312E-05
      7     -146.0557886283  -1.3233506E-07   1.8127830E-05
------------------------------------------------------------

 total:                                   0.256 sec
 * total energy  :  -146.0557886 Eh     change       -0.2601356E-03 Eh
   gradient norm :     0.0195470 Eh/α   predicted    -0.6804028E-03 ( 161.56%)
   displ. norm   :     0.5244626 α      lambda       -0.1482318E-02
   maximum displ.:     0.2274007 α      in ANC's #16, #7, #4, ...

........................................................................
.............................. CYCLE   38 ..............................
........................................................................
------------------------------------------------------------
  cycle        total energy    energy error   density error
------------------------------------------------------------
      1     -146.0564633067  -1.4712184E+02   2.4963457E-03
      2     -146.0564743044  -1.0997717E-05   1.4954352E-03
      3     -146.0564397636   3.4540771E-05   5.3173551E-04
      4     -146.0564791791  -3.9415531E-05   1.2937628E-04
      5     -146.0564801914  -1.0122951E-06   7.0901845E-05
      6     -146.0564803584  -1.6690831E-07   4.3385744E-05
      7     -146.0564805163  -1.5795203E-07   1.9352631E-05
------------------------------------------------------------

 total:                                   0.253 sec
 * total energy  :  -146.0564805 Eh     change       -0.6918880E-03 Eh
   gradient norm :     0.0156413 Eh/α   predicted    -0.9450222E-03 (  36.59%)
   displ. norm   :     0.1753545 α      lambda       -0.6349551E-03
   maximum displ.:     0.0911969 α      in ANC's #5, #12, #4, ...

........................................................................
.............................. CYCLE   39 ..............................
........................................................................
------------------------------------------------------------
  cycle        total energy    energy error   density error
------------------------------------------------------------
      1     -146.0567687705  -1.4712121E+02   1.2338703E-03
      2     -146.0567807994  -1.2028899E-05   7.8874772E-04
      3     -146.0567713100   9.4894252E-06   4.1951669E-04
      4     -146.0567849666  -1.3656559E-05   1.2181353E-04
      5     -146.0567863269  -1.3602943E-06   6.7527867E-05
      6     -146.0567866185  -2.9168453E-07   3.8059102E-05
      7     -146.0567866714  -5.2818535E-08   2.0453308E-05
      8     -146.0567867135  -4.2113982E-08   7.8233506E-06
------------------------------------------------------------

 total:                                   0.298 sec
 * total energy  :  -146.0567867 Eh     change       -0.3061972E-03 Eh
   gradient norm :     0.0138498 Eh/α   predicted    -0.3272445E-03 (   6.87%)
   displ. norm   :     0.2692893 α      lambda       -0.6744794E-03
   maximum displ.:     0.0982762 α      in ANC's #16, #2, #12, ...

........................................................................
.............................. CYCLE   40 ..............................
........................................................................
------------------------------------------------------------
  cycle        total energy    energy error   density error
------------------------------------------------------------
      1     -146.0571656010  -1.4712631E+02   1.3706876E-03
      2     -146.0571737840  -8.1829619E-06   8.2612055E-04
      3     -146.0571548095   1.8974509E-05   4.9143010E-04
      4     -146.0571790133  -2.4203809E-05   1.1754245E-04
      5     -146.0571797924  -7.7908641E-07   7.1455598E-05
      6     -146.0571802770  -4.8458168E-07   3.2821214E-05
      7     -146.0571803278  -5.0867953E-08   1.4381561E-05
------------------------------------------------------------

 total:                                   0.274 sec
 * total energy  :  -146.0571803 Eh     change       -0.3936143E-03 Eh
   gradient norm :     0.0096712 Eh/α   predicted    -0.3616960E-03 (  -8.11%)
   displ. norm   :     0.4621513 α      lambda       -0.6071117E-03
   maximum displ.:     0.1654606 α      in ANC's #16, #2, #10, ...

........................................................................
.............................. CYCLE   41 ..............................
........................................................................
------------------------------------------------------------
  cycle        total energy    energy error   density error
------------------------------------------------------------
      1     -146.0575762801  -1.4712481E+02   2.2640936E-03
      2     -146.0575830319  -6.7517413E-06   1.3508739E-03
      3     -146.0575565743   2.6457578E-05   4.8726294E-04
      4     -146.0575861634  -2.9589139E-05   1.1817139E-04
      5     -146.0575870775  -9.1405698E-07   6.6378239E-05
      6     -146.0575874478  -3.7034218E-07   3.7628865E-05
      7     -146.0575875316  -8.3764263E-08   1.8200816E-05
------------------------------------------------------------

 total:                                   0.267 sec
 * total energy  :  -146.0575875 Eh     change       -0.4072037E-03 Eh
   gradient norm :     0.0083992 Eh/α   predicted    -0.3683928E-03 (  -9.53%)
   displ. norm   :     0.3764358 α      lambda       -0.4865740E-03
   maximum displ.:     0.1272336 α      in ANC's #2, #12, #3, ...

........................................................................
.............................. CYCLE   42 ..............................
........................................................................
------------------------------------------------------------
  cycle        total energy    energy error   density error
------------------------------------------------------------
      1     -146.0578678270  -1.4712534E+02   1.8849609E-03
      2     -146.0578739005  -6.0735404E-06   1.1293183E-03
      3     -146.0578080128   6.5887699E-05   7.0991202E-04
      4     -146.0578807303  -7.2717534E-05   1.7094558E-04
      5     -146.0578835216  -2.7913077E-06   7.0373190E-05
      6     -146.0578839016  -3.7991444E-07   4.4157429E-05
      7     -146.0578840708  -1.6927612E-07   1.5063579E-05
------------------------------------------------------------

 total:                                   0.248 sec
 * total energy  :  -146.0578841 Eh     change       -0.2965393E-03 Eh
   gradient norm :     0.0095529 Eh/α   predicted    -0.2777653E-03 (  -6.33%)
   displ. norm   :     0.3579158 α      lambda       -0.4916064E-03
   maximum displ.:     0.1496887 α      in ANC's #12, #3, #2, ...
 * RMSD in coord.:     0.9513661 α      energy gain  -0.2115894E-01 Eh

generating ANC from exact Hessian ...
Using Lindh-Hessian (1995)
 Shifting diagonal of input Hessian by    9.7172594538310862E-003
 Lowest  eigenvalues of input Hessian
    0.000000    0.000000    0.000000    0.000000    0.000000    0.000000
    0.010000    0.010216    0.010414    0.010586    0.011514    0.011836
    0.012138    0.012425    0.012640    0.012923    0.012947    0.013744
 Highest eigenvalues
    2.216599    2.227342    2.239957    2.249781    2.275001    2.293594


........................................................................
.............................. CYCLE   43 ..............................
........................................................................
------------------------------------------------------------
  cycle        total energy    energy error   density error
------------------------------------------------------------
      1     -146.0581389287  -1.4712711E+02   1.9468663E-03
      2     -146.0581408946  -1.9658672E-06   1.1780360E-03
      3     -146.0580416426   9.9251991E-05   9.3475798E-04
      4     -146.0581603513  -1.1870870E-04   2.1138295E-04
      5     -146.0581643935  -4.0422685E-06   8.7849332E-05
      6     -146.0581652060  -8.1249016E-07   3.8663932E-05
      7     -146.0581652835  -7.7502989E-08   1.7570109E-05
------------------------------------------------------------

 total:                                   0.253 sec
 * total energy  :  -146.0581653 Eh     change       -0.2812127E-03 Eh
   gradient norm :     0.0110140 Eh/α   predicted     0.0000000E+00 (-100.00%)
   displ. norm   :     0.1290454 α      lambda       -0.4489294E-03
   maximum displ.:     0.0809319 α      in ANC's #6, #9, #8, ...

........................................................................
.............................. CYCLE   44 ..............................
........................................................................
------------------------------------------------------------
  cycle        total energy    energy error   density error
------------------------------------------------------------
      1     -146.0585394442  -1.4712779E+02   8.5754018E-04
      2     -146.0585417858  -2.3416027E-06   5.2203976E-04
      3     -146.0585309042   1.0881693E-05   3.2766141E-04
      4     -146.0585446109  -1.3706699E-05   6.0388397E-05
      5     -146.0585448774  -2.6656244E-07   3.1951166E-05
      6     -146.0585449369  -5.9528134E-08   1.4194606E-05
------------------------------------------------------------

 total:                                   0.228 sec
 * total energy  :  -146.0585449 Eh     change       -0.3796534E-03 Eh
   gradient norm :     0.0063823 Eh/α   predicted    -0.2282906E-03 ( -39.87%)
   displ. norm   :     0.4021075 α      lambda       -0.9068947E-03
   maximum displ.:     0.2669304 α      in ANC's #6, #9, #8, ...

........................................................................
.............................. CYCLE   45 ..............................
........................................................................
------------------------------------------------------------
  cycle        total energy    energy error   density error
------------------------------------------------------------
      1     -146.0591681672  -1.4712789E+02   2.2950947E-03
      2     -146.0591841665  -1.5999329E-05   1.3954403E-03
      3     -146.0591104068   7.3759649E-05   8.5184009E-04
      4     -146.0592008377  -9.0430871E-05   1.6157221E-04
      5     -146.0592025683  -1.7305743E-06   8.3722101E-05
      6     -146.0592030147  -4.4642169E-07   4.4584063E-05
      7     -146.0592031345  -1.1983366E-07   2.7814462E-05
      8     -146.0592032208  -8.6227914E-08   9.0165307E-06
------------------------------------------------------------

 total:                                   0.289 sec
 * total energy  :  -146.0592032 Eh     change       -0.6582838E-03 Eh
   gradient norm :     0.0063976 Eh/α   predicted    -0.5267997E-03 ( -19.97%)
   displ. norm   :     0.4104953 α      lambda       -0.5695979E-03
   maximum displ.:     0.2838313 α      in ANC's #6, #9, #3, ...

........................................................................
.............................. CYCLE   46 ..............................
........................................................................
------------------------------------------------------------
  cycle        total energy    energy error   density error
------------------------------------------------------------
      1     -146.0596443439  -1.4712707E+02   2.1345138E-03
      2     -146.0596562570  -1.1913100E-05   1.2926079E-03
      3     -146.0595885078   6.7749281E-05   8.5650155E-04
      4     -146.0596696988  -8.1191012E-05   1.8651840E-04
      5     -146.0596728056  -3.1067972E-06   9.2862869E-05
      6     -146.0596735921  -7.8649441E-07   4.4815748E-05
      7     -146.0596737380  -1.4597902E-07   2.1971709E-05
      8     -146.0596737799  -4.1874245E-08   7.8737229E-06
------------------------------------------------------------

 total:                                   0.296 sec
 * total energy  :  -146.0596738 Eh     change       -0.4705591E-03 Eh
   gradient norm :     0.0100599 Eh/α   predicted    -0.3327902E-03 ( -29.28%)
   displ. norm   :     0.4411723 α      lambda       -0.6092977E-03
   maximum displ.:     0.3019557 α      in ANC's #6, #3, #9, ...

........................................................................
.............................. CYCLE   47 ..............................
........................................................................
------------------------------------------------------------
  cycle        total energy    energy error   density error
------------------------------------------------------------
      1     -146.0601435480  -1.4712669E+02   2.1907544E-03
      2     -146.0601548020  -1.1254044E-05   1.3202964E-03
      3     -146.0600790325   7.5769477E-05   9.3401399E-04
      4     -146.0601702222  -9.1189708E-05   2.1467415E-04
      5     -146.0601752721  -5.0498889E-06   9.0147879E-05
      6     -146.0601759558  -6.8368215E-07   4.3600713E-05
      7     -146.0601760891  -1.3324311E-07   2.1407191E-05
      8     -146.0601761271  -3.8020971E-08   7.4501158E-06
------------------------------------------------------------

 total:                                   0.331 sec
 * total energy  :  -146.0601761 Eh     change       -0.5023472E-03 Eh
   gradient norm :     0.0123681 Eh/α   predicted    -0.3639448E-03 ( -27.55%)
   displ. norm   :     0.4785483 α      lambda       -0.7320340E-03
   maximum displ.:     0.3298233 α      in ANC's #6, #3, #9, ...

........................................................................
.............................. CYCLE   48 ..............................
........................................................................
------------------------------------------------------------
  cycle        total energy    energy error   density error
------------------------------------------------------------
      1     -146.0606909554  -1.4712745E+02   2.3715191E-03
      2     -146.0607019757  -1.1020346E-05   1.4156024E-03
      3     -146.0606067389   9.5236851E-05   1.0595588E-03
      4     -146.0607220342  -1.1529529E-04   2.5702273E-04
      5     -146.0607300896  -8.0554245E-06   9.0171300E-05
      6     -146.0607306929  -6.0330314E-07   4.4329460E-05
      7     -146.0607308506  -1.5763951E-07   2.0360939E-05
      8     -146.0607308776  -2.7033764E-08   7.5613722E-06
------------------------------------------------------------

 total:                                   0.289 sec
 * total energy  :  -146.0607309 Eh     change       -0.5547505E-03 Eh
   gradient norm :     0.0141637 Eh/α   predicted    -0.4498389E-03 ( -18.91%)
   displ. norm   :     0.3684201 α      lambda       -0.7047413E-03
   maximum displ.:     0.2473662 α      in ANC's #6, #3, #2, ...

........................................................................
.............................. CYCLE   49 ..............................
........................................................................
------------------------------------------------------------
  cycle        total energy    energy error   density error
------------------------------------------------------------
      1     -146.0612182338  -1.4713030E+02   1.9589272E-03
      2     -146.0612266728  -8.4389735E-06   1.1552519E-03
      3     -146.0611571357   6.9537165E-05   8.6920380E-04
      4     -146.0612389016  -8.1765949E-05   2.1998891E-04
      5     -146.0612447017  -5.8001007E-06   7.7318037E-05
      6     -146.0612451959  -4.9423895E-07   3.6253771E-05
      7     -146.0612452932  -9.7278388E-08   1.6533354E-05
------------------------------------------------------------

 total:                                   0.263 sec
 * total energy  :  -146.0612453 Eh     change       -0.5144156E-03 Eh
   gradient norm :     0.0127880 Eh/α   predicted    -0.4002011E-03 ( -22.20%)
   displ. norm   :     0.4047508 α      lambda       -0.5960650E-03
   maximum displ.:     0.2637108 α      in ANC's #6, #3, #2, ...

........................................................................
.............................. CYCLE   50 ..............................
........................................................................
------------------------------------------------------------
  cycle        total energy    energy error   density error
------------------------------------------------------------
      1     -146.0616571562  -1.4713031E+02   2.1605531E-03
      2     -146.0616649772  -7.8209515E-06   1.2905609E-03
      3     -146.0615653403   9.9636886E-05   9.7464346E-04
      4     -146.0616826518  -1.1731150E-04   2.1932822E-04
      5     -146.0616878696  -5.2177788E-06   8.5342476E-05
      6     -146.0616886317  -7.6211893E-07   4.0384576E-05
      7     -146.0616887483  -1.1660447E-07   1.7915496E-05
[...]
    32  16 S       37   9 F                                       1.6536244
    20   6 C       38  16 S                                       1.8398055
    38  16 S       39   9 F                                       1.6734557
    38  16 S       40   9 F                                       1.6533201
    38  16 S       41   9 F                                       1.6143420
    38  16 S       42   9 F                                       1.6623248
    38  16 S       43   9 F                                       1.6644865
    16   6 C       44  16 S                                       1.8534545
    44  16 S       45   9 F                                       1.6431210
    44  16 S       46   9 F                                       1.6569762
    44  16 S       47   9 F                                       1.6163717
    44  16 S       48   9 F                                       1.6606399
    44  16 S       49   9 F                                       1.6841179
    31   6 C       50   1 H                                       1.0885470
    31   6 C       51   1 H                                       1.0928479
    31   6 C       52   1 H                                       1.0925044
    30   6 C       53   1 H                                       1.0888007
    30   6 C       54   1 H                                       1.0914342
    30   6 C       55   1 H                                       1.0932170
    56   6 C       57   6 C                                       1.3914781
    57   6 C       58   6 C                                       1.4220591
    58   6 C       59   6 C                                       1.4286779
    59   6 C       60   6 C                                       1.4213397
    56   6 C       61   6 C                                       1.3853439
    60   6 C       61   6 C                                       1.3551622
    58   6 C       62   6 C                                       1.4298641
    62   6 C       63   6 C                                       1.4041728
    63   6 C       64   6 C                                       1.4259938
    59   6 C       65   7 N                                       1.3306868
    64   6 C       65   7 N                                       1.3260676
    62   6 C       66   6 C                                       1.4281538
    66   6 C       67   6 C                                       1.4318213
    67   6 C       68   7 N                                       1.3311981
    63   6 C       69   6 C                                       1.4274620
    68   7 N       69   6 C                                       1.3250342
    69   6 C       70   6 C                                       1.4181311
    70   6 C       71   6 C                                       1.3711759
    64   6 C       72   6 C                                       1.4155113
    71   6 C       72   6 C                                       1.3712320
    66   6 C       73   6 C                                       1.4225484
    73   6 C       74   6 C                                       1.3887415
    74   6 C       75   6 C                                       1.3866503
    67   6 C       76   6 C                                       1.4206710
    75   6 C       76   6 C                                       1.3550891
    73   6 C       77   8 O                                       1.3373795
    57   6 C       78   8 O                                       1.3343724
    60   6 C       79   1 H                                       1.0741933
    56   6 C       80   1 H                                       1.0739466 (min)
Note: The following floating-point exceptions are signalling: IEEE_UNDERFLOW_FLAG
normal termination of xtb
    72   6 C       81   1 H                                       1.0761393
    70   6 C       82   1 H                                       1.0765792
    76   6 C       83   1 H                                       1.0753805
    74   6 C       84   1 H                                       1.0750581
    77   8 O       85   6 C                                       1.4162233
    78   8 O       86   6 C                                       1.4205612
    61   6 C       87  16 S                                       1.8536572 (max)
    87  16 S       88   9 F                                       1.6740492
    87  16 S       89   9 F                                       1.6516595
    87  16 S       90   9 F                                       1.6251375
    87  16 S       91   9 F                                       1.6835122
    87  16 S       92   9 F                                       1.6541174
    75   6 C       93  16 S                                       1.8453729
    93  16 S       94   9 F                                       1.6642934
    93  16 S       95   9 F                                       1.6653351
    93  16 S       96   9 F                                       1.6106979
    93  16 S       97   9 F                                       1.6540521
    93  16 S       98   9 F                                       1.6536979
    71   6 C       99  16 S                                       1.8464824
    99  16 S      100   9 F                                       1.6623336
    99  16 S      101   9 F                                       1.6469319
    99  16 S      102   9 F                                       1.6147059
    99  16 S      103   9 F                                       1.6636287
    99  16 S      104   9 F                                       1.6469328
    86   6 C      105   1 H                                       1.0887848
    86   6 C      106   1 H                                       1.0936967
    86   6 C      107   1 H                                       1.0926872
    85   6 C      108   1 H                                       1.0885005
    85   6 C      109   1 H                                       1.0927424
    85   6 C      110   1 H                                       1.0923666

 * 6 distinct bonds (by element types)

   Z      Z             #   av. dist./Å        max./Å        min./Å
   1 H    6 C          24     1.0832716     1.0936967     1.0739466
   6 C    6 C          42     1.4046672     1.4322781     1.3532835
   6 C    7 N           8     1.3291774     1.3340013     1.3250342
   6 C    8 O           8     1.3765000     1.4205612     1.3326464
   6 C   16 S           6     1.8473448     1.8536572     1.8398055
   9 F   16 S          30     1.6516133     1.6841179     1.6106846


optimized geometry written to: xtbopt.mol


           -------------------------------------------------
          | TOTAL ENERGY             -292.192932070104 Eh   |
          | GRADIENT NORM               0.000095277541 Eh/α |
           -------------------------------------------------

------------------------------------------------------------------------
 * finished run on 2025/02/24 at 15:41:19.922     
------------------------------------------------------------------------
 total:
 * wall-time:     0 d,  0 h,  1 min, 22.791 sec
 *  cpu-time:     0 d,  0 h,  3 min, 33.309 sec
 * ratio c/w:     2.576 speedup
 SCF:
 * wall-time:     0 d,  0 h,  0 min,  1.943 sec
 *  cpu-time:     0 d,  0 h,  0 min,  5.565 sec
 * ratio c/w:     2.865 speedup
 ANC optimizer:
 * wall-time:     0 d,  0 h,  1 min, 20.842 sec
 *  cpu-time:     0 d,  0 h,  3 min, 27.740 sec
 * ratio c/w:     2.570 speedup

      -----------------------------------------------------------      
     |                   =====================                   |     
     |                           x T B                           |     
     |                   =====================                   |     
     |                         S. Grimme                         |     
     |          Mulliken Center for Theoretical Chemistry        |     
     |                    University of Bonn                     |     
      -----------------------------------------------------------      

   * xtb version 6.7.1 (edcfbbe) compiled by 'runner@Mac-1732539442253.local' on 2024-11-25

   xtb is free software: you can redistribute it and/or modify it under
   the terms of the GNU Lesser General Public License as published by
   the Free Software Foundation, either version 3 of the License, or
   (at your option) any later version.
   
   xtb is distributed in the hope that it will be useful,
   but WITHOUT ANY WARRANTY; without even the implied warranty of
   MERCHANTABILITY or FITNESS FOR A PARTICULAR PURPOSE.  See the
   GNU Lesser General Public License for more details.
   
   Cite this work as:
   * C. Bannwarth, E. Caldeweyher, S. Ehlert, A. Hansen, P. Pracht,
     J. Seibert, S. Spicher, S. Grimme, WIREs Comput. Mol. Sci., 2020, 11,
     e01493. DOI: 10.1002/wcms.1493
   
   for GFN2-xTB:
   * C. Bannwarth, S. Ehlert and S. Grimme., J. Chem. Theory Comput., 2019,
     15, 1652-1671. DOI: 10.1021/acs.jctc.8b01176
   for GFN1-xTB:
   * S. Grimme, C. Bannwarth, P. Shushkov, J. Chem. Theory Comput., 2017,
     13, 1989-2009. DOI: 10.1021/acs.jctc.7b00118
   for GFN0-xTB:
   * P. Pracht, E. Caldeweyher, S. Ehlert, S. Grimme, ChemRxiv, 2019, preprint.
     DOI: 10.26434/chemrxiv.8326202.v1
   for GFN-FF:
   * S. Spicher and S. Grimme, Angew. Chem. Int. Ed., 2020, 59, 15665-15673.
     DOI: 10.1002/anie.202004239
   
   for ALPB and GBSA implicit solvation:
   * S. Ehlert, M. Stahn, S. Spicher, S. Grimme, J. Chem. Theory Comput.,
     2021, 17, 4250-4261. DOI: 10.1021/acs.jctc.1c00471
   
   for ddCOSMO and CPCM-X implicit solvation:
   * M. Stahn, S. Ehlert, S. Grimme, J. Phys. Chem. A,
     2023, XX, XXXX-XXXX. DOI: 10.1021/acs.jpca.3c04382
   
   for DFT-D4:
   * E. Caldeweyher, C. Bannwarth and S. Grimme, J. Chem. Phys., 2017,
     147, 034112. DOI: 10.1063/1.4993215
   * E. Caldeweyher, S. Ehlert, A. Hansen, H. Neugebauer, S. Spicher,
     C. Bannwarth and S. Grimme, J. Chem. Phys., 2019, 150, 154122.
     DOI: 10.1063/1.5090222
   * E. Caldeweyher, J.-M. Mewes, S. Ehlert and S. Grimme, Phys. Chem. Chem. Phys.
     2020, 22, 8499-8512. DOI: 10.1039/D0CP00502A
   
   for sTDA-xTB:
   * S. Grimme and C. Bannwarth, J. Chem. Phys., 2016, 145, 054103.
     DOI: 10.1063/1.4959605
   
   in the mass-spec context:
   * V. Asgeirsson, C. Bauer and S. Grimme, Chem. Sci., 2017, 8, 4879.
     DOI: 10.1039/c7sc00601b
   * J. Koopman and S. Grimme, ACS Omega 2019, 4, 12, 15120-15133.
     DOI: 10.1021/acsomega.9b02011
   
   for metadynamics refer to:
   * S. Grimme, J. Chem. Theory Comput., 2019, 155, 2847-2862
     DOI: 10.1021/acs.jctc.9b00143
   
   for SPH calculations refer to:
   * S. Spicher and S. Grimme, J. Chem. Theory Comput., 2021, 17, 1701-1714
     DOI: 10.1021/acs.jctc.0c01306
   
   for ONIOM refer to:
   * C. Plett, A. Katbashev, S. Ehlert, S. Grimme, M. Bursch,
     Phys. Chem. Chem. Phys., 2023, 25, 17860-17868. DOI: 10.1039/D3CP02178E
   
   for DIPRO refer to:
   * J. Kohn, N. Gildemeister, S. Grimme, D. Fazzi, A. Hansen,
     J. Chem. Phys., 2023, just accepted.
   
   for PTB refer to:
   * S. Grimme, M. Mueller, A. Hansen, J. Chem. Phys., 2023, 158, 124111.
     DOI: 10.1063/5.0137838
   
   with help from (in alphabetical order)
   P. Atkinson, C. Bannwarth, F. Bohle, G. Brandenburg, E. Caldeweyher
   M. Checinski, S. Dohm, S. Ehlert, S. Ehrlich, I. Gerasimov, C. Hölzer
   A. Katbashev, J. Kohn, J. Koopman, C. Lavigne, S. Lehtola, F. März, M. Müller,
   F. Musil, H. Neugebauer, J. Pisarek, C. Plett, P. Pracht, F. Pultar,
   J. Seibert, P. Shushkov, S. Spicher, M. Stahn, M. Steiner, T. Strunk,
   J. Stückrath, T. Rose, and J. Unsleber
   
 * started run on 2025/02/24 at 15:41:19.950     
   ID    Z sym.   atoms
    1    6 C      1-9, 11, 12, 14-21, 30, 31, 56-64, 66, 67, 69-76, 85, 86
    2    7 N      10, 13, 65, 68
    3    8 O      22, 23, 77, 78
    4    1 H      24-29, 50-55, 79-84, 105-110
    5   16 S      32, 38, 44, 87, 93, 99
    6    9 F      33-37, 39-43, 45-49, 88-92, 94-98, 100-104

           -------------------------------------------------
          |                Calculation Setup                |
           -------------------------------------------------

          program call               : xtb opt_dimer.mol --dipro 0.3 --chrg 0 --uhf 2 --spinpol --tblite
          coordinate file            : opt_dimer.mol
          omp threads                :                     8


molecular fragmentation (1/2 indicates fragments):
111111111111111111111111111111111111111111111111111111122222222222222222
22222222222222222222222222222222222222
# atoms in fragment 1/2:    55    55
 fragment masses (1/2) :      705.50      705.50
CMA distance (Bohr)    :  13.956
constraining FC (au)   :  0.0500
Wavefunction read from restart file
           -------------------------------------------------
          |                    D I P R O                    |
           -------------------------------------------------
Calculation for dimer 
--------------------- 
  
charge of dimer :   0.
unpaired e- of dimer :  2
repulsion energy          2.1461296317412E+00 Eh
dispersion energy         7.6199489865070E-03 Eh
number of electrons       4.8200000000000E+02 e
integral cutoff           1.8403572253217E+01 bohr

------------------------------------------------------------
  cycle        total energy    energy error   density error
------------------------------------------------------------
      1     -291.1761519333  -2.9332990E+02   2.6019896E-01
      2     -291.7035365820  -5.2738465E-01   1.3698916E-01
      3     -290.8891874946   8.1434909E-01   9.5964579E-02
      4     -289.1099336598   1.7792538E+00   8.2410638E-02
      5     -291.7370453031  -2.6271116E+00   4.3309456E-02
      6     -292.0563932934  -3.1934799E-01   2.5613781E-02
      7     -292.1409267652  -8.4533472E-02   1.8651500E-02
      8     -292.1774781389  -3.6551374E-02   1.3508645E-02
      9     -292.1823926774  -4.9145385E-03   9.4334098E-03
     10     -292.1856216103  -3.2289329E-03   4.6108166E-03
     11     -292.1864458959  -8.2428559E-04   4.4296435E-03
     12     -292.1880059054  -1.5600095E-03   2.6097989E-03
     13     -292.1883698116  -3.6390620E-04   1.5003551E-03
     14     -292.1887702404  -4.0042876E-04   8.3188328E-04
     15     -292.1888512678  -8.1027462E-05   5.1156134E-04
     16     -292.1888661223  -1.4854420E-05   2.3460348E-04
     17     -292.1888696261  -3.5038245E-06   1.4372504E-04
     18     -292.1888713868  -1.7607487E-06   5.8545082E-05
     19     -292.1888716164  -2.2952668E-07   1.9466426E-05
------------------------------------------------------------

electronic energy        -2.9434262119709E+02 Eh
total energy             -2.9218887161636E+02 Eh

 total:                                   1.339 sec
 - repulsion                              0.000 sec (  0%)
 - dispersion                             0.003 sec (  0%)
 - coulomb                                0.001 sec (  0%)
 - hamiltonian                            0.007 sec (  0%)
 - scc                                    1.328 sec ( 99%)

Found 2 fragments!
Fragment 1:  1-55
Fragment 2:  56-110

[Info] Fragment spin read from .UHFfrag
Calculation for fragment 1
 ------------------------------
   
charge of fragment :   0.
unpaired e- of fragment :  1
------------------------------------------------------------
  cycle        total energy    energy error   density error
------------------------------------------------------------
      1     -145.5485853047  -1.4662242E+02   2.6045240E-01
      2     -145.8812027778  -3.3261747E-01   1.3737833E-01
      3     -145.8391498237   4.2052954E-02   8.5605450E-02
      4     -146.0211896533  -1.8203983E-01   3.4822084E-02
      5     -146.0531680143  -3.1978361E-02   1.6449166E-02
      6     -146.0579913448  -4.8233305E-03   1.1126386E-02
      7     -146.0592343617  -1.2430169E-03   6.3454700E-03
      8     -146.0608944817  -1.6601199E-03   2.1964615E-03
      9     -146.0611342597  -2.3977807E-04   1.1928873E-03
     10     -146.0611939542  -5.9694417E-05   5.2893483E-04
     11     -146.0612077476  -1.3793457E-05   2.3201939E-04
     12     -146.0612098782  -2.1305765E-06   1.0329194E-04
     13     -146.0612102002  -3.2197758E-07   4.4852467E-05
     14     -146.0612102440  -4.3879680E-08   1.6352610E-05
------------------------------------------------------------

 total:                                   0.270 sec
Calculation for fragment 2
 ------------------------------
   
charge of fragment :   0.
unpaired e- of fragment :  1
------------------------------------------------------------
  cycle        total energy    energy error   density error
------------------------------------------------------------
      1     -145.5483668345  -1.4662129E+02   2.5991985E-01
      2     -145.8800195922  -3.3165276E-01   1.3672958E-01
      3     -145.8376521309   4.2367461E-02   8.5511866E-02
      4     -146.0176822605  -1.8003013E-01   3.5135315E-02
      5     -146.0504358701  -3.2753610E-02   1.7061770E-02
      6     -146.0552975904  -4.8617202E-03   1.2097281E-02
      7     -146.0561872005  -8.8961014E-04   8.9418556E-03
      8     -146.0594426850  -3.2554844E-03   3.5664658E-03
      9     -146.0603254317  -8.8274671E-04   1.2325820E-03
     10     -146.0603508412  -2.5409524E-05   4.8176597E-04
     11     -146.0603564751  -5.6339277E-06   2.4106484E-04
     12     -146.0603591386  -2.6634274E-06   1.1009927E-04
     13     -146.0603594427  -3.0410564E-07   5.3568338E-05
     14     -146.0603595270  -8.4328690E-08   1.7776096E-05
------------------------------------------------------------

 total:                                   0.309 sec
   
   ::::::::::::::::::::::::::::::::::::::::::::::
   ::     D I P R O      C O U P L I N G S     ::
   ::::::::::::::::::::::::::::::::::::::::::::::
   
energy threshhold for near-degenerate orbitals near HOMO and LUMO considered for DIPRO:  0.300 eV
no. of orbitals within energy window of frag 1         2
no. of orbitals within energy window of frag 2         2
   
  Fragment 1 SOMO   Fragment 2 SOMO 
--------------------------------------
E_mon(orb) frag1 frag2             -11.682   -11.541 eV
J(AB):               -0.006 eV
S(AB):             0.00028681 Eh
|J(AB,eff)|:            0.003 eV
   
  Fragment 1 SOMO   Fragment 2 LUMO 
--------------------------------------
E_mon(orb) frag1 frag2             -11.682   -11.245 eV
J(AB):               -0.000 eV
S(AB):             0.00002059 Eh
|J(AB,eff)|:            0.000 eV
   
  Fragment 1 LUMO   Fragment 2 SOMO 
--------------------------------------
E_mon(orb) frag1 frag2             -11.399   -11.541 eV
J(AB):               -0.003 eV
S(AB):             0.00012548 Eh
|J(AB,eff)|:            0.002 eV
   
  Fragment 1 LUMO   Fragment 2 LUMO 
--------------------------------------
E_mon(orb) frag1 frag2             -11.399   -11.245 eV
J(AB):                0.004 eV
S(AB):            -0.00013178 Eh
|J(AB,eff)|:            0.003 eV
   
..............................................................................
:  total |J(AB,eff)| for hole transport (occ. MOs) :               0.003 eV  :
:  total |J(AB,eff)| for charge transport (unocc. MOs) :           0.003 eV  :
:  total |J(AB,eff)| for charge transfer (CT) :                    0.002 eV  :
..............................................................................
  
 Please remember, DIPRO is not available for restart!
   
normal termination of dipro
----------------------------------------------------------
 * finished run on 2025/02/24 at 15:41:21.892     
----------------------------------------------------------
 dipro:
 * wall-time:     0 d,  0 h,  0 min,  1.938 sec
 *  cpu-time:     0 d,  0 h,  0 min,  5.516 sec
 * ratio c/w:     2.846 speedup
Reorganization energy (electron): 0.3936382918757075 eV
Reorganization energy (hole): 0.2853769316813237 eV
Electron Transfer integral J: 0.003 eV
Hole Transfer integral J: 0.003 eV
