110
 energy: -292.000365158147 gnorm: 0.339674214458 xtb: 6.7.1 (edcfbbe)
C           -2.37580000000000        2.16670000000000       -2.97120000000000
C           -2.06110000000000        1.16910000000000       -2.05200000000000
C           -1.06600000000000        1.45730000000000       -1.05910000000000
C           -0.22610000000000        2.59300000000000       -1.24580000000000
C           -0.60630000000000        3.55540000000000       -2.19790000000000
C           -1.67740000000000        3.35640000000000       -3.02450000000000
C           -0.77240000000000        0.58320000000000        0.03470000000000
C            0.51490000000000        0.68840000000000        0.57370000000000
C            1.34250000000000        1.79620000000000        0.23620000000000
N            0.95000000000000        2.76690000000000       -0.60670000000000
C           -1.65630000000000       -0.34660000000000        0.67190000000000
C           -1.07790000000000       -1.32230000000000        1.53140000000000
N            0.22030000000000       -1.33070000000000        1.89380000000000
C            0.97290000000000       -0.29550000000000        1.48880000000000
C            2.24750000000000       -0.13750000000000        2.04100000000000
C            3.01430000000000        0.97160000000000        1.78570000000000
C            2.58070000000000        1.91730000000000        0.88560000000000
C           -3.08700000000000       -0.24320000000000        0.61680000000000
C           -3.84690000000000       -1.24520000000000        1.21820000000000
C           -3.26800000000000       -2.24230000000000        1.97580000000000
C           -1.91350000000000       -2.27560000000000        2.13380000000000
O           -3.66110000000000        0.89810000000000        0.07770000000000
O           -2.60540000000000       -0.10630000000000       -2.10800000000000
H           -0.03270000000000        4.46700000000000       -2.27870000000000
H           -3.17910000000000        2.02110000000000       -3.67280000000000
H            3.17140000000000        2.80750000000000        0.72400000000000
H            2.59420000000000       -0.86300000000000        2.75780000000000
H           -1.47520000000000       -3.02050000000000        2.77880000000000
H           -4.92070000000000       -1.22920000000000        1.15080000000000
C           -5.05490000000000        0.86060000000000       -0.11550000000000
C           -3.24820000000000       -0.44130000000000       -3.31480000000000
S           -2.18610000000000        4.68250000000000       -4.28150000000000
F           -3.15570000000000        5.26260000000000       -3.17330000000000
F           -1.00680000000000        5.57510000000000       -3.72650000000000
F           -2.60290000000000        5.79090000000000       -5.33080000000000
F           -3.33570000000000        3.71680000000000       -4.76950000000000
F           -1.18600000000000        3.99170000000000       -5.29480000000000
S           -4.34990000000000       -3.52570000000000        2.85610000000000
F           -4.52410000000000       -2.46980000000000        4.01520000000000
F           -5.59570000000000       -2.90440000000000        2.11740000000000
F           -5.23870000000000       -4.60390000000000        3.59340000000000
F           -4.08880000000000       -4.47690000000000        1.62180000000000
F           -3.04260000000000       -4.05970000000000        3.55410000000000
S            4.62860000000000        1.19940000000000        2.75340000000000
F            4.87170000000000        2.51470000000000        1.91160000000000
F            5.35360000000000        0.35140000000000        1.63130000000000
F            5.96590000000000        1.41250000000000        3.57130000000000
F            3.76410000000000        2.01860000000000        3.79600000000000
F            4.29860000000000       -0.12820000000000        3.54210000000000
H           -3.46010000000000       -1.51200000000000       -3.29280000000000
H           -2.58580000000000       -0.22400000000000       -4.15520000000000
H           -4.18550000000000        0.11000000000000       -3.40100000000000
H           -5.34160000000000        1.77750000000000       -0.63410000000000
H           -5.56760000000000        0.82130000000000        0.84610000000000
H           -5.31460000000000       -0.00050000000000       -0.73330000000000
C           -1.63220000000000        2.01830000000000        3.69490000000000
C           -1.82720000000000        0.75240000000000        4.23830000000000
C           -0.70980000000000        0.08940000000000        4.84090000000000
C            0.58760000000000        0.64870000000000        4.68080000000000
C            0.70830000000000        1.93290000000000        4.11940000000000
C           -0.38220000000000        2.59550000000000        3.63040000000000
C           -0.80900000000000       -1.20620000000000        5.44090000000000
C            0.36300000000000       -1.97020000000000        5.46080000000000
C            1.61240000000000       -1.35190000000000        5.18720000000000
N            1.72550000000000       -0.04270000000000        4.90550000000000
C           -1.97740000000000       -1.82360000000000        5.99110000000000
C           -1.97180000000000       -3.23960000000000        6.13720000000000
N           -0.86700000000000       -3.99930000000000        5.97640000000000
C            0.29280000000000       -3.36130000000000        5.73860000000000
C            1.48710000000000       -4.09330000000000        5.72140000000000
C            2.69930000000000       -3.49640000000000        5.46300000000000
C            2.76610000000000       -2.14720000000000        5.20450000000000
C           -3.07060000000000       -1.07830000000000        6.54550000000000
C           -4.20120000000000       -1.77890000000000        6.95920000000000
C           -4.25030000000000       -3.15800000000000        6.95120000000000
C           -3.15490000000000       -3.87530000000000        6.55790000000000
O           -2.92400000000000        0.28860000000000        6.73190000000000
O           -3.02220000000000        0.06380000000000        4.10860000000000
H            1.69550000000000        2.35360000000000        3.99420000000000
H           -2.45310000000000        2.55490000000000        3.25130000000000
H            3.71930000000000       -1.68880000000000        4.97780000000000
H            1.45060000000000       -5.15400000000000        5.91770000000000
H           -3.19280000000000       -4.95450000000000        6.57560000000000
H           -5.06670000000000       -1.24790000000000        7.31640000000000
C           -3.84940000000000        0.88690000000000        7.60730000000000
C           -4.14750000000000        0.84480000000000        3.79440000000000
S           -0.21150000000000        4.26830000000000        2.75970000000000
F           -1.68810000000000        4.59310000000000        3.20840000000000
F            0.33260000000000        4.85970000000000        4.11800000000000
F           -0.06630000000000        5.64150000000000        1.99880000000000
F           -0.77930000000000        3.53790000000000        1.48280000000000
F            1.24570000000000        3.82360000000000        2.36850000000000
S           -5.81860000000000       -4.03970000000000        7.55060000000000
F           -6.34620000000000       -2.64550000000000        8.07250000000000
F           -6.48020000000000       -3.74520000000000        6.14210000000000
F           -7.11560000000000       -4.78250000000000        8.07110000000000
F           -5.20120000000000       -5.38700000000000        7.00210000000000
F           -5.06120000000000       -4.26060000000000        8.92360000000000
S            4.27590000000000       -4.54910000000000        5.45110000000000
F            5.08620000000000       -3.23490000000000        5.10960000000000
F            4.01230000000000       -4.78420000000000        3.90730000000000
F            5.59180000000000       -5.42870000000000        5.43680000000000
F            4.41700000000000       -4.23280000000000        6.99680000000000
F            3.37910000000000       -5.80510000000000        5.79330000000000
H           -5.02430000000000        0.19880000000000        3.87590000000000
H           -4.06220000000000        1.22230000000000        2.77510000000000
H           -4.23050000000000        1.66490000000000        4.50920000000000
H           -3.52270000000000        1.91290000000000        7.78670000000000
H           -3.86150000000000        0.34370000000000        8.55430000000000
H           -4.83900000000000        0.89870000000000        7.14870000000000
110
 energy: -292.085195787913 gnorm: 0.229645444115 xtb: 6.7.1 (edcfbbe)
C           -2.37601856160293        2.15723621330770       -2.97145459973782
C           -2.05939181229067        1.16936142605618       -2.05075163060912
C           -1.06955931423483        1.44594504377582       -1.06652424111227
C           -0.22682512462178        2.58477749317295       -1.24809308713348
C           -0.60215859851480        3.56038679784172       -2.19684470269766
C           -1.67512261827986        3.35441934905129       -3.01278352968303
C           -0.77847469781339        0.58563944759338        0.03344091275871
C            0.50947860397720        0.68974961514289        0.57396472272211
C            1.34054037107220        1.79494197876574        0.23091110274136
N            0.93825259839675        2.75423467365678       -0.60601351744835
C           -1.66575818132493       -0.33415542354553        0.67402920084437
C           -1.08177348010925       -1.31321199684576        1.53365780740643
N            0.21234513854482       -1.32259455720891        1.88404761057344
C            0.96529427998513       -0.29081624399351        1.49647714397732
C            2.24933689889941       -0.14394527569808        2.04693235035868
C            3.01085762311454        0.96855044272546        1.77950941368189
C            2.58443294304576        1.92244168939798        0.88234143977522
C           -3.08590852730401       -0.24321720929338        0.61923048907862
C           -3.84815550845031       -1.23717777841632        1.21830820680531
C           -3.25900635159857       -2.24261964316660        1.97060007599491
C           -1.90873807655478       -2.28137174417243        2.13731823194823
O           -3.65229267579957        0.88060786129868        0.07924694252562
O           -2.59462433113318       -0.09054295310381       -2.10702986623234
H           -0.01829088124517        4.45993432272238       -2.27283455046932
H           -3.17672232161601        2.00806166751429       -3.67160381290400
H            3.16684639699641        2.81023721250936        0.71062190204075
H            2.59142433231298       -0.87977160354130        2.74852453420967
H           -1.45850604097083       -3.01767058580850        2.77631333163825
H           -4.91932426646936       -1.21943660618880        1.14780728025221
C           -5.05041414344895        0.85850177245409       -0.11519668382751
C           -3.24660188757918       -0.43673812950435       -3.31083906303255
S           -2.17837118020359        4.66764036787100       -4.26380664479967
F           -3.17498611351178        5.28115136854356       -3.16724818086287
F           -0.99722189388336        5.60807271397253       -3.73596438988054
F           -2.59868371739358        5.77794789304999       -5.31835486971573
F           -3.35778275241411        3.72131809873425       -4.79216095436048
F           -1.17705626021739        3.99224542554373       -5.31950325071741
S           -4.33603862921443       -3.51188806093551        2.84572106916259
F           -4.53876626266596       -2.46356501658651        4.03801105557616
F           -5.62880381874676       -2.91262495135378        2.11862008698244
F           -5.23086067841686       -4.59148216033155        3.58347838862726
F           -4.09557064007381       -4.50320230436615        1.61039798425067
F           -3.04019472514576       -4.08560407554364        3.57950971501645
S            4.61364045696325        1.19949461596835        2.73851271013450
F            4.90044352798452        2.53817475864172        1.90939599742532
F            5.37790156275089        0.34238610321848        1.62008067714721
F            5.95683147612182        1.41223607451734        3.55712772450956
F            3.77777541004221        2.03758490111721        3.81918809723627
F            4.32422392691651       -0.13950453835918        3.56145172521680
H           -3.45342459050565       -1.50736044512683       -3.27779823937037
H           -2.59499538266453       -0.22427896140964       -4.16210914110449
H           -4.18917603157217        0.10646860538448       -3.40932444056037
H           -5.32450679750339        1.77865819533483       -0.63291416947335
H           -5.57553494455142        0.82142197358690        0.84242336188793
H           -5.32583583518050        0.00058090222112       -0.73234301168869
C           -1.63940679519661        2.01145533338275        3.69000652415845
C           -1.82794047870066        0.75040259919300        4.23433249689384
C           -0.72202257911998        0.08452988503645        4.82955475520673
C            0.58179087717920        0.64208761476661        4.67154768169813
C            0.71293132102548        1.93638928922215        4.12046954535075
C           -0.38148522763028        2.58969063522976        3.64233397680228
C           -0.81666957623167       -1.20400903404128        5.43834460885990
C            0.35666772458785       -1.96701977497448        5.45932669407377
C            1.60708005217850       -1.34822765236624        5.18312384001253
N            1.70907935098605       -0.04457428809452        4.90979682779280
C           -1.97920032472701       -1.81247848263566        5.99980887671988
C           -1.97054114070541       -3.23326616767149        6.14248133555383
N           -0.87151662046817       -3.98390895233902        5.97652980596311
C            0.28656518765353       -3.35983345529575        5.74105279679239
C            1.48262378310009       -4.10125283792694        5.72366213787946
C            2.69094036587071       -3.49337896092553        5.46486027007715
C            2.76953118502885       -2.14366953410884        5.20571869066523
C           -3.06912021068870       -1.07941713796409        6.54553671091668
C           -4.19677069044938       -1.77095599272083        6.96237073843284
C           -4.24229711562064       -3.15710161325043        6.94031672441944
C           -3.15420152640749       -3.88280984986223        6.55753241627597
O           -2.92306834319054        0.26975622249484        6.73086630349509
O           -3.00982406510414        0.07312568613427        4.11783996293475
H            1.69554389379129        2.35450797553587        4.00737571477996
H           -2.45764436018059        2.54923988536703        3.24736133388773
H            3.71412084997218       -1.67959024545857        4.98488476479289
H            1.43550908087940       -5.15722874274889        5.91869936457274
H           -3.17617320306167       -4.95754779239094        6.58077458319220
H           -5.06023293325436       -1.23873002348804        7.31535353615728
C           -3.84823320914481        0.88261720025509        7.60363799559083
C           -4.14450105786098        0.84489518809931        3.79584302050015
S           -0.21159434542882        4.24472289874171        2.77524664727804
F           -1.70645832501413        4.61621837466940        3.21189546680038
F            0.34259698153167        4.88242636835470        4.13324587896982
F           -0.06987187258723        5.62412930655063        2.01118757217494
F           -0.79219537773918        3.54040314484055        1.45971592500764
F            1.26996674210296        3.83392422103322        2.35170824795929
S           -5.79686516683011       -4.03059675305748        7.53762137658756
F           -6.36996508129438       -2.63948326080512        8.09075436432965
F           -6.49962085271581       -3.74220559428558        6.12610281107583
F           -7.09996081569536       -4.77344199465584        8.06250320545771
F           -5.21313263893529       -5.41845908936323        6.99775725252934
F           -5.06392377160506       -4.27097312635508        8.94598214547866
S            4.25822092990990       -4.53543713934422        5.45030239832083
F            5.11949036525894       -3.23111264268987        5.10500855921643
F            4.02223993619114       -4.79623004559573        3.88520323892699
F            5.57842193392887       -5.41855402994699        5.43662250106051
F            4.43163122666293       -4.23700523528707        7.01751838060086
F            3.39152160857726       -5.83702485880506        5.79727741306663
H           -5.01216318133709        0.18927199755742        3.87915768263804
H           -4.07001787569327        1.22714684906346        2.77588955543378
H           -4.23922702284409        1.67138326550093        4.50378793734721
H           -3.51177001468369        1.90603441992789        7.77543797624433
H           -3.87140885591069        0.34880438262558        8.55700539303148
H           -4.84419663265663        0.90373282468035        7.15581932093045
110
 energy: -292.151850953157 gnorm: 0.073302916635 xtb: 6.7.1 (edcfbbe)
C           -2.37816720996764        2.15052509480481       -2.97558871446907
C           -2.05855174647761        1.16681773698160       -2.05341826977109
C           -1.07383358378556        1.43551870414518       -1.07287786988803
C           -0.22648219531287        2.57916907683550       -1.24935096117707
C           -0.59596574065207        3.56855225109744       -2.19920746278311
C           -1.67033575359657        3.34892953637201       -2.99741216860708
C           -0.78166050684819        0.58826070588425        0.03355238924308
C            0.50699263193069        0.69170870082988        0.57731390180367
C            1.34075913527713        1.79542889579747        0.22610310502115
N            0.92753394506937        2.73833004072081       -0.60866306117680
C           -1.67500078258270       -0.32266448801021        0.67679630452159
C           -1.08452935800774       -1.30617323938239        1.53638934236058
N            0.20336415414525       -1.31300639444376        1.87735081645477
C            0.96082112222814       -0.28787958797136        1.50479781057528
C            2.25429694608312       -0.15050817924258        2.05561514184226
C            3.00011253052948        0.96624301529827        1.77068325741709
C            2.59202768403330        1.92887518418691        0.87917145523022
C           -3.08848851019239       -0.24167158438870        0.62243752195611
C           -3.85340106888618       -1.23223294042615        1.22002196129406
C           -3.24661999793502       -2.23853656648037        1.96380098532513
C           -1.90508462589053       -2.28955802173660        2.14457310373932
O           -3.64573755944156        0.85853186913565        0.08053771136163
O           -2.58382572619058       -0.07277750899338       -2.11019853130140
H           -0.00348634340913        4.45802578232176       -2.26729994262232
H           -3.17544201814779        2.00352294567622       -3.67600968826824
H            3.16629484241678        2.81538735479478        0.69879916266122
H            2.59254227542154       -0.89661830848803        2.74263507076834
H           -1.44153942627941       -3.01899770472233        2.77537309552116
H           -4.92179032433213       -1.21775901721272        1.14925125085585
C           -5.04886180707400        0.85805624256060       -0.11614023144031
C           -3.24721559650772       -0.43512990763028       -3.30889262914564
S           -2.16465535780438        4.63957778743766       -4.23184923814543
F           -3.20330843275747        5.30616603452620       -3.15441644215507
F           -0.98071128940794        5.65247737341459       -3.74573118528258
F           -2.59181240779668        5.75643186281995       -5.29894617268871
F           -3.39096553973545        3.72252350254435       -4.82230582212895
F           -1.16148132068283        3.98810319742530       -5.35320309253883
S           -4.31024304117294       -3.48505984414117        2.82482768800920
F           -4.55590186348548       -2.44836816371527        4.07143060478169
F           -5.67612933048823       -2.91979920966273        2.11555483906440
F           -5.21586388268203       -4.56967713395061        3.56871276716262
F           -4.10237812653030       -4.54026985459878        1.58933758691614
F           -3.03043568230187       -4.11998761065166        3.61330576137412
S            4.58108698028125        1.19735957432099        2.71188526346988
F            4.93543174256780        2.57233214435980        1.90374612417216
F            5.41034991173534        0.32693155796009        1.60163690763005
F            5.93612915852285        1.41023246573862        3.53791575811287
F            3.78723458790172        2.06342394299440        3.85089233872189
F            4.35274845732798       -0.15965474875249        3.58839553390721
H           -3.44683917427177       -1.50506427757892       -3.26121770215214
H           -2.60420166137048       -0.22580152699164       -4.16846892173412
H           -4.19340098290917        0.10204935701844       -3.41540591480961
H           -5.30621656446904        1.78198009659441       -0.63222119597543
H           -5.58251323834007        0.82345083226965        0.83858846771435
H           -5.33756174966427        0.00257214689496       -0.73206965829923
C           -1.64798966095611        2.00853132335381        3.68242975619167
C           -1.83201273169043        0.74927890677485        4.22810911363956
C           -0.73353391118353        0.08005821335537        4.81786094498354
C            0.57831306420734        0.63618550624165        4.66521669013523
C            0.72047593857573        1.94150194056831        4.11984599699639
C           -0.38040653842691        2.57747889187793        3.65532047888430
C           -0.82202838460387       -1.20373079031877        5.43540225825076
C            0.35392671451054       -1.96599783163772        5.45735162968284
C            1.60492191892793       -1.34526242595809        5.17943756605540
N            1.69154113283852       -0.04815086040702        4.90986319624154
C           -1.98188176962406       -1.80171385629442        6.00699058765424
C           -1.96938982761293       -3.22958828198454        6.14634287049896
N           -0.87558436800883       -3.96643925916065        5.97894889603115
C            0.28245665048448       -3.36096070468693        5.74361249419906
C            1.48077033140242       -4.11278126696195        5.72573966298378
C            2.67674331404866       -3.48657696780886        5.46621453848529
C            2.77677583656149       -2.14134296935596        5.20720772443716
C           -3.06912528172826       -1.07787150305871        6.54937673742761
C           -4.19711195620475       -1.76470334205692        6.96790521346962
C           -4.22934006589982       -3.15464123573493        6.92932407871855
C           -3.15473882945518       -3.89404642018912        6.56128361684938
O           -2.92513381768049        0.24916708506697        6.73248604116404
O           -2.99749427281226        0.08704001490772        4.12706690894340
H            1.70069014675976        2.35666812362237        4.02067221040037
H           -2.45926882660147        2.55218964853572        3.24108443880319
H            3.71466976789558       -1.67154242581448        4.99193096222062
H            1.42395661137042       -5.16480106958453        5.92006832975530
H           -3.16180660773685       -4.96463970596842        6.58428679125926
H           -5.06099924039828       -1.23660539096268        7.31763802933919
C           -3.84836822847597        0.88190017735223        7.60159249873098
C           -4.14559115552146        0.84490999892391        3.79659275620556
S           -0.21296888586603        4.20425508214603        2.80277302712021
F           -1.73799835456268        4.64855584951192        3.21642330913393
F            0.35760209081771        4.91629492835606        4.15780366828246
F           -0.07562904350217        5.59709636550122        2.02841923573419
F           -0.81149910982132        3.53934555871562        1.42433602544292
F            1.30677710935107        3.84651876070016        2.32785610186412
S           -5.75929172651860       -4.01327937415819        7.51559334779587
F           -6.40307495578199       -2.62510809783316        8.11467319956126
F           -6.52792174028655       -3.73810265148501        6.10071330426898
F           -7.07583925851674       -4.75860932837024        8.05174425698236
F           -5.22710336471289       -5.46331865914639        6.99138898906574
F           -5.06244606403492       -4.28258020928673        8.97841596223935
S            4.22454325764532       -4.51002701577742        5.44969908825781
F            5.16380119679371       -3.22182279595043        5.09805933576972
F            4.03112562076086       -4.81090046639668        3.85171367400341
F            5.55534520489976       -5.40274070625863        5.43664297474267
F            4.44880505527714       -4.24010525487390        7.05010589669974
F            3.40261675169984       -5.88116328295386        5.80373026778741
H           -5.00106983588303        0.17719188672921        3.88282365717612
H           -4.07788767941615        1.23076756171882        2.77661437588291
H           -4.24910204950666        1.67696171976771        4.49845236782262
H           -3.49905000346444        1.90111673060101        7.76341297506953
H           -3.88047538342572        0.35495109880735        8.55946874430445
H           -4.84838136299109        0.90988958270896        7.16119504392552
110
 energy: -292.162708891594 gnorm: 0.023761358805 xtb: 6.7.1 (edcfbbe)
C           -2.37443108033345        2.15254927613931       -2.98211189962884
C           -2.05635568757499        1.16600376314065       -2.05984853530206
C           -1.07393430857347        1.43334542346811       -1.07426916776770
C           -0.22244788032398        2.57388481384984       -1.25419348304710
C           -0.58660532464411        3.57070428456070       -2.20043187122878
C           -1.66452200455119        3.34895944772905       -2.99145828800343
C           -0.78379611348271        0.59205683009426        0.03910488582549
C            0.50503860448365        0.69661435667877        0.58669884353065
C            1.34366963592090        1.79291936257778        0.22367761878069
N            0.93083944856584        2.72596725532593       -0.61884105381136
C           -1.67863444188784       -0.31715666126530        0.68653163521275
C           -1.08617092176540       -1.29841830453184        1.54672005221916
N            0.19998150577808       -1.30429744781492        1.88527513711086
C            0.95953742122278       -0.28023131981143        1.51624417907573
C            2.25973162462254       -0.15193669796608        2.05841057252580
C            3.00040477043951        0.96616360572224        1.76285750381505
C            2.59852241786382        1.92966387494023        0.87117162797370
C           -3.09378786979937       -0.24485940312469        0.62626937933435
C           -3.85683117326551       -1.23661901710167        1.22806301303932
C           -3.23900337624629       -2.23952477288343        1.96497152148925
C           -1.89895501821627       -2.29337193646831        2.15089498870120
O           -3.64715530379234        0.84388284469581        0.07227348298467
O           -2.57968945205133       -0.06817322985762       -2.11552218742752
H            0.01886821921199        4.45403472852536       -2.26422021712584
H           -3.16660396575858        2.00485838848572       -3.68907644690179
H            3.17212207900080        2.81617126026282        0.67715727790000
H            2.60710065705809       -0.91670089653996        2.72458648775534
H           -1.42154554747148       -3.02514124508568        2.77162043013022
H           -4.92573848670893       -1.22526631407369        1.15850800091551
C           -5.05177517287355        0.86121935228473       -0.12238341341004
C           -3.25318770323491       -0.43942858401892       -3.30742636249786
S           -2.16098482552683        4.63430403061383       -4.22058343782292
F           -3.21787999874176        5.32270836366225       -3.15098249471794
F           -0.97747831117923        5.68233470594066       -3.75640959079466
F           -2.59405736199179        5.75180966890957       -5.29503892480352
F           -3.40787540454286        3.72826693087348       -4.83688788742472
F           -1.15687799519889        3.99191661583691       -5.36952338369772
S           -4.30501059172847       -3.47957481518791        2.81801760189025
F           -4.56836070165598       -2.44380143218717        4.08750016122421
F           -5.70154402784735       -2.92882817617690        2.11398151516805
F           -5.21825846816775       -4.56234097414079        3.56723090775207
F           -4.11004734054704       -4.56508984985894        1.58494433830076
F           -3.03491720625369       -4.14342785797652        3.63635548567106
S            4.58537974279076        1.20258820720997        2.68943923184328
F            4.96686237268776        2.59258680610289        1.88942430867589
F            5.43633807859530        0.32438323290823        1.58064157414797
F            5.94958976974617        1.41586814488965        3.51329485137123
F            3.81545168476201        2.08239006533978        3.85805016112809
F            4.38811573850549       -0.16123626807772        3.59460670239388
H           -3.44036552142761       -1.50964833542577       -3.23548437557198