116
 energy: -22.821952706817 gnorm: 0.420365385402 xtb: 6.6.1 (8d0f1dd)
C           -0.21166785780550        5.61320064309610        3.67167299713368
C           -0.39706696832619        4.48934608463672        2.86750257536287
C            0.45411780843215        3.35438369027632        3.04548917129241
C            1.49606441988440        3.36395150520043        4.09028728122901
C            1.59992407974412        4.62015623142273        4.76251065709911
C            0.78739131178367        5.70842958098892        4.62906667372046
C            0.12746202510268        2.08392736140242        2.53342860540969
C            1.25912042952410        1.23970088116844        2.44206508711840
C            2.49032100920349        1.56467426048273        3.26453572967909
N            2.46493109389331        2.44222764796837        4.31094606972472
C           -1.09261981059790        1.57100231785090        2.11130458048044
C           -1.13730143157418        0.36742910919156        1.32745133560697
N           -0.11004366982501       -0.54447528537195        1.20473888546486
C            1.10811719396112       -0.09674243323635        1.82499267059911
C            2.31204690619075       -0.77226564929772        1.64756591643694
C            3.47235317842301       -0.37987914592824        2.15931053572565
C            3.59185455571212        0.73587571497420        2.97575128328921
C           -2.37406479719851        2.19961780519226        2.43568485901302
C           -3.49134194059446        1.67125580751392        1.83527096282419
C           -3.42389010943759        0.76637378230351        0.77494490637569
C           -2.25262711942353        0.03785067502287        0.55767922589433
O           -2.25793570607216        3.09455611318044        3.46092058032469
O           -1.27942706117743        4.48013038050648        1.61468939221259
C            0.86177906820379        6.97619590562856        5.36518893879458
C           -4.67507016919129        0.57743281994637       -0.01871915947503
H            2.43054766594606        4.63908486012541        5.47731498208044
H           -0.90538084956190        6.42783287011707        3.60831844906322
H            4.59899505580865        0.91750881959924        3.35304191588451
H            2.23035619180673       -1.74884152558821        1.20666019162226
H           -2.23909788589220       -0.58183362772183       -0.41507459683250
H           -4.37872128413001        2.30239641427827        1.83719521614338
O            0.23867631915469        7.89768814294613        4.81122753256871
O            1.42100713719327        7.18539144332823        6.61550283701779
C            1.27802214615924        8.53866431957466        6.89963631643402
C            4.56583112433422       -1.40944749237825        2.00722892809738
O            4.27818574782501       -2.58537229202901        2.02848417871691
O            5.80232645466172       -0.85139908437934        1.86417803768179
C            6.81691653417980       -1.72183827946067        1.49877974706983
O           -4.85573263472870       -0.47072036033194       -0.54791376458838
O           -5.68742290981497        1.41366524127042        0.26264303588185
C           -6.86122439705616        0.83695482163257       -0.02033630561419
C           -3.45225578958246        3.42717828961605        4.00902643643235
C           -0.64880680717984        4.42743385363229        0.40240704813797
H           -6.61763704034851       -0.19215286800424       -0.39376508691489
H           -7.25012812977617        1.42022945638307       -0.84409334392566
H           -7.43353047406173        0.81740833927613        0.97685678159550
H            6.42479519410005       -2.67865033609852        1.80150310623216
H            7.68775528136262       -1.54271508614847        2.04913873468277
H            7.09722154190141       -1.42229031685780        0.46029567281700
H            0.11287229639869        5.28435923900794        0.45867665677009
H           -1.29492867671472        4.64533407203478       -0.36993580891484
H           -0.11536537516669        3.47351381142530        0.28358233056034
H           -4.06234737411635        4.06091394735561        3.51032602861781
H           -3.21563453132619        3.93727254901532        4.93415883907024
H           -4.01392208066417        2.53280713631738        4.27006522684822
H            1.74375194541655        9.28341825475180        6.14069261804242
H            1.59798928958424        8.79158162773693        7.87457843074843
H            0.20199071033722        8.58284156363759        6.97882760236674
C           -5.56683760758662       -1.93532599368864        2.45152659572132
C           -4.33207796702179       -2.31723766211111        2.86827634751586
C           -3.69298182982524       -1.76182460264187        4.14144408346883
C           -4.47605607695979       -0.62295616353991        4.78518252373787
C           -5.80648628508871       -0.33921792034001        4.35813465607625
C           -6.21558201571761       -0.91944805439565        3.14924882411361
C           -2.23404065980393       -1.75291227161783        4.37194340086222
C           -1.70951124183589       -0.62962047934225        5.12649399954909
C           -2.56610072122269        0.25316514425942        5.84152379937702
N           -3.90620106141504        0.14708034275848        5.76753378242410
C           -1.35597971587193       -2.88235000734368        4.05607671847563
C            0.04232318244236       -2.51876326859318        3.98219573797263
N            0.52058949079199       -1.33907318934466        4.43562715177333
C           -0.30317899156545       -0.66433030564771        5.15869198560254
C            0.12320458011759        0.33107867516889        6.02384476955510
C           -0.73637471626102        1.23039471671225        6.74358887036935
C           -2.08575572852108        1.13313688546905        6.73381872821589
C           -1.77500678893311       -4.20039311906712        4.08136308998847
C           -0.73780581866036       -5.18425167101200        3.78276396527326
C            0.50585688792718       -4.75238793039874        3.25292982004905
C            0.96521396912180       -3.48562424366369        3.51678530219789
O           -2.99057962074563       -4.64659319226298        4.58159579346617
O           -3.33684686089370       -3.05012626760020        2.07380482546700
C           -7.64509048156770       -0.70626837404860        2.77091977421794
C            1.46349183745077       -5.78030072319690        2.75873453970268
H           -6.44827531112750        0.46949638239707        4.78115036916193
H           -6.13657626298117       -2.50463247308703        1.71823195549547
H           -2.60189103238252        1.74568524527768        7.40054957603469
H            1.17961954397243        0.41698795080958        6.01787891839460
H            2.01788757653514       -3.32015443627895        3.41850392380886
H           -0.98295089839346       -6.18961652559189        3.60303558920022
O           -8.26949046162830        0.21667189767458        3.16331053764768
O           -8.22730538644470       -1.74816839049738        2.05640481025217
C           -9.58771057756225       -1.49052628398064        1.72852993468096
C           -0.13941033730970        2.17231450794596        7.75399215850309
O           -0.89926344852393        2.32116134008364        8.74121572507289
O            0.89431927581996        2.97502158900738        7.55924054056601
C            0.94426564929878        3.92677786389698        8.49975749426189
O            1.44199778579719       -6.95304068964151        3.17323151758855
O            2.10789420670274       -5.23072437406327        1.69105151333412
C            2.66732036224960       -6.34005017298537        1.04975147331618
C           -3.15986603216489       -6.01284648061601        4.49140228802198
C           -3.58159988072876       -2.89577117630144        0.68164402801933
H            1.86632298777427       -6.98887962329811        0.57218321146977
H            3.11623847577878       -6.98381718379970        1.86617347348148
H            3.21448655249470       -5.93074350938826        0.21418943532394
H            1.45025519849395        4.82219574456581        8.22183013432578
H            1.28527217746839        3.60204696686125        9.50390759406247
H           -0.12488519179329        4.27320879832413        8.63920539770092
H           -3.86101551968813       -1.92027424510425        0.35021114799874
H           -4.42409069125251       -3.52081716958696        0.41874515469161
H           -2.69755460634271       -3.11972291739457        0.15713964103999
H           -3.03049590402165       -6.29020284940993        3.45175867844101
H           -4.19535525911156       -6.24335004278299        4.77505962708171
H           -2.37682533382581       -6.45351722011953        5.03699449987202
H          -10.13804850902071       -2.32208867925884        1.96138905720523
H           -9.82157897787297       -1.01679240449636        0.79325120526042
H           -9.97339273527459       -0.72446534082980        2.44976307891795
116
 energy: -22.733893287729 gnorm: 0.490246770960 xtb: 6.6.1 (8d0f1dd)
C           -0.30816862697400        6.03109524832548        4.15385080057225
C           -0.72834412546884        4.99004268098179        3.24947078394528
C            0.16816718991964        3.81667387763669        3.25771553746515
C            1.46185347959378        4.00978862333034        3.69220763816168
C            1.79217758843152        5.13275010468253        4.41502184525724
C            0.93258804915434        6.13661952407053        4.65989136696127
C           -0.20667021528592        2.56425487879084        2.59635604542987
C            0.91183427328533        1.66703926446690        2.41997934544532
C            2.23733746058740        2.02489538393011        2.89083057124571
N            2.50234096531833        3.26970657725237        3.33743141017909
C           -1.51225247159948        2.08242140896059        2.14330490283771
C           -1.57470876727914        0.84805862329703        1.37672287564050
N           -0.49390686610542        0.07643631121454        1.17282631156559
C            0.68895142068437        0.46299860007397        1.66892353606645
C            1.75674525443121       -0.57535701252411        1.72981265526098
C            3.03603910567112       -0.23031592739776        2.06317026135879
C            3.21123086881461        1.09377163301921        2.56911249188633
C           -2.80267520190268        2.38759397043522        2.79081813451304
C           -3.92069415988584        2.04565283220960        2.05027902980958
C           -4.04616157466371        1.12595043688012        0.98361950273730
C           -2.80000641596984        0.56485520317436        0.74116416470111
O           -2.77212097407832        3.09082408123639        4.01667488642353
O           -1.91050814228261        5.16780437666569        2.46970305821905
C            1.41309126150946        7.31926513772583        5.41038956660211
C           -5.40682816217241        0.78687204740664        0.44640452708871
H            2.83016305927364        4.97430829464444        4.77256672682845
H           -1.08978960103065        6.75824111899313        4.39516311176271
H            4.31679724645184        1.40952678352901        2.51125405730647
H            1.80624317679648       -1.56461437416910        1.22728242165771
H           -2.65097343104062       -0.33994362533386        0.16221523496142
H           -4.74843208481661        2.58923313611845        2.42109658998860
O            0.72183548367282        8.30791234293633        5.41775982795963
O            2.38203124358991        6.96170666881385        6.30724864651935
C            2.92637345055460        8.05667821465866        7.07838557456431
C            4.18216830996799       -1.10286447018126        1.74910533926950
O            4.10277446392137       -2.09273288719796        1.03729782894552
O            5.38839851127159       -0.71605902509747        2.25806524588580
C            6.52983931945840       -1.39363410540199        1.51775855714863
O           -5.70350544358711       -0.15523159101216       -0.28028831316203
O           -6.36674315730651        1.75354627520278        0.83844621748548
C           -7.57282076351925        1.20244767318418        0.44906966610532
C           -3.92250846883911        3.77939854628849        4.28020787520509
C           -2.02683572151877        6.44765776598011        1.97337916871987
H           -7.45006883882500        1.23522857711808       -0.56891671317860
H           -8.38342807852495        1.67863789858010        1.04896971352977
H           -7.75064768167766        0.19250513186750        0.50168448699135
H            6.88637829466478       -1.97270779151510        2.30413747313580
H            7.19022017725624       -0.81505597332910        0.96399179675434
H            6.14628049900306       -2.15386966260491        0.82742947711884
H           -2.98628582162860        6.53957048606263        1.37860339238212
H           -1.24788054324519        6.54534402162527        1.34779073455387
H           -2.11993272825147        7.20453437614320        2.77847716306425
H           -4.06106549383271        4.58620362698447        3.68467361733587
H           -3.87842793101927        4.14392964449888        5.21055911767548
H           -4.73255114776451        2.93387612283908        4.22642627148832
H            3.71793339447259        7.83152546668638        7.64732537897049
H            2.24614410733993        8.67680897191116        7.59836421557293
H            3.26334037163517        8.73447868189177        6.27086844029080
C           -5.19449688971468       -2.31266855091760        1.90424146519507
C           -3.81481493420023       -2.42971611414512        2.24929856471502
C           -3.32845069208093       -1.75031480370325        3.36663049446430
C           -4.18903458144391       -0.85427655217571        4.06579381828575
C           -5.54087167283295       -0.69772074693264        3.64285375823229
C           -6.01492200011325       -1.42304646128226        2.59319013866241
C           -1.91729565273706       -1.88851783612946        3.66378133944778
C           -1.41631109169159       -0.75040186945249        4.36702899780324
C           -2.23232450384094        0.22306013973823        4.99118926002673
N           -3.60866511558144        0.10111309220212        4.88866450827428
C           -1.16038944073383       -3.08826008661696        3.71514126535030
C            0.25942110786875       -3.08117149401329        4.23514722844872
N            0.87631042345484       -1.96489083403602        4.60057366680132
C            0.00370388028053       -0.90890290300680        4.92416635744468
C            0.33509880834406        0.14076201830495        5.66000894491334
C           -0.38772526016318        1.27155671595987        6.07071793739888
C           -1.70026375174562        1.34117663930154        5.78100814958421
C           -1.70444114835665       -4.46082306152727        3.61445320114210
C           -0.78554800298768       -5.47842573396543        3.38380519309352
C            0.50369507406611       -5.43559460664364        3.84500966146171
C            1.05708907941889       -4.24287904430602        4.32819373515728
O           -3.03729566586434       -4.74563328306580        3.65903705104711
O           -2.92765621971124       -3.00340061992737        1.45311360135618
C           -7.55581756718413       -1.43560682698274        2.35004959262944
C            1.39543243675023       -6.56059328610484        3.89573340816866
H           -6.32812862300962       -0.26953784386623        4.23409985761054
H           -5.66583696337391       -2.77421333807898        1.06302280015694
H           -2.36617335428332        1.89432881254746        6.45281059219384
H            1.34502353982569        0.22356989561909        6.01944139187940
H            2.05158136882203       -4.25812238173857        4.75248608680200
H           -1.15271426801869       -6.34671481492001        2.96650003208578
O           -8.21551886183209       -0.88075776540581        3.27802401734064
O           -8.26911082512029       -2.21793697640345        1.39623427420885
C           -9.56417048801325       -2.64725747593437        1.76479818232952
C            0.18060426634569        2.38157940437834        6.89268506759234
O            0.10493728418819        3.52233082285053        6.58393278078637
O            1.14841635888631        1.85035571770597        7.71355867518243
C            2.07851587252923        2.79874256491670        8.32298512674186
O            1.06507413654974       -7.72660807574216        3.67562507267071
O            2.57582182321777       -6.09401760392323        4.43190356055707
C            3.19594573510133       -7.31780002209435        4.96515994768682
C           -3.39691319154553       -5.87478066427364        2.84220553140600
C           -3.21041438231167       -3.29613775022893        0.09145376639360
H            2.66595798996357       -7.87400741790404        5.71943463685521
H            4.04486363837780       -6.83609251482518        5.45195485317847
H            3.62701258054047       -8.15315339347990        4.41246387863288
H            1.49916542643103        3.73856620097963        8.69142675887393
H            2.87393083057533        3.07677717122009        7.50734831398887
H            2.62604343201505        2.29108510149448        9.01053738574169
H           -3.59469126686883       -2.32960177964958       -0.37070878015694
H           -3.97400628870892       -4.05698660185546        0.02838727842616
H           -2.42088493771899       -3.45398399694063       -0.62716219526593
H           -3.00763812015962       -5.77903895240515        1.86102132194654
H           -4.43142850471557       -5.70899010035475        2.57085696000324
H           -3.09226541354032       -6.74434046570802        3.43933132411422
H           -9.46649097549448       -3.59782763778886        2.36629321463273
H          -10.21651158283635       -2.51789737918716        0.86925128732413
H           -9.89536695796795       -1.98867799805353        2.46319253603789
116
 energy: -22.715435991365 gnorm: 0.475235872796 xtb: 6.6.1 (8d0f1dd)
C           -0.21727379566486        6.41689312193945        3.72038914080517
C           -0.67852339473735        5.38229950195410        2.83554204372966
C           -0.02293494271429        4.11616312657959        2.88988265419593
C            1.25225719929554        4.02069936199560        3.61028490128071
C            1.58385985149895        5.05996898205169        4.53983918414859
C            0.85130952803815        6.20961560918418        4.64311155290995
C           -0.40584542902234        2.77575733733937        2.42550105573164
C            0.49206740951452        1.67554560783343        2.34679356041882
C            1.76922660367632        1.84506673964844        2.84689637179400
N            2.07206055946813        2.92481731774362        3.56592051357402
C           -1.74654304385989        2.40677895981522        2.08159112623553
C           -2.05778136111632        1.15202357484717        1.45293088677634
N           -0.99806510709358        0.29189041457920        1.25113267302098
C            0.14140049105343        0.40486946297721        1.83446733907386
C            1.06214930649513       -0.57747013729133        1.46335045891555
C            2.44039652559990       -0.34601585004941        1.98029733404117
C            2.70709227004144        0.80191048602095        2.75317463328704
C           -2.95601875517774        3.25879575410751        2.21281567537060
C           -4.15927702816219        2.95450177444586        1.56844701022441
C           -4.27263818392982        1.83053132938213        0.68600680874036
C           -3.21155886727268        0.91996192847630        0.68553978268642
O           -3.05856995959603        4.06205858811418        3.30054374672603
O           -1.54511185492820        5.66140034196313        1.80404586612541
C            1.33266295741672        7.31460213078752        5.61550481925501
C           -5.45408719447350        1.75902573363484       -0.19564843554518
H            2.30497684485606        4.91446297478620        5.31404410096561
H           -0.85638982601831        7.24537564471280        4.03824549586431
H            3.80489654515631        1.02158367751419        2.88316421058113
H            0.63794141417789       -1.29790335982772        0.79063289609835
H           -3.35164823216985       -0.01140356649051        0.19969212946509
H           -5.04074254209027        3.48909734645253        1.72749703591427
O            0.78707091015293        8.40906047945413        5.59427887444348
O            2.49372666072483        7.05669199161022        6.20609269804076
C            2.73307496666095        8.04144581653611        7.09506887650566
C            3.56445945566326       -1.32234745045622        1.71980257014120
O            3.82072383745446       -1.61473547781137        0.50946874625738
O            4.10775096653167       -1.61370878543710        2.91981277306410
C            4.55191885725761       -2.84615162268850        2.76909083312963
O           -5.69258188967917        0.60950844157178       -0.57543363629061
O           -6.17101843395251        3.01768308998436       -0.35351178083774
C           -7.42686867165177        2.56279448754193       -0.78394034612293
C           -2.33302766996627        3.56299604572000        4.44249492088094
C           -2.23184705865685        7.00388559545733        1.98415956562216
H           -8.02875338244584        1.89924924010680       -0.06504124705212
H           -7.22166738406789        1.96193879026649       -1.67591801883780
H           -8.00301362200073        3.43659687836942       -1.11210718361195
H            4.00802000838062       -3.32484262450442        1.91592295848410
H            4.61483280710245       -3.34213520629835        3.73590921515295
H            5.68841504398047       -2.69217153784886        2.52379264881723
H           -3.24455713095148        7.07852181873975        1.64411782366862
H           -1.62047905541287        7.94475715344224        1.65623211234358
H           -2.10892879902135        6.84372334436230        3.11022115286615
H           -2.86009302099404        3.02535580824547        5.13057877138304
H           -1.89613262978241        4.32264652980730        4.92493463751179
H           -1.54050949178502        2.91884987070903        4.07402212939286
H            3.63022042633001        7.71890594211900        7.66978265508712
H            1.81380426026361        8.06402409915528        7.79167954987406
H            2.83239107509842        9.07523049225002        6.74929117947225
C           -4.74400349040156       -2.58195910783652        1.93505004461998
C           -3.42314488896422       -2.32803028152206        2.03776642464407
C           -2.89465961991482       -1.57939376724316        3.17959838040968
C           -3.79385051121830       -0.83509448424471        4.10594914618136
C           -5.13193469315225       -1.28611041845383        4.01079619784015
C           -5.57823701649428       -2.12403466598226        3.05202621239152
C           -1.65108284849329       -2.00816101022388        3.82216724582551
C           -1.10136878481605       -1.10971546013551        4.78569049662247
C           -2.02149322445585       -0.11402394380763        5.37058681589905
N           -3.40492917935240        0.02394015606337        5.04733669537098
C           -1.05928163338665       -3.21996637198409        3.65827552333929
C            0.30355520724798       -3.25129069880880        4.15297066006713
N            0.89952758939934       -2.16930534738496        4.96943660480242
C            0.24147464839449       -1.09322668381335        5.30890830761796
C            0.68617325829391       -0.05916682011406        6.18359503245313
C           -0.21182664542149        0.88304890342858        6.58190818310550
C           -1.53385761250550        0.87238934138120        6.16482936837295
C           -1.57490626705196       -4.40350563840628        3.14779939474226
C           -0.72306238751539       -5.58816323960529        3.22491439908029
C            0.56103182347351       -5.48198818383341        3.65215337641689
C            1.08114188031643       -4.32892670082862        4.09547500767388
O           -2.99166624184314       -4.65655559542313        2.84000920902429
O           -2.49802753576110       -2.73243965704539        1.03096317975535
C           -6.96538086810544       -2.70473427837752        3.17513930153444
C            1.39774300959948       -6.73467126077737        3.94663311074470
H           -5.82452381149977       -1.18174806825385        4.79441165118035
H           -5.12484713206984       -3.05438528857647        1.03374479789208
H           -1.89956829086233        1.90130029745362        6.28225864314721
H            1.83251814513464       -0.07346313813518        6.35652806051459
H            2.09645634373179       -4.18991589712187        4.50935093233779
H           -1.05929465294027       -6.53506808272711        2.83634788393886
O           -7.75385739811604       -2.45256182813422        3.99832483717033
O           -7.25903408473631       -3.46286341124161        2.07592377242709
C           -8.59010501700092       -3.98945666830536        2.07683290897144
C            0.28935965457880        2.03708999115497        7.25934928480661
O           -0.55628737879090        2.91288382557092        7.39247133348081
O            1.69228456169163        2.19446138979591        7.58035257707672
C            2.11996263339718        3.53695543102375        7.83875182138971
O            0.95379373044303       -7.83031205684687        4.25336840227592
O            2.78939928384393       -6.56389161757689        3.71100610083660
C            3.42568481324174       -7.40963072429715        4.47222820949677
C           -3.76963254481115       -4.86832458692178        3.93372933180952
C           -2.97536599868068       -3.04414865380077       -0.23225720810215
H            2.66130339834837       -8.18823068389874        4.86500796000225
H            4.11589453337657       -6.90671131701175        5.15092928900727
H            4.11583176597535       -8.07440025887188        3.93122466590986
H            2.61495770916818        3.71773100785295        8.82546738443354
H            1.32450779814307        4.22835021282439        7.60856951527992
H            2.95617768742897        3.81736601134328        7.06901838215129
H           -3.83606643282150       -2.46379937125260       -0.64328472446868
H           -3.13179795673561       -4.15529029785028       -0.37379518454242
H           -2.25352605561738       -2.59489720127947       -0.99900151445494
H           -3.19358107517196       -5.57287047698007        4.57426539092680
H           -4.72711325664783       -5.37869056231892        3.58889171118421
H           -3.94134392362701       -4.08537555605361        4.67864085602479
H           -9.26591650684189       -3.90542424255531        1.25817997736036
H           -9.04133542517430       -3.43096052682895        2.91933150458929
H           -8.47035849824134       -5.12166709683764        2.40931034379024
116
 energy: -22.778657405174 gnorm: 0.457548069447 xtb: 6.6.1 (8d0f1dd)
C            0.29275085187293        5.94555176251318        3.15713472911518
C           -0.04310710277441        4.85533701064719        2.33534009891165
C            0.03826417394018        3.50747373916801        2.83474176654495
C            1.17861945587170        3.28204776659241        3.71403721282344
C            1.63776337995434        4.40360291722813        4.41878392199253
C            1.15752778933659        5.71538676162159        4.22237102417593
C           -0.75758335539761        2.37625689710965        2.43015996595133
C            0.15231901218322        1.24291424859495        2.39633310456705
C            1.35770305724089        1.03453443673375        3.12856966939864
N            1.75296197728970        2.07214203800149        3.94055133311058
C           -2.14243806683327        2.25577252971703        2.01734473314505
C           -2.44524182100464        1.18543456839392        1.18058177637841
N           -1.53990990339427        0.18331217150268        0.91052565510478
C           -0.34780715596353        0.16822293994039        1.60882228953874
C            0.51384568738805       -1.01257685364985        1.55918300187911
C            1.78731777887263       -1.10583589676939        2.09017664131474
C            2.20511219013881       -0.04609778058237        2.86570495974900
C           -3.14695543519902        3.32116214768228        2.27356740142836
C           -4.31136958934220        3.22100890910433        1.45356400565279
C           -4.47820249838252        2.19636367836087        0.47225840658416
C           -3.64240367607467        1.07120133999847        0.44172656162303
O           -3.05078060102458        4.45213061831894        3.22729373725280
O           -0.72146211055735        4.86651385961417        1.16622045630241
C            1.60982025409036        6.82917049084038        5.10992832854759
C           -5.71511525875724        2.30450941951745       -0.39332968579007
H            2.45862011219577        4.22242805474491        5.08785687361960
H           -0.20277051144601        6.86529342992379        2.98270319761150
H            3.06166954323762       -0.32435372804407        3.43715399166589
H            0.30649847805683       -1.78406680684073        0.90950629096458
H           -3.83539075442820        0.28640772795142       -0.23466903997812
H           -5.03567782206959        3.92221185088361        1.54455029489019
O            1.28917330674647        7.99947687410088        4.85141102854446