116
 energy: -22.928061455056 gnorm: 0.329736929581 xtb: 6.6.1 (8d0f1dd)
C           -3.31122850772930        0.79849766164622       -0.92477639677520
C           -2.44380812530352       -0.12270372891954       -0.27661132624697
C           -1.41337090092821        0.39579727573559        0.56335275196199
C           -0.89266158675590        1.65801491088749        0.27377586709581
C           -1.72665675402493        2.51431363229076       -0.49448366572522
C           -2.95444148494349        2.13954154133227       -1.01494489940871
C           -0.74098268209890       -0.43411532818871        1.49825021926784
C            0.56872586496315        0.03782116815119        1.86248088067890
C            1.03782416582094        1.29402317993033        1.50887470833621
N            0.31238977034758        2.07067427098208        0.65193736800696
C           -1.29695700510141       -1.39996043042223        2.41574187746061
C           -0.38243517664656       -2.18060797534842        3.13232615520648
N            0.91308504082021       -1.90366887689689        3.30325166013478
C            1.37712470144904       -0.74872102533751        2.81811050966982
C            2.52149331701875       -0.17739833758153        3.39379298866852
C            2.95849061756259        1.02681208890480        2.95105897606587
C            2.24288949469137        1.78498308775960        2.03503020483770
C           -2.74860936222260       -1.74497937691422        2.38401158947411
C           -3.09416315450955       -2.91614440870436        3.00571134491758
C           -2.16786021984049       -3.77788778654213        3.63251872101904
C           -0.85708937311598       -3.40495313382985        3.68547234358092
O           -3.71994433332149       -0.94984598373544        1.67726658385724
O           -2.55702603277562       -1.47241711578389       -0.57241635275616
C           -3.84297843593025        3.13357444054366       -1.60938954875544
C           -2.68769581069131       -5.03867041417370        4.30484659386931
H           -1.39666850744143        3.51251503834900       -0.76806311868865
H           -4.27662633836220        0.55105838579656       -1.33106614114542
H            2.66329581305412        2.73912661909249        1.72562431984580
H            3.05775395548473       -0.69369546277216        4.16536137542516
H           -0.24710966264510       -4.12034095424229        4.22946223699121
H           -4.11477991332403       -3.04712728052358        3.03244694615357
O           -4.21824883374556        4.03433712717988       -0.87713382485991
O           -4.44510595673734        2.90643496899600       -2.81853501752979
C           -5.44216520282800        3.83300025693726       -3.02488532025093
C            4.23586651889298        1.50004220933226        3.59165660008449
O            5.05927614697201        0.66079890002952        3.91714215179376
O            4.47001334453535        2.86385149488593        3.72605651435371
C            5.79457498613219        3.08584475587818        4.15829123132174
O           -3.82227255313510       -5.27347675879771        4.16636005494405
O           -1.85023202017753       -5.79767454267276        5.06656077253571
C           -2.55119635829503       -6.86252441382958        5.62930343183426
C           -5.07197156564436       -1.42399175670916        1.58830531863830
C           -1.33089900128490       -2.23622472573986       -0.99264499351172
H           -2.54510546830388       -7.76426885143998        4.99136022291012
H           -3.57194749219491       -6.44405511486021        5.74196173723541
H           -2.09133598235598       -7.02043774843818        6.64022264233588
H            5.72707967266424        3.46798026205549        5.10135971236643
H            6.34060091246885        3.78468702308830        3.50069950143490
H            6.17933064298187        2.03010500085905        4.19342358084693
H           -0.91862729772622       -2.57650129080332       -0.01361370304871
H           -0.49769766914251       -1.60651221708571       -1.34094446550576
H           -1.52632419730509       -2.94569707152159       -1.75361447637286
H           -5.11788846557077       -2.41810833635233        1.17520213188926
H           -5.67929807973498       -0.69619639428435        1.04301666067831
H           -5.57598832326623       -1.42383358739762        2.57928294206544
H           -6.13050215934830        3.76035386975488       -2.23272855695873
H           -5.86615610071888        3.45938329385866       -4.02668959924245
H           -5.13479557532099        4.87790991548477       -2.98314551356402
C           -1.38192942069774        3.73616555005018        2.91232598411686
C           -1.84821468128685        2.59982427735607        3.49755545445181
C           -1.05946531454833        2.05730632010638        4.60922730982276
C            0.19893954712228        2.69376791964407        4.86302140881997
C            0.50425395911860        3.94630308659851        4.28768785650746
C           -0.26031777722226        4.46998310053134        3.25072669343212
C           -1.20488993561782        0.74454293276906        5.14851520323437
C           -0.06287609782692        0.02744069315890        5.60930570802864
C            1.19208754369866        0.71421540266195        5.78882868583885
N            1.19428660993148        2.06344359410476        5.62744624321596
C           -2.41361422770794        0.07928500213936        5.25249410304426
C           -2.45851584031083       -1.32662100968547        5.60237876023992
N           -1.29466212405906       -1.98318595734370        5.89916817085159
C           -0.14475655767527       -1.32117560077092        5.98824682881008
C            0.97209270935794       -1.98958449505532        6.53157704134458
C            2.21982707914082       -1.36973967291181        6.68703967237737
C            2.30561929262884       -0.09745313075593        6.26436900324455
C           -3.73018485967715        0.71367583494582        5.25810242262992
C           -4.89964478833448       -0.06184623426677        5.21204641615509
C           -4.82617965800088       -1.39228978090841        5.46901303780036
C           -3.67144193418464       -1.98914944386360        5.67265433266067
O           -3.75568638935321        2.07705011038914        5.52067969627343
O           -2.94192434743730        1.91263938797883        3.01658762327703
C            0.21273512614467        5.50086066357994        2.34765104514621
C           -6.06660304520411       -2.17604633098929        5.80641622556876
H            1.41756699010566        4.38133362238595        4.66974005703471
H           -1.82880610647429        4.11982501512100        2.06992133318584
H            3.26888037378556        0.32655662585251        6.31721410015598
H            0.87146188387207       -3.08471526305024        6.57830423410869
H           -3.67716811065157       -3.05999292755990        5.83019634570050
H           -5.77379677507622        0.43595144608221        4.71017130754348
O            1.34459852619901        5.82615848916894        2.44941456579099
O           -0.74718748219123        6.07961784856304        1.59848183464284
C           -0.21473095568964        7.24015934882472        1.05753806029483
C            3.53228080814219       -2.00967610361154        7.02506769044485
O            3.64093082622715       -3.14437803815732        7.50071391725347
O            4.56565258381079       -1.22937033368332        6.69086985080897
C            5.72579357310716       -1.80692399125161        7.22246151275881
O           -7.04801223588612       -1.95726935745904        5.14194115322235
O           -6.01514389321278       -2.93743591896022        6.94765316328794
C           -7.21292732384718       -3.62681918543340        7.15115816329978
C           -4.95459780685163        2.65960679932188        5.86868674392943
C           -3.68284113682406        2.59129188358641        2.05479246020704
H           -7.43119628931628       -4.22607794725959        6.20622607140901
H           -8.06548455146707       -2.91765848248592        7.29781126410398
H           -7.07314693247270       -4.33087306029711        7.91223421050944
H            6.57332189837178       -1.29353136199234        6.78341268688262
H            5.74663761932316       -2.84282155125561        6.88089468184451
H            5.69426191474290       -1.72781984964892        8.29460302186842
H           -4.10481209541493        3.44288266176275        2.60483747673152
H           -4.49244774344916        1.87419893016926        1.82433103764650
H           -3.18901540870812        2.85154642679373        1.06781919454921
H           -5.55414326821421        2.76698137191684        4.93950725322359
H           -4.78658370641210        3.62090640967288        6.25983200635257
H           -5.43485580473958        1.97242995129449        6.65265772412460
H            0.89164886030839        7.38838561720231        1.13776105146914
H           -0.62894889903848        8.04195665205089        1.64837664327952
H           -0.59282546386754        7.45699159724320        0.03719083132488
116
 energy: -22.865915911039 gnorm: 0.397207260838 xtb: 6.6.1 (8d0f1dd)
C           -2.91692535591468        0.57218410976327       -1.60987245755290
C           -2.63601307064299       -0.09925858922085       -0.43515552996930
C           -1.71501050347471        0.54299834502064        0.52456032066462
C           -1.21680475758125        1.83650395025907        0.24760286383242
C           -1.71157029969873        2.58973993922994       -0.86497088809821
C           -2.50390559240120        1.93582753404662       -1.81916807345058
C           -1.15193230514779       -0.12120713809576        1.60018201372584
C            0.12976356254146        0.29363434123872        2.00972080834254
C            0.57579479686990        1.63262283534598        1.70269754970893
N           -0.15978135001094        2.42521848134911        0.89791671031715
C           -1.60307048361680       -1.26288626051065        2.31318925311495
C           -0.66107558591854       -2.10074232285547        2.99293676697161
N            0.57802105225530       -1.71505443085859        3.35090123563129
C            0.93140329703615       -0.55020556020411        2.86125813958430
C            2.14955046493553       -0.04115697752390        3.30518069845919
C            2.67024151903706        1.18011192554836        2.95695713226905
C            1.80079689156213        2.07227476697962        2.22891985162466
C           -2.99165725914061       -1.59953660395210        2.30823208416773
C           -3.42831271532035       -2.84277194861945        2.86779430246162
C           -2.51842569695354       -3.59846678678758        3.47754624727620
C           -1.11215208778094       -3.27591570563707        3.52918501879375
O           -3.89947380037627       -0.64695469390308        1.77915596207670
O           -3.07399707315001       -1.45381892111221       -0.45498871814527
C           -3.09550943750461        2.71647820911357       -2.91778132629463
C           -2.97116231735044       -4.93529244052950        4.02579482267843
H           -1.51269386332719        3.62194307255466       -1.00511510626051
H           -3.42141362157886       -0.00210969731339       -2.35023778155242
H            2.17547039636243        3.10940247554283        2.09273352670068
H            2.76528913676573       -0.60999606894577        3.88121688294529
H           -0.31774885647148       -3.81480055101257        3.99857742372771
H           -4.46081275913314       -3.13459211974544        2.89354831936895
O           -2.54719089506977        3.75275957213347       -3.18604763914225
O           -4.13204696241943        2.20555602629119       -3.64072276704698
C           -4.25225862839822        2.84779885738684       -4.82082709036650
C            3.96748549574476        1.61494790678315        3.56436126593291
O            4.86003007004911        0.97723009286959        4.06134594236113
O            4.07456477248418        2.99027653435702        3.38276802013269
C            5.07965766695140        3.46033422645936        4.25173511317476
O           -4.13589139493766       -5.40011067076119        3.88984049711202
O           -1.98935907402581       -5.64913586988263        4.79170648891805
C           -2.53651653870624       -6.71683075929452        5.44335225963082
C           -5.27096791571203       -0.92162253923713        2.06051224438299
C           -2.12987353183648       -2.47250889351526       -0.87589500870859
H           -2.10155205455551       -6.76757789453174        6.45808559437219
H           -2.39333580527210       -7.66776947821617        4.78749213237802
H           -3.71319792690240       -6.55806630360569        5.53324058948900
H            5.47039682118972        4.35830764304192        3.65301250682324
H            5.92949238149763        2.86744682018504        4.36551333433844
H            4.63975903745003        3.54711450896106        5.26439166520799
H           -2.21496340037926       -3.22059084913485       -0.09364809313313
H           -1.27843977882839       -1.89172298103472       -1.23203636025243
H           -2.53848506652463       -2.84635001477034       -1.86523734949468
H           -5.42900742177074       -1.77489017852054        1.31861361919086
H           -5.90006369504599       -0.16150217179757        1.68329313855140
H           -5.42321857403024       -1.34019818762656        3.03284568265334
H           -3.39998666901835        3.60769459005815       -4.98346176214147
H           -5.24326718431664        3.29366054204807       -4.74366632371607
H           -4.14186419079532        2.29439849386293       -5.82275285908606
C           -1.72080537622250        3.91923043632495        3.71944487827250
C           -1.86144198838401        2.66969140430709        4.36073173251089
C           -0.89218267294417        2.22027539407343        5.25285048200836
C            0.36074098764165        2.84593181025704        5.33956081258527
C            0.54321402890627        4.07978709491074        4.73841742983266
C           -0.43887775224674        4.52084263048762        3.87811555871301
C           -0.99054587001729        0.95900769873273        5.86154933644033
C            0.18667964491762        0.18467203013327        6.03760291998719
C            1.40091564866055        0.84596818957194        6.04981299317075
N            1.43930569227087        2.21985561385436        5.98043472436845
C           -2.25905549734629        0.23944680631366        6.12615369804764
C           -2.19968937345831       -1.16121298591299        6.11538630675588
N           -1.07279039094118       -1.77803077057665        6.31153016387286
C            0.07472554191778       -1.19487878696496        6.34144167997535
C            1.25735976881943       -1.91104845349371        6.57369852018032
C            2.49957699251858       -1.31277814783331        6.61070009107312
C            2.54414495435086        0.05757690750496        6.35950900761977
C           -3.50318279672244        0.88768291971737        6.37651964886361
C           -4.66504787839389        0.12892160481322        6.22118645037443
C           -4.64808002415047       -1.24910640383472        6.00925530067094
C           -3.42492996569764       -1.89997664920481        6.03628099645080
O           -3.53109137296843        2.20779099717950        6.84343223202370
O           -3.09037620656255        1.99312886864900        4.03200934887602
C           -0.11498022566468        5.53452187611049        2.80751134421889
C           -5.87341300867679       -2.11688404591129        5.83306882324557
H            1.20886414680978        4.82911959934934        4.96635675504709
H           -2.48551843838622        4.52499786373594        3.23852197080359
H            3.46095028107789        0.58963112257298        6.35338840401689
H            1.19584172804355       -2.95131218208094        6.77471520487090
H           -3.36259802048701       -2.98224309511935        5.98445278115047
H           -5.65248381009130        0.59106257614532        6.14251821623062
O            0.90996362094165        6.17914128957610        2.98804162348009
O           -0.95685451660475        5.32289185077919        1.70724635715871
C           -0.53365471757579        6.32113903778973        0.82661158974096
C            3.80427171145353       -2.13802095782113        6.72076227611951
O            3.68468339662193       -3.37428092232142        6.73473671098791
O            4.99671445562127       -1.44037177996788        6.47470742421140
C            6.02476846832974       -2.38841644699505        6.22650007734144
O           -7.03256161436234       -1.69609318805214        6.03793095358160
O           -5.47641352871490       -3.40566390820389        5.61949168976739
C           -6.54425719964125       -4.22424322601772        5.31943981188257
C           -4.74334768721151        2.93423196484292        7.15346732391224
C           -3.65416760302545        2.17559056119689        2.73333915198837
H           -6.08639119805078       -5.14155926117642        4.97272186586427
H           -7.03194647565130       -3.72386426391405        4.46368961993562
H           -7.01944373429069       -4.30476999566346        6.22067749278329
H            6.64937405039305       -1.89715754586296        5.60522012932532
H            5.60929805672211       -3.27496123009937        5.80343504834532
H            6.49491072340149       -2.46574559884385        7.24808963892625
H           -4.36656856042996        3.11293949463134        2.76188784521747
H           -4.25403038612844        1.24577822061102        2.62625295621229
H           -2.76147501684419        2.36227126289108        2.08236749001857
H           -5.01449144011442        3.20875991999421        6.13463605110827
H           -4.55283684457176        3.78536214954353        7.75313842882708
H           -5.47919322993539        2.45301729928955        7.69530078895484
H            0.54594763535601        6.31042344865242        0.80635865791848
H           -0.74496739158433        7.33026003470906        1.30815318822640
H           -1.02244545907024        6.12693257988924       -0.12623651162608
116
 energy: -22.862054042414 gnorm: 0.404203623933 xtb: 6.6.1 (8d0f1dd)
C           -3.44994706715705       -0.12921915352560       -2.14897243124062
C           -2.58417223227149       -0.76070948147237       -1.23411256285167
C           -1.84699553053164        0.08583621743376       -0.30816973355304
C           -1.36924978116581        1.36016128149590       -0.70682258659953
C           -2.08171545445757        1.87961671923738       -1.77281559362709
C           -3.15132999231412        1.24347532588547       -2.37187102081465
C           -1.36078160077999       -0.33396218265952        1.00714061681534
C           -0.18666503006262        0.29491457400592        1.45433730177025
C            0.09268552953081        1.57140778522338        0.98664976212513
N           -0.60605094975373        2.23998611069562        0.06636829384742
C           -1.84637428145143       -1.43559886175132        1.81471934963372
C           -0.91778944949364       -2.01481609950666        2.72735064876861
N            0.28625635028747       -1.41507104185710        3.15659422183679
C            0.50465505140602       -0.24889411874951        2.56981399901432
C            1.73475403762322        0.34118189355847        2.90325745945454
C            2.05354116604661        1.63215218197600        2.32827713061472
C            1.20472851445909        2.24295802409767        1.46641967162853
C           -3.20607261330266       -1.89580023057852        1.84192033697714
C           -3.52232230763297       -3.11064103667390        2.45031026262630
C           -2.54248572332883       -3.82132750078343        3.09108333319988
C           -1.29604485967734       -3.28158374482398        3.34185702448508
O           -4.20591732620244       -1.10214060300081        1.40264891614089
O           -2.46034227308108       -2.13330365444318       -1.08517022327218
C           -3.85153335561046        1.93571674796998       -3.55354724539376
C           -2.87431057828927       -5.10910457384890        3.76175364758397
H           -1.72124109370352        2.70570065324702       -2.27708301392511
H           -4.12674934999959       -0.53722918642257       -2.82356951116626
H            1.55332698271046        3.13177854792363        0.95771015289195
H            2.25409133314188       -0.27053009299003        3.55193349361315
H           -0.64611873909556       -3.74466021494645        3.99100589738301
H           -4.57673547406585       -3.51662513697059        2.49774065011269
O           -3.88203672693176        3.17028049893230       -3.56046110514482
O           -4.40701022612261        1.08748058721268       -4.47331429457073
C           -5.17324046682866        1.86502450297377       -5.50200145287971
C            3.33024359198437        2.37229801812635        2.71027840807836
O            4.04162609575902        1.87646883376292        3.58799145312821
O            3.69975739717204        3.35038916452592        1.86074621788323
C            4.97643622539299        3.74125234304876        2.07158063428379
O           -3.97773740244560       -5.59830167837842        3.58167486760243
O           -1.91096079398307       -5.71227269740337        4.51296910432570
C           -2.35869295087019       -6.97133964027226        4.99857138872958
C           -5.42821408806523       -1.18704413741336        2.08801346103601
C           -1.08137946430474       -2.57492364360372       -1.50342827266811
H           -3.22323078635417       -7.22794076197691        4.47734396044189
H           -2.57198941147645       -7.02109085661793        6.11187703528463
H           -1.47877660169743       -7.54306688881965        4.80767546130789
H            5.12955818084012        3.40173469778341        3.07672167668116
H            5.16401026009275        4.86062638131743        2.22375431944575
H            5.60348125499581        3.15086270477018        1.34011299022259
H           -0.50850462360341       -1.64918736717743       -1.75737133933347
H           -1.21342752930338       -3.03090410619141       -2.49208126092738
H           -0.67521311725867       -3.21890350540158       -0.69469974895287
H           -6.09481557027377       -1.88493544982532        1.70604744898035
H           -5.69843647279483       -0.08855029085970        2.01165807981506
H           -5.27297958456709       -1.22386801356947        3.18016339114161
H           -6.07968566884537        1.35144804661183       -5.57029849816035
H           -4.62610675364970        1.75911217090849       -6.42204845459852
H           -5.31360984901385        2.89933666933333       -5.17492185942476
C           -1.01914179046995        4.02993541571110        4.11639786972286
C           -1.35629988805369        2.70852259615451        4.41603834903240
C           -0.39052186824238        2.05230206708793        5.40618456039287
C            0.90546947571614        2.56857069760961        5.66883081062699
C            1.15571466222883        3.94669395192534        5.19624604270613
C            0.17243195466925        4.69767311111310        4.48500844645322
C           -0.75565518408669        0.79239504403134        5.95444151143333
C            0.32058730788304        0.01802406968460        6.28567575466838
C            1.61120844365617        0.60185431748835        6.47690445741774
N            1.88377324621519        1.92291049499298        6.22794165725425
C           -2.02966077047995        0.23041304794477        6.12286238786011
C           -2.08992089905698       -1.20749169791940        6.16658117567120
N           -1.07208612199113       -1.97361655699672        6.40254682395875
C            0.19440830594067       -1.40081248785740        6.49062225835233
C            1.19774274723999       -2.10192230511348        7.19084371333059
C            2.38506473891002       -1.48219571564832        7.53615105847859
C            2.57785734661370       -0.14182454624678        7.25038480874938
C           -3.27159703434763        0.97307912513431        6.33976055377656
C           -4.45651916932137        0.29368962796283        6.05702697630227
C           -4.52282559285197       -1.08456831668863        5.91158480378128
C           -3.32932012346205       -1.83894406112792        6.12477330365469
O           -3.27712054422441        2.31879301355201        6.62815481311820
O           -2.56770229060442        2.10685729451838        4.01258772216644
C            0.50656982112614        5.99816251865278        3.91639504013934
C           -5.86098255245349       -1.78984989962496        5.62512057947193
H            2.04719043797108        4.44678826385359        5.47477922637241
H           -1.65853659781234        4.72468701123103        3.61607496528141
H            3.53692034749660        0.31676376323535        7.47351201062598
H            1.17976142380191       -3.18389945669883        7.21021978012377
H           -3.26903922613197       -2.90086346628336        6.03895537040242
H           -5.28119178149075        0.98312025247866        6.10072647279272
O            1.59239574630731        6.44110020501897        3.51159315926703
O           -0.58056526883769        6.96733528451798        3.89444910568812
C           -0.19788712508054        8.25472274960277        3.53820226217252
C            3.48280882235705       -2.25016137755065        8.15784455561285
O            3.43116304777815       -3.45964926174318        8.13495195941482
O            4.55141444714296       -1.50720040520822        8.53343757773885
C            5.55343425206512       -2.40571250303644        8.98253837651174
O           -6.91238584620304       -1.33280613897910        6.05001212461331
O           -5.65208339725820       -2.95294982969490        4.93777155162164
C           -6.85403007137807       -3.49481169468707        4.70807106630866
C           -2.80250463219565        2.70869006532633        7.93143512236986
C           -3.44561736758820        2.94629804440923        3.27650497436302
H           -6.85635563392571       -4.07610417381965        3.85836250989190
H           -7.45496634468880       -2.62357334862665        4.47260137709858
H           -7.21553253042469       -3.93484401735936        5.71656120689107
H            6.19262865951307       -1.90915102039082        9.63956579324444
H            6.08876411709595       -2.83629207220944        8.22604144548808
H            5.08108693773948       -3.23499369346370        9.59768246377158
H           -3.95361357891372        3.69222101985494        4.03696912733285
H           -4.13421717968398        2.35166418590062        2.67230267376298
H           -2.88268385197022        3.47109048114595        2.50935214217177
H           -3.22129912125545        3.59450216442657        8.35940960109448
H           -1.68442688668685        2.60219107192832        7.87191152873822
H           -3.12519829476249        1.90191868482092        8.65770293259787
H           -0.31682051534621        8.27241105245325        2.40902689939604
H            0.80830840418527        8.42193326405497        3.87213115568758
H           -1.01291192533879        8.86822516176094        3.82193132167210
116
 energy: -22.879915665830 gnorm: 0.374812358639 xtb: 6.6.1 (8d0f1dd)
C           -3.67045839636936       -0.45085767649911       -2.16510698363278
C           -2.99821920746290       -0.96818486056782       -1.08279213575953
C           -2.08762766633274       -0.09481907317018       -0.38198566824667
C           -1.91588550533560        1.18802871847453       -0.87687738990204
C           -2.70605060520816        1.67855198172555       -1.96213947037677
C           -3.63291842529931        0.88884805348612       -2.59072501376972
C           -1.31385018456540       -0.55843321123455        0.73164316000608
C           -0.24040556424041        0.18168678043203        1.06152069654961
C           -0.09507015081869        1.55297720922843        0.59361378514609
N           -1.02918275554227        2.06039668716681       -0.27600593100536
C           -1.67475903536168       -1.60268563226771        1.57975019891887
C           -0.56452169121236       -2.13127657331060        2.33796703377553
N            0.65035453082653       -1.59341154645176        2.52655299257347
C            0.70641312049792       -0.30253267772597        2.05175746404116
C            1.78445631659722        0.51828047085670        2.48893491542450
C            1.83050604235596        1.83089028352338        2.00831642296201
C            0.97868913062255        2.36226656094164        1.06902929752468
C           -3.05959102775888       -1.96945163278335        1.83086669198090
C           -3.22061724672311       -3.12616402792087        2.47916968726489
C           -2.14592440954503       -3.76063362990831        3.13029878152674
C           -0.84828202678103       -3.28516934467819        3.11448401297297
O           -3.97356172106338       -1.01390848082834        1.49408575810800
O           -3.31105425938860       -2.28072737942948       -0.69953733528204
C           -4.34484621969223        1.55294039465000       -3.65841187016138
C           -2.48483025101835       -4.96756348879852        4.05008234082743
H           -2.51477756852070        2.59935261262563       -2.41927417257127
H           -4.26527623184364       -1.12814126416120       -2.62516218761441
H            0.92126842303471        3.39383968513073        0.68961257886900
H            2.59990778043698        0.22356529921727        3.07607098689256
H           -0.30054695484698       -3.67853113493432        3.88709796480861
H           -4.17024618390383       -3.64482444992860        2.39277499606707
O           -4.19334421744386        2.71969624060297       -3.97624760578939