Optimization of monomers started
      -----------------------------------------------------------      
     |                   =====================                   |     
     |                           x T B                           |     
     |                   =====================                   |     
     |                         S. Grimme                         |     
     |          Mulliken Center for Theoretical Chemistry        |     
     |                    University of Bonn                     |     
      -----------------------------------------------------------      

   * xtb version 6.7.1 (edcfbbe) compiled by 'runner@Mac-1732539442253.local' on 2024-11-25

   xtb is free software: you can redistribute it and/or modify it under
   the terms of the GNU Lesser General Public License as published by
   the Free Software Foundation, either version 3 of the License, or
   (at your option) any later version.
   
   xtb is distributed in the hope that it will be useful,
   but WITHOUT ANY WARRANTY; without even the implied warranty of
   MERCHANTABILITY or FITNESS FOR A PARTICULAR PURPOSE.  See the
   GNU Lesser General Public License for more details.
   
   Cite this work as:
   * C. Bannwarth, E. Caldeweyher, S. Ehlert, A. Hansen, P. Pracht,
     J. Seibert, S. Spicher, S. Grimme, WIREs Comput. Mol. Sci., 2020, 11,
     e01493. DOI: 10.1002/wcms.1493
   
   for GFN2-xTB:
   * C. Bannwarth, S. Ehlert and S. Grimme., J. Chem. Theory Comput., 2019,
     15, 1652-1671. DOI: 10.1021/acs.jctc.8b01176
   for GFN1-xTB:
   * S. Grimme, C. Bannwarth, P. Shushkov, J. Chem. Theory Comput., 2017,
     13, 1989-2009. DOI: 10.1021/acs.jctc.7b00118
   for GFN0-xTB:
   * P. Pracht, E. Caldeweyher, S. Ehlert, S. Grimme, ChemRxiv, 2019, preprint.
     DOI: 10.26434/chemrxiv.8326202.v1
   for GFN-FF:
   * S. Spicher and S. Grimme, Angew. Chem. Int. Ed., 2020, 59, 15665-15673.
     DOI: 10.1002/anie.202004239
   
   for ALPB and GBSA implicit solvation:
   * S. Ehlert, M. Stahn, S. Spicher, S. Grimme, J. Chem. Theory Comput.,
     2021, 17, 4250-4261. DOI: 10.1021/acs.jctc.1c00471
   
   for ddCOSMO and CPCM-X implicit solvation:
   * M. Stahn, S. Ehlert, S. Grimme, J. Phys. Chem. A,
     2023, XX, XXXX-XXXX. DOI: 10.1021/acs.jpca.3c04382
   
   for DFT-D4:
   * E. Caldeweyher, C. Bannwarth and S. Grimme, J. Chem. Phys., 2017,
     147, 034112. DOI: 10.1063/1.4993215
   * E. Caldeweyher, S. Ehlert, A. Hansen, H. Neugebauer, S. Spicher,
     C. Bannwarth and S. Grimme, J. Chem. Phys., 2019, 150, 154122.
     DOI: 10.1063/1.5090222
   * E. Caldeweyher, J.-M. Mewes, S. Ehlert and S. Grimme, Phys. Chem. Chem. Phys.
     2020, 22, 8499-8512. DOI: 10.1039/D0CP00502A
   
   for sTDA-xTB:
   * S. Grimme and C. Bannwarth, J. Chem. Phys., 2016, 145, 054103.
     DOI: 10.1063/1.4959605
   
   in the mass-spec context:
   * V. Asgeirsson, C. Bauer and S. Grimme, Chem. Sci., 2017, 8, 4879.
     DOI: 10.1039/c7sc00601b
   * J. Koopman and S. Grimme, ACS Omega 2019, 4, 12, 15120-15133.
     DOI: 10.1021/acsomega.9b02011
   
   for metadynamics refer to:
   * S. Grimme, J. Chem. Theory Comput., 2019, 155, 2847-2862
     DOI: 10.1021/acs.jctc.9b00143
   
   for SPH calculations refer to:
   * S. Spicher and S. Grimme, J. Chem. Theory Comput., 2021, 17, 1701-1714
     DOI: 10.1021/acs.jctc.0c01306
   
   for ONIOM refer to:
   * C. Plett, A. Katbashev, S. Ehlert, S. Grimme, M. Bursch,
     Phys. Chem. Chem. Phys., 2023, 25, 17860-17868. DOI: 10.1039/D3CP02178E
   
   for DIPRO refer to:
   * J. Kohn, N. Gildemeister, S. Grimme, D. Fazzi, A. Hansen,
     J. Chem. Phys., 2023, just accepted.
   
   for PTB refer to:
   * S. Grimme, M. Mueller, A. Hansen, J. Chem. Phys., 2023, 158, 124111.
     DOI: 10.1063/5.0137838
   
   with help from (in alphabetical order)
   P. Atkinson, C. Bannwarth, F. Bohle, G. Brandenburg, E. Caldeweyher
   M. Checinski, S. Dohm, S. Ehlert, S. Ehrlich, I. Gerasimov, C. Hölzer
   A. Katbashev, J. Kohn, J. Koopman, C. Lavigne, S. Lehtola, F. März, M. Müller,
   F. Musil, H. Neugebauer, J. Pisarek, C. Plett, P. Pracht, F. Pultar,
   J. Seibert, P. Shushkov, S. Spicher, M. Stahn, M. Steiner, T. Strunk,
   J. Stückrath, T. Rose, and J. Unsleber
   
 * started run on 2025/03/17 at 17:44:31.345     
   ID    Z sym.   atoms
    1    6 C      1-21, 25-44, 47, 52-75
    2    8 O      22, 23, 45, 46, 48-51
    3    5 B      24
    4    1 H      76-141

           -------------------------------------------------
          |                Calculation Setup                |
           -------------------------------------------------

          program call               : xtb Katherine1.mol --opt tight --cycles 500 --chrg -1 --uhf 2 --spinpol --tblite
          coordinate file            : Katherine1.mol
          omp threads                :                     8

########################################################################
[WARNING] Please study the warnings concerning your input carefully
-1- prog_main: Charge in sdf/mol input was overwritten
########################################################################
repulsion energy          2.8095451010688E+00 Eh
dispersion energy         2.8033149374234E-03 Eh
interaction energy        0.0000000000000E+00 Eh
number of electrons       3.8200000000000E+02 e
integral cutoff           1.9311100799991E+01 bohr

------------------------------------------------------------
  cycle        total energy    energy error   density error
------------------------------------------------------------
      1     -208.1765921153  -2.1098894E+02   1.0920567E-01
      2     -209.0155337847  -8.3894167E-01   5.2941150E-02
      3     -209.0064685648   9.0652198E-03   2.8292035E-02
      4     -209.0779318942  -7.1463329E-02   1.3827702E-02
      5     -209.1247254210  -4.6793527E-02   5.1414225E-03
      6     -209.1296829571  -4.9575361E-03   2.8900536E-03
      7     -209.1313824981  -1.6995410E-03   1.7031798E-03
      8     -209.1319160954  -5.3359727E-04   6.9846213E-04
      9     -209.1319616081  -4.5512688E-05   4.5418763E-04
     10     -209.1319782358  -1.6627684E-05   2.2580603E-04
     11     -209.1319803977  -2.1619100E-06   1.3241374E-04
     12     -209.1319827404  -2.3427819E-06   6.3529228E-05
     13     -209.1319829885  -2.4805297E-07   3.2263410E-05
     14     -209.1319830913  -1.0277972E-07   1.5270773E-05
------------------------------------------------------------

electronic energy        -2.1194433150728E+02 Eh
total energy             -2.0913198309128E+02 Eh

 total:                                   7.597 sec
 - repulsion                              0.000 sec (  0%)
 - dispersion                             0.030 sec (  0%)
 - coulomb                                0.007 sec (  0%)
 - hamiltonian                            0.044 sec (  0%)
 - scc                                    7.516 sec ( 98%)

      ----------------------------------------------------------- 
     |                   =====================                   |
     |                        A N C O P T                        |
     |                   =====================                   |
     |               Approximate Normal Coordinate               |
     |                Rational Function Optimizer                |
      ----------------------------------------------------------- 
      ----------------------------------------------------------- 
     |                   =====================                   |
     |                        A N C O P T                        |
     |                   =====================                   |
     |               Approximate Normal Coordinate               |
     |                Rational Function Optimizer                |
      ----------------------------------------------------------- 

          ...................................................
          :                      SETUP                      :
          :.................................................:
          :   optimization level             tight          :
          :   max. optcycles                   500          :
          :   ANC micro-cycles                  20          :
          :   degrees of freedom               417          :
          :.................................................:
          :   RF solver                   davidson          :
          :   write xtbopt.log                true          :
          :   linear?                        false          :
          :   energy convergence         0.1000000E-05 Eh   :
          :   grad. convergence          0.8000000E-03 Eh/α :
          :   maxmium RF displ.          1.0000000          :
          :   Hlow (freq-cutoff)         0.1000000E-01      :
          :   Hmax (freq-cutoff)         5.0000000          :
          :   S6 in model hess.         20.0000000          :
          ...................................................

generating ANC from exact Hessian ...
Using Lindh-Hessian (1995)
 Shifting diagonal of input Hessian by    9.9756641174003954E-003
 Lowest  eigenvalues of input Hessian
    0.000000    0.000000    0.000000    0.000000    0.000000    0.000000
    0.010000    0.010015    0.010017    0.010101    0.010130    0.010326
    0.010335    0.010393    0.010519    0.010634    0.010734    0.010761
 Highest eigenvalues
    1.991351    1.993531    2.194923    2.196995    2.223459    2.224924


........................................................................
.............................. CYCLE    1 ..............................
........................................................................
------------------------------------------------------------
  cycle        total energy    energy error   density error
------------------------------------------------------------
      1     -209.1319827860  -2.1194433E+02   2.9134463E-05
      2     -209.1319827294   5.6631819E-08   2.9445567E-05
      3     -209.1319831114  -3.8197749E-07   5.2673765E-06
------------------------------------------------------------

 total:                                   1.345 sec
 * total energy  :  -209.1319831 Eh     change       -0.2007479E-07 Eh
   gradient norm :     0.2281725 Eh/α   predicted     0.0000000E+00 (-100.00%)
   displ. norm   :     0.5573864 α      lambda       -0.1025699E+00
   maximum displ.:     0.2020050 α      in ANC's #162, #241, #224, ...

........................................................................
.............................. CYCLE    2 ..............................
........................................................................
------------------------------------------------------------
  cycle        total energy    energy error   density error
------------------------------------------------------------
      1     -209.2055837690  -2.1213503E+02   6.6576350E-03
      2     -209.2059014437  -3.1767466E-04   4.3843118E-03
      3     -209.2050281684   8.7327531E-04   3.1689641E-03
      4     -209.2076190658  -2.5908974E-03   7.3914004E-04
      5     -209.2077896532  -1.7058744E-04   3.1556535E-04
      6     -209.2078046249  -1.4971729E-05   2.1541449E-04
      7     -209.2078062601  -1.6351771E-06   1.0834791E-04
      8     -209.2078086059  -2.3457745E-06   4.2106702E-05
      9     -209.2078087594  -1.5351864E-07   2.4319399E-05
     10     -209.2078087986  -3.9178332E-08   1.0104929E-05
------------------------------------------------------------

 total:                                   6.015 sec
 * total energy  :  -209.2078088 Eh     change       -0.7582569E-01 Eh
   gradient norm :     0.1226144 Eh/α   predicted    -0.6722975E-01 ( -11.34%)
   displ. norm   :     0.5675113 α      lambda       -0.5044647E-01
   maximum displ.:     0.2172126 α      in ANC's #154, #90, #162, ...

........................................................................
.............................. CYCLE    3 ..............................
........................................................................
------------------------------------------------------------
  cycle        total energy    energy error   density error
------------------------------------------------------------
      1     -209.2385423371  -2.1227565E+02   4.8264491E-03
      2     -209.2390438648  -5.0152768E-04   3.3731168E-03
      3     -209.2390623337  -1.8468862E-05   2.0401492E-03
      4     -209.2399873746  -9.2504088E-04   5.4548567E-04
      5     -209.2400639858  -7.6611271E-05   2.5678092E-04
      6     -209.2400729499  -8.9641134E-06   1.6372018E-04
      7     -209.2400722171   7.3284241E-07   9.7298901E-05
      8     -209.2400748782  -2.6610655E-06   3.0458783E-05
      9     -209.2400749532  -7.5046813E-08   1.8321413E-05
------------------------------------------------------------

 total:                                   4.903 sec
 * total energy  :  -209.2400750 Eh     change       -0.3226615E-01 Eh
   gradient norm :     0.0379994 Eh/α   predicted    -0.3334688E-01 (   3.35%)
   displ. norm   :     0.5627202 α      lambda       -0.1444764E-01
   maximum displ.:     0.1709291 α      in ANC's #90, #36, #30, ...

........................................................................
.............................. CYCLE    4 ..............................
........................................................................
------------------------------------------------------------
  cycle        total energy    energy error   density error
------------------------------------------------------------
      1     -209.2506433732  -2.1232217E+02   3.3008215E-03
      2     -209.2506949949  -5.1621666E-05   1.9504045E-03
      3     -209.2503936288   3.0136602E-04   1.0620985E-03
      4     -209.2507516620  -3.5803320E-04   1.5947751E-04
      5     -209.2507598817  -8.2196557E-06   8.1688008E-05
      6     -209.2507605998  -7.1807784E-07   4.6406444E-05
      7     -209.2507605615   3.8301494E-08   2.1281139E-05
      8     -209.2507606804  -1.1894366E-07   9.3522933E-06
------------------------------------------------------------

 total:                                   4.651 sec
 * total energy  :  -209.2507607 Eh     change       -0.1068573E-01 Eh
   gradient norm :     0.0226552 Eh/α   predicted    -0.9511270E-02 ( -10.99%)
   displ. norm   :     0.6179223 α      lambda       -0.8079545E-02
   maximum displ.:     0.2252721 α      in ANC's #30, #21, #36, ...

........................................................................
.............................. CYCLE    5 ..............................
........................................................................
------------------------------------------------------------
  cycle        total energy    energy error   density error
------------------------------------------------------------
      1     -209.2568414789  -2.1235762E+02   2.8145849E-03
      2     -209.2568603981  -1.8919203E-05   1.6506848E-03
      3     -209.2567004272   1.5997089E-04   7.1321139E-04
      4     -209.2568801280  -1.7970079E-04   1.0419742E-04
      5     -209.2568838148  -3.6867536E-06   5.0686009E-05
      6     -209.2568841085  -2.9369693E-07   2.7237674E-05
      7     -209.2568841077   8.2297902E-10   1.2118142E-05
------------------------------------------------------------

 total:                                   4.504 sec
 * total energy  :  -209.2568841 Eh     change       -0.6123427E-02 Eh
   gradient norm :     0.0161048 Eh/α   predicted    -0.5582274E-02 (  -8.84%)
   displ. norm   :     0.6163819 α      lambda       -0.4619619E-02
   maximum displ.:     0.2743552 α      in ANC's #21, #30, #33, ...

........................................................................
.............................. CYCLE    6 ..............................
........................................................................
------------------------------------------------------------
  cycle        total energy    energy error   density error
------------------------------------------------------------
      1     -209.2603762558  -2.1237859E+02   2.2990306E-03
      2     -209.2603930900  -1.6834199E-05   1.3626300E-03
      3     -209.2602894402   1.0364981E-04   5.6102557E-04
      4     -209.2604057694  -1.1632925E-04   8.0637444E-05
      5     -209.2604080770  -2.3076107E-06   3.7033463E-05
      6     -209.2604083530  -2.7594660E-07   1.8082625E-05
------------------------------------------------------------

 total:                                   2.550 sec
 * total energy  :  -209.2604084 Eh     change       -0.3524245E-02 Eh
   gradient norm :     0.0091418 Eh/α   predicted    -0.3187370E-02 (  -9.56%)
   displ. norm   :     0.6250495 α      lambda       -0.2934003E-02
   maximum displ.:     0.3413405 α      in ANC's #21, #30, #33, ...

........................................................................
.............................. CYCLE    7 ..............................
........................................................................
------------------------------------------------------------
  cycle        total energy    energy error   density error
------------------------------------------------------------
      1     -209.2627060502  -2.1239325E+02   1.8562229E-03
      2     -209.2627118950  -5.8448563E-06   1.0964886E-03
      3     -209.2626642858   4.7609180E-05   3.2975229E-04
      4     -209.2627165921  -5.2306302E-05   5.0026067E-05
      5     -209.2627172754  -6.8325551E-07   2.4004263E-05
      6     -209.2627173304  -5.4969490E-08   1.1977236E-05
------------------------------------------------------------

 total:                                   3.216 sec
 * total energy  :  -209.2627173 Eh     change       -0.2308977E-02 Eh
   gradient norm :     0.0102377 Eh/α   predicted    -0.2040141E-02 ( -11.64%)
   displ. norm   :     0.6373926 α      lambda       -0.2220613E-02
   maximum displ.:     0.3689287 α      in ANC's #21, #30, #6, ...

........................................................................
.............................. CYCLE    8 ..............................
........................................................................
------------------------------------------------------------
  cycle        total energy    energy error   density error
------------------------------------------------------------
      1     -209.2645225973  -2.1240193E+02   1.5738091E-03
      2     -209.2645361856  -1.3588295E-05   9.3432098E-04
      3     -209.2645073278   2.8857824E-05   2.7845097E-04
      4     -209.2645386542  -3.1326365E-05   6.5790579E-05
      5     -209.2645404090  -1.7548007E-06   2.1659311E-05
      6     -209.2645404753  -6.6288550E-08   1.3279407E-05
------------------------------------------------------------

 total:                                   2.782 sec
 * total energy  :  -209.2645405 Eh     change       -0.1823145E-02 Eh
   gradient norm :     0.0090910 Eh/α   predicted    -0.1561390E-02 ( -14.36%)
   displ. norm   :     0.6641608 α      lambda       -0.1927951E-02
   maximum displ.:     0.3718866 α      in ANC's #21, #6, #13, ...

........................................................................
.............................. CYCLE    9 ..............................
........................................................................
------------------------------------------------------------
  cycle        total energy    energy error   density error
------------------------------------------------------------
      1     -209.2661720564  -2.1240467E+02   1.5481768E-03
      2     -209.2661747436  -2.6872566E-06   9.2648699E-04
      3     -209.2660905955   8.4148117E-05   4.0771574E-04
      4     -209.2661826934  -9.2097924E-05   4.0023645E-05
      5     -209.2661830677  -3.7421347E-07   2.0951854E-05
      6     -209.2661830990  -3.1297304E-08   1.0764693E-05
------------------------------------------------------------

 total:                                   2.173 sec
 * total energy  :  -209.2661831 Eh     change       -0.1642624E-02 Eh
   gradient norm :     0.0088484 Eh/α   predicted    -0.1389196E-02 ( -15.43%)
   displ. norm   :     0.7198667 α      lambda       -0.1837858E-02
   maximum displ.:     0.3796407 α      in ANC's #21, #6, #13, ...

........................................................................
.............................. CYCLE   10 ..............................
........................................................................
------------------------------------------------------------
  cycle        total energy    energy error   density error
------------------------------------------------------------
      1     -209.2677205657  -2.1240738E+02   1.5638655E-03
      2     -209.2677310366  -1.0470830E-05   9.2450080E-04
      3     -209.2676579864   7.3050151E-05   4.0929562E-04
      4     -209.2677382068  -8.0220346E-05   6.1391733E-05
      5     -209.2677396168  -1.4100754E-06   2.4098045E-05
      6     -209.2677396848  -6.7996154E-08   1.5016945E-05
------------------------------------------------------------

 total:                                   2.977 sec
 * total energy  :  -209.2677397 Eh     change       -0.1556586E-02 Eh
   gradient norm :     0.0072561 Eh/α   predicted    -0.1395128E-02 ( -10.37%)
   displ. norm   :     0.7366197 α      lambda       -0.1582247E-02
   maximum displ.:     0.3453549 α      in ANC's #21, #6, #3, ...

........................................................................
.............................. CYCLE   11 ..............................
........................................................................
------------------------------------------------------------
  cycle        total energy    energy error   density error
------------------------------------------------------------
      1     -209.2690562946  -2.1240521E+02   1.5558370E-03
      2     -209.2690606651  -4.3705222E-06   9.2541508E-04
      3     -209.2689867306   7.3934488E-05   3.9543870E-04
      4     -209.2690677940  -8.1063323E-05   4.5036851E-05
      5     -209.2690683576  -5.6362140E-07   2.3766016E-05
      6     -209.2690684229  -6.5320080E-08   1.3465406E-05
------------------------------------------------------------

 total:                                   2.958 sec
 * total energy  :  -209.2690684 Eh     change       -0.1328738E-02 Eh
   gradient norm :     0.0066713 Eh/α   predicted    -0.1220397E-02 (  -8.15%)
   displ. norm   :     0.7200407 α      lambda       -0.1316717E-02
   maximum displ.:     0.3140512 α      in ANC's #6, #21, #3, ...

........................................................................
.............................. CYCLE   12 ..............................
........................................................................
------------------------------------------------------------
  cycle        total energy    energy error   density error
------------------------------------------------------------
      1     -209.2701619942  -2.1240857E+02   1.3763786E-03
      2     -209.2701705489  -8.5546028E-06   8.1407525E-04
      3     -209.2701247856   4.5763262E-05   3.2124266E-04
      4     -209.2701745990  -4.9813416E-05   5.8311733E-05
      5     -209.2701759021  -1.3030912E-06   2.2025597E-05
      6     -209.2701759708  -6.8715622E-08   1.3038146E-05
------------------------------------------------------------

 total:                                   2.168 sec
 * total energy  :  -209.2701760 Eh     change       -0.1107548E-02 Eh
   gradient norm :     0.0076564 Eh/α   predicted    -0.9996908E-03 (  -9.74%)
   displ. norm   :     0.7107299 α      lambda       -0.1128266E-02
   maximum displ.:     0.3251037 α      in ANC's #6, #3, #2, ...

........................................................................
.............................. CYCLE   13 ..............................
........................................................................
------------------------------------------------------------
  cycle        total energy    energy error   density error
------------------------------------------------------------
      1     -209.2711328298  -2.1240904E+02   1.2685825E-03
      2     -209.2711380960  -5.2661559E-06   7.5493847E-04
      3     -209.2711089892   2.9106805E-05   2.5934210E-04
      4     -209.2711406967  -3.1707496E-05   4.5962788E-05
      5     -209.2711414870  -7.9034987E-07   2.0260801E-05
      6     -209.2711415697  -8.2676422E-08   1.0923370E-05
------------------------------------------------------------

 total:                                   2.635 sec
 * total energy  :  -209.2711416 Eh     change       -0.9655989E-03 Eh
   gradient norm :     0.0062430 Eh/α   predicted    -0.8490984E-03 ( -12.07%)
   displ. norm   :     0.7033556 α      lambda       -0.1007093E-02
   maximum displ.:     0.3281394 α      in ANC's #6, #3, #2, ...

........................................................................
.............................. CYCLE   14 ..............................
........................................................................
------------------------------------------------------------
  cycle        total energy    energy error   density error
------------------------------------------------------------
      1     -209.2720019189  -2.1241294E+02   1.1719552E-03
      2     -209.2720070252  -5.1062786E-06   6.9507588E-04
      3     -209.2719877067   1.9318467E-05   2.1525623E-04
      4     -209.2720084485  -2.0741803E-05   4.8381090E-05
      5     -209.2720094019  -9.5341122E-07   1.8664941E-05
------------------------------------------------------------

 total:                                   2.254 sec
 * total energy  :  -209.2720094 Eh     change       -0.8678322E-03 Eh
   gradient norm :     0.0064225 Eh/α   predicted    -0.7526617E-03 ( -13.27%)
   displ. norm   :     0.7054898 α      lambda       -0.9190822E-03
   maximum displ.:     0.3293841 α      in ANC's #6, #3, #2, ...

........................................................................
.............................. CYCLE   15 ..............................
........................................................................
------------------------------------------------------------
  cycle        total energy    energy error   density error
------------------------------------------------------------
      1     -209.2727618022  -2.1241580E+02   1.1622322E-03
      2     -209.2727706498  -8.8476084E-06   6.8807302E-04
      3     -209.2727569134   1.3736475E-05   2.1314267E-04
      4     -209.2727723218  -1.5408418E-05   4.7356940E-05
      5     -209.2727731608  -8.3901369E-07   1.7037629E-05
------------------------------------------------------------

 total:                                   3.432 sec
 * total energy  :  -209.2727732 Eh     change       -0.7637589E-03 Eh
   gradient norm :     0.0084438 Eh/α   predicted    -0.6882619E-03 (  -9.88%)
   displ. norm   :     0.6921728 α      lambda       -0.8413864E-03
   maximum displ.:     0.3319605 α      in ANC's #3, #6, #2, ...

........................................................................
.............................. CYCLE   16 ..............................
........................................................................
------------------------------------------------------------
  cycle        total energy    energy error   density error
------------------------------------------------------------
      1     -209.2734355714  -2.1241633E+02   1.1222221E-03
      2     -209.2734464725  -1.0901179E-05   6.7002739E-04
      3     -209.2734091132   3.7359378E-05   3.1523067E-04
      4     -209.2734509065  -4.1793300E-05   6.2360683E-05
      5     -209.2734526266  -1.7201218E-06   1.9017137E-05
      6     -209.2734527220  -9.5383939E-08   9.6214981E-06
------------------------------------------------------------

 total:                                   3.660 sec
 * total energy  :  -209.2734527 Eh     change       -0.6795612E-03 Eh
   gradient norm :     0.0071458 Eh/α   predicted    -0.6222504E-03 (  -8.43%)
   displ. norm   :     0.6545733 α      lambda       -0.6732783E-03
   maximum displ.:     0.3334735 α      in ANC's #3, #2, #6, ...

........................................................................
.............................. CYCLE   17 ..............................
........................................................................
------------------------------------------------------------
  cycle        total energy    energy error   density error
------------------------------------------------------------
      1     -209.2740283270  -2.1241823E+02   9.7974498E-04
      2     -209.2740301666  -1.8396762E-06   5.8231767E-04
      3     -209.2740026355   2.7531108E-05   2.4029646E-04
      4     -209.2740327810  -3.0145489E-05   2.9358766E-05
      5     -209.2740330467  -2.6565394E-07   1.3492818E-05
------------------------------------------------------------

 total:                                   1.745 sec
 * total energy  :  -209.2740330 Eh     change       -0.5803247E-03 Eh
   gradient norm :     0.0050328 Eh/α   predicted    -0.4808798E-03 ( -17.14%)
   displ. norm   :     0.6172693 α      lambda       -0.5824214E-03
   maximum displ.:     0.3354904 α      in ANC's #3, #2, #6, ...

........................................................................
.............................. CYCLE   18 ..............................
........................................................................
------------------------------------------------------------
  cycle        total energy    energy error   density error
------------------------------------------------------------
      1     -209.2745400785  -2.1241912E+02   8.4496131E-04
      2     -209.2745415810  -1.5025609E-06   4.9922656E-04
      3     -209.2745319275   9.6535875E-06   1.6168322E-04
      4     -209.2745426006  -1.0673158E-05   2.3803493E-05
      5     -209.2745427747  -1.7411412E-07   1.2528497E-05
------------------------------------------------------------

 total:                                   3.128 sec
 * total energy  :  -209.2745428 Eh     change       -0.5097281E-03 Eh
   gradient norm :     0.0043091 Eh/α   predicted    -0.4021742E-03 ( -21.10%)
   displ. norm   :     0.6001984 α      lambda       -0.5441908E-03
   maximum displ.:     0.3444592 α      in ANC's #3, #2, #6, ...

........................................................................
.............................. CYCLE   19 ..............................
........................................................................
------------------------------------------------------------
  cycle        total energy    energy error   density error
------------------------------------------------------------
      1     -209.2750184067  -2.1242023E+02   7.4559754E-04
      2     -209.2750195959  -1.1892031E-06   4.4137881E-04
      3     -209.2750142026   5.3933749E-06   1.2963782E-04
      4     -209.2750202553  -6.0526940E-06   2.0384817E-05
      5     -209.2750203587  -1.0344840E-07   1.1699661E-05
------------------------------------------------------------

 total:                                   3.774 sec
 * total energy  :  -209.2750204 Eh     change       -0.4775840E-03 Eh
   gradient norm :     0.0044987 Eh/α   predicted    -0.3701207E-03 ( -22.50%)
   displ. norm   :     0.6015616 α      lambda       -0.5365009E-03
   maximum displ.:     0.3575743 α      in ANC's #3, #2, #1, ...

........................................................................
.............................. CYCLE   20 ..............................
........................................................................
------------------------------------------------------------
  cycle        total energy    energy error   density error
------------------------------------------------------------
      1     -209.2754939303  -2.1242045E+02   6.9782295E-04
      2     -209.2754948725  -9.4218669E-07   4.1538255E-04
      3     -209.2754858640   9.0085191E-06   1.4977204E-04
      4     -209.2754957753  -9.9112846E-06   2.2052492E-05
      5     -209.2754959268  -1.5154907E-07   1.0291190E-05
------------------------------------------------------------

 total:                                   2.839 sec
 * total energy  :  -209.2754959 Eh     change       -0.4755681E-03 Eh
   gradient norm :     0.0052079 Eh/α   predicted    -0.3653251E-03 ( -23.18%)
   displ. norm   :     0.6177372 α      lambda       -0.5530601E-03
   maximum displ.:     0.3750423 α      in ANC's #3, #2, #1, ...
 * RMSD in coord.:     0.8337450 α      energy gain  -0.1435128E+00 Eh

generating ANC from exact Hessian ...
Using Lindh-Hessian (1995)
 Shifting diagonal of input Hessian by    9.9660007309930743E-003
 Lowest  eigenvalues of input Hessian
    0.000000    0.000000    0.000000    0.000000    0.000000    0.000000
    0.010000    0.010028    0.010030    0.010111    0.010155    0.010386
    0.010410    0.010465    0.010606    0.010714    0.010807    0.010840
 Highest eigenvalues
    2.082479    2.083381    2.228401    2.228570    2.248387    2.248793


........................................................................
.............................. CYCLE   21 ..............................
........................................................................
------------------------------------------------------------
  cycle        total energy    energy error   density error
------------------------------------------------------------
      1     -209.2759980984  -2.1242046E+02   7.1698481E-04
      2     -209.2759989375  -8.3908921E-07   4.2494188E-04
      3     -209.2759921817   6.7558228E-06   1.3145630E-04
      4     -209.2759995999  -7.4182504E-06   1.9795183E-05
      5     -209.2759997279  -1.2800831E-07   9.5532314E-06
------------------------------------------------------------

 total:                                   4.415 sec
 * total energy  :  -209.2759997 Eh     change       -0.5038011E-03 Eh
   gradient norm :     0.0056171 Eh/α   predicted     0.0000000E+00 (-100.00%)
   displ. norm   :     0.1056136 α      lambda       -0.1629496E-03
   maximum displ.:     0.0818138 α      in ANC's #2, #24, #3, ...

........................................................................
.............................. CYCLE   22 ..............................
........................................................................
------------------------------------------------------------
  cycle        total energy    energy error   density error
------------------------------------------------------------
      1     -209.2761543015  -2.1242055E+02   2.6680167E-04
      2     -209.2761544515  -1.4999682E-07   1.5775909E-04
      3     -209.2761509183   3.5331911E-06   8.9069084E-05
      4     -209.2761548974  -3.9790979E-06   9.4655250E-06
      5     -209.2761549236  -2.6178725E-08   4.2279527E-06
------------------------------------------------------------

 total:                                   6.358 sec
 * total energy  :  -209.2761549 Eh     change       -0.1551957E-03 Eh
   gradient norm :     0.0037704 Eh/α   predicted    -0.8509468E-04 ( -45.17%)
   displ. norm   :     0.3035393 α      lambda       -0.4024670E-03
   maximum displ.:     0.2125895 α      in ANC's #2, #3, #24, ...

........................................................................
.............................. CYCLE   23 ..............................
........................................................................
------------------------------------------------------------
  cycle        total energy    energy error   density error
------------------------------------------------------------
      1     -209.2764845488  -2.1242066E+02   7.5247644E-04
      2     -209.2764855526  -1.0038217E-06   4.4239389E-04
      3     -209.2764795883   5.9643236E-06   1.2139720E-04
      4     -209.2764861383  -6.5500098E-06   2.3280250E-05
      5     -209.2764863207  -1.8244222E-07   1.1646757E-05
------------------------------------------------------------

 total:                                   6.290 sec
 * total energy  :  -209.2764863 Eh     change       -0.3313971E-03 Eh
   gradient norm :     0.0028650 Eh/α   predicted    -0.2197814E-03 ( -33.68%)
   displ. norm   :     0.3867046 α      lambda       -0.3607039E-03
   maximum displ.:     0.2722167 α      in ANC's #2, #3, #13, ...

........................................................................
.............................. CYCLE   24 ..............................
........................................................................
------------------------------------------------------------
  cycle        total energy    energy error   density error
------------------------------------------------------------
      1     -209.2767814987  -2.1242030E+02   8.8354996E-04
      2     -209.2767828603  -1.3616647E-06   5.1857394E-04
      3     -209.2767781730   4.6873193E-06   1.2710184E-04
      4     -209.2767835912  -5.4182078E-06   2.0688139E-05
      5     -209.2767836745  -8.3314603E-08   1.3304084E-05
------------------------------------------------------------

 total:                                   6.077 sec
 * total energy  :  -209.2767837 Eh     change       -0.2973538E-03 Eh
   gradient norm :     0.0052985 Eh/α   predicted    -0.2073577E-03 ( -30.27%)
   displ. norm   :     0.3533548 α      lambda       -0.2771291E-03
   maximum displ.:     0.2504060 α      in ANC's #2, #3, #13, ...

........................................................................
.............................. CYCLE   25 ..............................
........................................................................
------------------------------------------------------------
  cycle        total energy    energy error   density error
------------------------------------------------------------
      1     -209.2770321762  -2.1242016E+02   7.3459696E-04
      2     -209.2770331306  -9.5445091E-07   4.2987437E-04
      3     -209.2770308707   2.2599195E-06   1.0086839E-04
      4     -209.2770336123  -2.7416239E-06   1.3949980E-05
      5     -209.2770336244  -1.2123621E-08   9.3048885E-06
------------------------------------------------------------

 total:                                   6.416 sec
 * total energy  :  -209.2770336 Eh     change       -0.2499499E-03 Eh
   gradient norm :     0.0060438 Eh/α   predicted    -0.1558751E-03 ( -37.64%)
   displ. norm   :     0.3491197 α      lambda       -0.2939018E-03
   maximum displ.:     0.2459088 α      in ANC's #2, #3, #13, ...

........................................................................
.............................. CYCLE   26 ..............................
........................................................................
------------------------------------------------------------
  cycle        total energy    energy error   density error
------------------------------------------------------------
      1     -209.2773054651  -2.1242046E+02   6.6317112E-04
      2     -209.2773063357  -8.7057288E-07   3.8859470E-04
      3     -209.2773004692   5.8664994E-06   1.2485258E-04
      4     -209.2773069426  -6.4734327E-06   2.0732307E-05
      5     -209.2773070961  -1.5350599E-07   9.5374396E-06
------------------------------------------------------------

 total:                                   6.470 sec
 * total energy  :  -209.2773071 Eh     change       -0.2734716E-03 Eh
   gradient norm :     0.0052661 Eh/α   predicted    -0.1648623E-03 ( -39.72%)
   displ. norm   :     0.4082860 α      lambda       -0.3570598E-03
   maximum displ.:     0.2870768 α      in ANC's #2, #3, #13, ...

........................................................................
.............................. CYCLE   27 ..............................
........................................................................
------------------------------------------------------------
  cycle        total energy    energy error   density error
------------------------------------------------------------
      1     -209.2776319823  -2.1242080E+02   7.1748742E-04
      2     -209.2776333800  -1.3976545E-06   4.1912734E-04
      3     -209.2776277250   5.6550423E-06   1.4030982E-04
      4     -209.2776341875  -6.4625710E-06   1.8850246E-05
      5     -209.2776342834  -9.5885781E-08   1.0796171E-05
------------------------------------------------------------

 total:                                   5.734 sec
 * total energy  :  -209.2776343 Eh     change       -0.3271873E-03 Eh
   gradient norm :     0.0040583 Eh/α   predicted    -0.2082913E-03 ( -36.34%)
   displ. norm   :     0.4618895 α      lambda       -0.3764301E-03
   maximum displ.:     0.3265091 α      in ANC's #2, #3, #13, ...

........................................................................
.............................. CYCLE   28 ..............................
........................................................................
------------------------------------------------------------
  cycle        total energy    energy error   density error
------------------------------------------------------------
      1     -209.2779744368  -2.1242095E+02   7.5255142E-04
      2     -209.2779759776  -1.5408556E-06   4.4281966E-04
      3     -209.2779665583   9.4192870E-06   1.5568137E-04
      4     -209.2779769539  -1.0395565E-05   2.5639451E-05
      5     -209.2779771833  -2.2939707E-07   1.1976384E-05
------------------------------------------------------------

 total:                                   5.467 sec
 * total energy  :  -209.2779772 Eh     change       -0.3428999E-03 Eh
   gradient norm :     0.0038550 Eh/α   predicted    -0.2283777E-03 ( -33.40%)
   displ. norm   :     0.4683177 α      lambda       -0.3507353E-03
   maximum displ.:     0.3330297 α      in ANC's #2, #3, #13, ...

........................................................................
.............................. CYCLE   29 ..............................
........................................................................
------------------------------------------------------------
  cycle        total energy    energy error   density error
------------------------------------------------------------
      1     -209.2783000427  -2.1242111E+02   7.1159787E-04
      2     -209.2783014990  -1.4563544E-06   4.1723050E-04
      3     -209.2782953638   6.1352485E-06   1.3372138E-04
      4     -209.2783022653  -6.9014734E-06   2.0267816E-05
      5     -209.2783023754  -1.1017690E-07   1.1839586E-05
------------------------------------------------------------

 total:                                   4.972 sec
 * total energy  :  -209.2783024 Eh     change       -0.3251921E-03 Eh
   gradient norm :     0.0042326 Eh/α   predicted    -0.2138444E-03 ( -34.24%)
   displ. norm   :     0.4570720 α      lambda       -0.3338628E-03
   maximum displ.:     0.3258607 α      in ANC's #2, #3, #1, ...

........................................................................
.............................. CYCLE   30 ..............................
........................................................................
------------------------------------------------------------
  cycle        total energy    energy error   density error
------------------------------------------------------------
      1     -209.2786158255  -2.1242143E+02   6.4942933E-04
      2     -209.2786168380  -1.0124850E-06   3.8409926E-04
      3     -209.2786011885   1.5649476E-05   1.8487088E-04
      4     -209.2786185364  -1.7347874E-05   2.0699591E-05
      5     -209.2786186561  -1.1968839E-07   1.0432749E-05
------------------------------------------------------------

 total:                                   3.192 sec
 * total energy  :  -209.2786187 Eh     change       -0.3162806E-03 Eh
   gradient norm :     0.0042259 Eh/α   predicted    -0.2018061E-03 ( -36.19%)
   displ. norm   :     0.4671555 α      lambda       -0.3469366E-03
   maximum displ.:     0.3327141 α      in ANC's #2, #3, #1, ...

........................................................................
.............................. CYCLE   31 ..............................
........................................................................
------------------------------------------------------------
  cycle        total energy    energy error   density error
------------------------------------------------------------
      1     -209.2789479520  -2.1242179E+02   6.2495127E-04
      2     -209.2789491227  -1.1706671E-06   3.6795165E-04
      3     -209.2789431694   5.9532262E-06   1.2383435E-04
      4     -209.2789499088  -6.7394168E-06   1.5961219E-05
      5     -209.2789499653  -5.6446709E-08   9.4169897E-06
------------------------------------------------------------

 total:                                   2.588 sec
 * total energy  :  -209.2789500 Eh     change       -0.3313092E-03 Eh
   gradient norm :     0.0037254 Eh/α   predicted    -0.2113253E-03 ( -36.22%)
   displ. norm   :     0.5029066 α      lambda       -0.3780276E-03
   maximum displ.:     0.3573498 α      in ANC's #2, #3, #1, ...

........................................................................
.............................. CYCLE   32 ..............................
........................................................................
------------------------------------------------------------
  cycle        total energy    energy error   density error
------------------------------------------------------------
      1     -209.2793098898  -2.1242202E+02   6.3489785E-04
      2     -209.2793109012  -1.0113203E-06   3.7331880E-04
      3     -209.2793073056   3.5955759E-06   9.7285303E-05
      4     -209.2793112968  -3.9912495E-06   1.9072696E-05
      5     -209.2793114152  -1.1832950E-07   9.9284364E-06
------------------------------------------------------------

 total:                                   1.930 sec
 * total energy  :  -209.2793114 Eh     change       -0.3614499E-03 Eh
   gradient norm :     0.0031661 Eh/α   predicted    -0.2368188E-03 ( -34.48%)
   displ. norm   :     0.5447204 α      lambda       -0.4058103E-03
   maximum displ.:     0.3862248 α      in ANC's #2, #3, #1, ...

........................................................................
.............................. CYCLE   33 ..............................
........................................................................
------------------------------------------------------------
  cycle        total energy    energy error   density error
------------------------------------------------------------
      1     -209.2796983793  -2.1242204E+02   6.4746410E-04
      2     -209.2796992986  -9.1927166E-07   3.8146660E-04
      3     -209.2796955169   3.7816523E-06   1.0219134E-04
      4     -209.2796997780  -4.2610979E-06   1.6190139E-05
      5     -209.2796998490  -7.0957867E-08   8.9642486E-06
------------------------------------------------------------

 total:                                   1.708 sec
 * total energy  :  -209.2796998 Eh     change       -0.3884338E-03 Eh
   gradient norm :     0.0030865 Eh/α   predicted    -0.2631137E-03 ( -32.26%)
   displ. norm   :     0.5780843 α      lambda       -0.4227921E-03
   maximum displ.:     0.4089498 α      in ANC's #2, #3, #1, ...

........................................................................
.............................. CYCLE   34 ..............................
........................................................................
------------------------------------------------------------
  cycle        total energy    energy error   density error
------------------------------------------------------------
      1     -209.2801042346  -2.1242194E+02   6.4859670E-04
      2     -209.2801049470  -7.1233106E-07   3.8162508E-04
      3     -209.2801001301   4.8168748E-06   1.0609326E-04
      4     -209.2801053989  -5.2687801E-06   1.9502009E-05
      5     -209.2801055318  -1.3292382E-07   8.6998217E-06
------------------------------------------------------------

 total:                                   1.382 sec
 * total energy  :  -209.2801055 Eh     change       -0.4056828E-03 Eh
   gradient norm :     0.0034197 Eh/α   predicted    -0.2820411E-03 ( -30.48%)
   displ. norm   :     0.6038716 α      lambda       -0.4348976E-03
   maximum displ.:     0.4261906 α      in ANC's #2, #3, #1, ...

........................................................................
.............................. CYCLE   35 ..............................
........................................................................
------------------------------------------------------------
  cycle        total energy    energy error   density error
------------------------------------------------------------
      1     -209.2805229057  -2.1242183E+02   6.4403888E-04
      2     -209.2805235267  -6.2093002E-07   3.7999210E-04
      3     -209.2805201851   3.3415499E-06   9.3177589E-05
      4     -209.2805239145  -3.7294230E-06   1.5738455E-05
      5     -209.2805239815  -6.6929061E-08   8.3188363E-06
------------------------------------------------------------

 total:                                   2.619 sec
 * total energy  :  -209.2805240 Eh     change       -0.4184496E-03 Eh
   gradient norm :     0.0036417 Eh/α   predicted    -0.2967444E-03 ( -29.08%)
   displ. norm   :     0.6301711 α      lambda       -0.4492000E-03
   maximum displ.:     0.4438402 α      in ANC's #2, #3, #1, ...

........................................................................
.............................. CYCLE   36 ..............................
........................................................................
------------------------------------------------------------
  cycle        total energy    energy error   density error
------------------------------------------------------------
      1     -209.2809556526  -2.1242181E+02   6.4750202E-04
      2     -209.2809562039  -5.5126688E-07   3.8127055E-04
      3     -209.2809540927   2.1111900E-06   7.2547145E-05
      4     -209.2809564569  -2.3642153E-06   1.6117732E-05
      5     -209.2809565262  -6.9327371E-08   8.3819706E-06
------------------------------------------------------------

 total:                                   1.827 sec
 * total energy  :  -209.2809565 Eh     change       -0.4325448E-03 Eh
   gradient norm :     0.0034745 Eh/α   predicted    -0.3137931E-03 ( -27.45%)
   displ. norm   :     0.6596643 α      lambda       -0.4645674E-03
   maximum displ.:     0.4640909 α      in ANC's #2, #3, #1, ...

........................................................................
.............................. CYCLE   37 ..............................
........................................................................
------------------------------------------------------------
  cycle        total energy    energy error   density error
------------------------------------------------------------
      1     -209.2814033150  -2.1242192E+02   6.6031054E-04
      2     -209.2814038431  -5.2817518E-07   3.8975163E-04
      3     -209.2813975984   6.2447117E-06   1.1946568E-04
      4     -209.2814044135  -6.8150947E-06   1.7381918E-05
      5     -209.2814045019  -8.8368438E-08   8.8098202E-06
------------------------------------------------------------

 total:                                   1.970 sec
 * total energy  :  -209.2814045 Eh     change       -0.4479756E-03 Eh
   gradient norm :     0.0029460 Eh/α   predicted    -0.3333688E-03 ( -25.58%)
   displ. norm   :     0.6888892 α      lambda       -0.4752784E-03
   maximum displ.:     0.4847928 α      in ANC's #2, #3, #1, ...

........................................................................
.............................. CYCLE   38 ..............................
........................................................................
------------------------------------------------------------
  cycle        total energy    energy error   density error
------------------------------------------------------------
      1     -209.2818610118  -2.1242224E+02   6.7484265E-04
      2     -209.2818616776  -6.6584136E-07   3.9794893E-04
      3     -209.2818595871   2.0905478E-06   7.6022842E-05
      4     -209.2818620055  -2.4183694E-06   1.4384923E-05
      5     -209.2818620362  -3.0759452E-08   8.2047767E-06
------------------------------------------------------------

 total:                                   2.184 sec
 * total energy  :  -209.2818620 Eh     change       -0.4575343E-03 Eh
   gradient norm :     0.0022661 Eh/α   predicted    -0.3504175E-03 ( -23.41%)
   displ. norm   :     0.7108430 α      lambda       -0.4752026E-03
   maximum displ.:     0.5010398 α      in ANC's #2, #3, #1, ...

........................................................................
.............................. CYCLE   39 ..............................
........................................................................
------------------------------------------------------------
  cycle        total energy    energy error   density error
------------------------------------------------------------
      1     -209.2823192724  -2.1242275E+02   6.8471234E-04
      2     -209.2823199073  -6.3490131E-07   4.0348249E-04
      3     -209.2823173306   2.5767557E-06   8.3940836E-05
      4     -209.2823201862  -2.8556521E-06   1.7189293E-05
      5     -209.2823202689  -8.2739291E-08   9.4261781E-06
------------------------------------------------------------

 total:                                   1.890 sec
 * total energy  :  -209.2823203 Eh     change       -0.4582327E-03 Eh
   gradient norm :     0.0018809 Eh/α   predicted    -0.3576617E-03 ( -21.95%)
   displ. norm   :     1.0846158 α      lambda       -0.4647808E-03
   maximum displ.:     0.7663948 α      in ANC's #2, #3, #1, ...

........................................................................
.............................. CYCLE   40 ..............................
........................................................................
------------------------------------------------------------
  cycle        total energy    energy error   density error
------------------------------------------------------------
      1     -209.2829732030  -2.1242332E+02   1.0280095E-03
      2     -209.2829747370  -1.5339695E-06   6.0678724E-04
      3     -209.2829689190   5.8180133E-06   1.2166838E-04
      4     -209.2829755469  -6.6279623E-06   2.2195673E-05
      5     -209.2829756334  -8.6482345E-08   1.2162953E-05
------------------------------------------------------------

 total:                                   1.743 sec
 * total energy  :  -209.2829756 Eh     change       -0.6553645E-03 Eh
   gradient norm :     0.0023909 Eh/α   predicted    -0.3538946E-03 ( -46.00%)
   displ. norm   :     0.7036737 α      lambda       -0.4213917E-03
   maximum displ.:     0.4992945 α      in ANC's #2, #3, #1, ...

........................................................................
.............................. CYCLE   41 ..............................
........................................................................
------------------------------------------------------------
  cycle        total energy    energy error   density error
------------------------------------------------------------
      1     -209.2833815820  -2.1242417E+02   6.5851530E-04
      2     -209.2833822846  -7.0262800E-07   3.8868836E-04
      3     -209.2833790946   3.1899813E-06   9.1845331E-05
      4     -209.2833826339  -3.5392854E-06   1.6880539E-05
      5     -209.2833827222  -8.8278057E-08   8.6948320E-06
------------------------------------------------------------

 total:                                   2.229 sec
 * total energy  :  -209.2833827 Eh     change       -0.4070888E-03 Eh
   gradient norm :     0.0026295 Eh/α   predicted    -0.3150255E-03 ( -22.62%)
   displ. norm   :     0.7238275 α      lambda       -0.4252077E-03
   maximum displ.:     0.5152317 α      in ANC's #2, #3, #1, ...

........................................................................
.............................. CYCLE   42 ..............................
........................................................................
------------------------------------------------------------
  cycle        total energy    energy error   density error
------------------------------------------------------------
      1     -209.2837922758  -2.1242514E+02   6.7989865E-04
      2     -209.2837930290  -7.5323572E-07   4.0178548E-04
      3     -209.2837870343   5.9947292E-06   1.1402948E-04
      4     -209.2837936405  -6.6061890E-06   1.7729718E-05
      5     -209.2837937293  -8.8836856E-08   8.7584127E-06
------------------------------------------------------------

 total:                                   2.215 sec
 * total energy  :  -209.2837937 Eh     change       -0.4110071E-03 Eh
   gradient norm :     0.0026707 Eh/α   predicted    -0.3239949E-03 ( -21.17%)
   displ. norm   :     0.7407809 α      lambda       -0.4286059E-03
   maximum displ.:     0.5294590 α      in ANC's #2, #3, #1, ...
 * RMSD in coord.:     0.9519175 α      energy gain  -0.8297803E-02 Eh

generating ANC from exact Hessian ...
Using Lindh-Hessian (1995)
 Shifting diagonal of input Hessian by    9.9644772888801188E-003
 Lowest  eigenvalues of input Hessian
    0.000000    0.000000    0.000000    0.000000    0.000000    0.000000
    0.010000    0.010028    0.010030    0.010125    0.010165    0.010398
    0.010409    0.010473    0.010578    0.010723    0.010766    0.010806
 Highest eigenvalues
    2.079771    2.080451    2.224671    2.226600    2.243309    2.246468


........................................................................
.............................. CYCLE   43 ..............................
........................................................................
------------------------------------------------------------
  cycle        total energy    energy error   density error
------------------------------------------------------------
      1     -209.2842080729  -2.1242600E+02   7.0571597E-04
      2     -209.2842089912  -9.1830063E-07   4.1701856E-04
      3     -209.2842039100   5.0812095E-06   1.1078805E-04
      4     -209.2842096008  -5.6908574E-06   1.6379432E-05
      5     -209.2842096626  -6.1828644E-08   8.8059992E-06
------------------------------------------------------------

 total:                                   1.715 sec
 * total energy  :  -209.2842097 Eh     change       -0.4159333E-03 Eh
   gradient norm :     0.0024244 Eh/α   predicted     0.0000000E+00 (-100.00%)
   displ. norm   :     0.0681312 α      lambda       -0.5693896E-04
   maximum displ.:     0.0550818 α      in ANC's #3, #1, #8, ...

........................................................................
.............................. CYCLE   44 ..............................
........................................................................
------------------------------------------------------------
  cycle        total energy    energy error   density error
------------------------------------------------------------
      1     -209.2842645074  -2.1242725E+02   1.2785778E-04
      2     -209.2842645846  -7.7190265E-08   7.7311925E-05
      3     -209.2842635548   1.0297422E-06   5.5469596E-05
      4     -209.2842648725  -1.3176709E-06   6.6631892E-06
      5     -209.2842648882  -1.5677841E-08   2.4310319E-06
------------------------------------------------------------

 total:                                   1.194 sec
 * total energy  :  -209.2842649 Eh     change       -0.5522556E-04 Eh
   gradient norm :     0.0016557 Eh/α   predicted    -0.2912528E-04 ( -47.26%)
   displ. norm   :     0.2834851 α      lambda       -0.1452962E-03
   maximum displ.:     0.1981357 α      in ANC's #3, #1, #8, ...

........................................................................
.............................. CYCLE   45 ..............................
........................................................................
------------------------------------------------------------
  cycle        total energy    energy error   density error
------------------------------------------------------------
      1     -209.2844511486  -2.1242940E+02   5.2480738E-04
      2     -209.2844520044  -8.5584679E-07   3.0916683E-04
      3     -209.2844480776   3.9268437E-06   9.5666193E-05
      4     -209.2844523160  -4.2383726E-06   1.9420141E-05
      5     -209.2844524612  -1.4523457E-07   8.7332253E-06
------------------------------------------------------------

 total:                                   1.329 sec
 * total energy  :  -209.2844525 Eh     change       -0.1875730E-03 Eh
   gradient norm :     0.0020413 Eh/α   predicted    -0.7524477E-04 ( -59.89%)
   displ. norm   :     0.2850760 α      lambda       -0.1728726E-03
   maximum displ.:     0.1967897 α      in ANC's #3, #1, #8, ...

........................................................................
.............................. CYCLE   46 ..............................
........................................................................
------------------------------------------------------------
  cycle        total energy    energy error   density error
------------------------------------------------------------
      1     -209.2846072105  -2.1242902E+02   4.7461457E-04
      2     -209.2846079139  -7.0340826E-07   2.7999921E-04
      3     -209.2846068381   1.0757728E-06   5.8930982E-05
      4     -209.2846080556  -1.2174085E-06   1.3867636E-05
      5     -209.2846081098  -5.4220777E-08   7.0182921E-06
------------------------------------------------------------

 total:                                   1.474 sec
 * total energy  :  -209.2846081 Eh     change       -0.1556486E-03 Eh
   gradient norm :     0.0027339 Eh/α   predicted    -0.9346206E-04 ( -39.95%)
   displ. norm   :     0.3530714 α      lambda       -0.1860995E-03
   maximum displ.:     0.2428940 α      in ANC's #3, #1, #8, ...

........................................................................
.............................. CYCLE   47 ..............................
........................................................................
------------------------------------------------------------
  cycle        total energy    energy error   density error
------------------------------------------------------------
      1     -209.2847728388  -2.1242789E+02   5.4652688E-04
      2     -209.2847736287  -7.8990175E-07   3.2307333E-04
      3     -209.2847693114   4.3172697E-06   9.5954021E-05
      4     -209.2847739609  -4.6494156E-06   1.9202997E-05
      5     -209.2847741012  -1.4033193E-07   8.2847451E-06
------------------------------------------------------------

 total:                                   1.314 sec
 * total energy  :  -209.2847741 Eh     change       -0.1659914E-03 Eh
   gradient norm :     0.0032604 Eh/α   predicted    -0.1046500E-03 ( -36.95%)
   displ. norm   :     0.3456674 α      lambda       -0.1657849E-03
   maximum displ.:     0.2398970 α      in ANC's #3, #1, #8, ...

........................................................................
.............................. CYCLE   48 ..............................
........................................................................
------------------------------------------------------------
  cycle        total energy    energy error   density error
------------------------------------------------------------
      1     -209.2849250520  -2.1242692E+02   4.9533274E-04
      2     -209.2849258035  -7.5146025E-07   2.9252789E-04
      3     -209.2849227433   3.0601862E-06   9.2838958E-05
      4     -209.2849261461  -3.4027929E-06   1.6102453E-05
      5     -209.2849262250  -7.8921403E-08   8.0444973E-06
------------------------------------------------------------

 total:                                   1.648 sec
 * total energy  :  -209.2849262 Eh     change       -0.1521238E-03 Eh
   gradient norm :     0.0033361 Eh/α   predicted    -0.9280563E-04 ( -38.99%)
   displ. norm   :     0.3273648 α      lambda       -0.1584324E-03
   maximum displ.:     0.2287417 α      in ANC's #3, #1, #8, ...

........................................................................
.............................. CYCLE   49 ..............................
........................................................................
------------------------------------------------------------
  cycle        total energy    energy error   density error
------------------------------------------------------------
      1     -209.2850751358  -2.1242651E+02   4.3928380E-04
      2     -209.2850756903  -5.5455030E-07   2.5870414E-04
      3     -209.2850721346   3.5557332E-06   9.8313760E-05
      4     -209.2850760733  -3.9387479E-06   1.5702471E-05
      5     -209.2850761669  -9.3536443E-08   6.9067739E-06
------------------------------------------------------------

 total:                                   1.698 sec
 * total energy  :  -209.2850762 Eh     change       -0.1499418E-03 Eh
   gradient norm :     0.0029686 Eh/α   predicted    -0.8770873E-04 ( -41.50%)
   displ. norm   :     0.3499753 α      lambda       -0.1774852E-03
   maximum displ.:     0.2446102 α      in ANC's #3, #1, #8, ...

........................................................................
.............................. CYCLE   50 ..............................
........................................................................
------------------------------------------------------------
  cycle        total energy    energy error   density error
------------------------------------------------------------
      1     -209.2852432411  -2.1242638E+02   4.5191873E-04
      2     -209.2852437736  -5.3257321E-07   2.6602710E-04
      3     -209.2852384350   5.3386552E-06   1.2258267E-04
      4     -209.2852444176  -5.9826056E-06   1.6699956E-05
      5     -209.2852445220  -1.0446931E-07   6.8705555E-06
------------------------------------------------------------

 total:                                   1.927 sec
 * total energy  :  -209.2852445 Eh     change       -0.1683552E-03 Eh
   gradient norm :     0.0024059 Eh/α   predicted    -0.9961246E-04 ( -40.83%)
   displ. norm   :     0.4111437 α      lambda       -0.2121134E-03
   maximum displ.:     0.2863992 α      in ANC's #3, #1, #8, ...

........................................................................
.............................. CYCLE   51 ..............................
........................................................................
------------------------------------------------------------
  cycle        total energy    energy error   density error
------------------------------------------------------------
      1     -209.2854446478  -2.1242630E+02   5.1767104E-04
      2     -209.2854453079  -6.6003864E-07   3.0407693E-04
      3     -209.2854417452   3.5626882E-06   1.0690774E-04
      4     -209.2854457912  -4.0459783E-06   1.4184116E-05
      5     -209.2854458477  -5.6563096E-08   7.7316528E-06
------------------------------------------------------------

 total:                                   1.826 sec
 * total energy  :  -209.2854458 Eh     change       -0.2013257E-03 Eh
   gradient norm :     0.0019219 Eh/α   predicted    -0.1239861E-03 ( -38.42%)
   displ. norm   :     0.7153052 α      lambda       -0.2391719E-03
   maximum displ.:     0.4972419 α      in ANC's #3, #1, #8, ...

........................................................................
.............................. CYCLE   52 ..............................
........................................................................
------------------------------------------------------------
  cycle        total energy    energy error   density error
------------------------------------------------------------
      1     -209.2857681448  -2.1242592E+02   8.7894527E-04
      2     -209.2857697315  -1.5866450E-06   5.1672746E-04
      3     -209.2857623972   7.3342530E-06   1.5290848E-04
      4     -209.2857705989  -8.2016585E-06   2.4675402E-05
      5     -209.2857707706  -1.7174892E-07   1.3825503E-05
------------------------------------------------------------

 total:                                   1.513 sec
 * total energy  :  -209.2857708 Eh     change       -0.3249229E-03 Eh
   gradient norm :     0.0024943 Eh/α   predicted    -0.1467853E-03 ( -54.82%)
   displ. norm   :     0.4698659 α      lambda       -0.2132159E-03
   maximum displ.:     0.3277806 α      in ANC's #3, #1, #8, ...

........................................................................
.............................. CYCLE   53 ..............................
........................................................................
------------------------------------------------------------
  cycle        total energy    energy error   density error
------------------------------------------------------------
      1     -209.2859713784  -2.1242617E+02   5.5230755E-04
      2     -209.2859719509  -5.7248323E-07   3.2525181E-04
      3     -209.2859669340   5.0168221E-06   1.1280500E-04
      4     -209.2859724279  -5.4938200E-06   1.8110435E-05
      5     -209.2859725431  -1.1520987E-07   8.0910618E-06
------------------------------------------------------------

 total:                                   1.410 sec
 * total energy  :  -209.2859725 Eh     change       -0.2017724E-03 Eh
   gradient norm :     0.0030718 Eh/α   predicted    -0.1301492E-03 ( -35.50%)
   displ. norm   :     0.4973244 α      lambda       -0.2259130E-03
   maximum displ.:     0.3467715 α      in ANC's #3, #1, #8, ...

........................................................................
.............................. CYCLE   54 ..............................
........................................................................
------------------------------------------------------------
  cycle        total energy    energy error   density error
------------------------------------------------------------
      1     -209.2861872089  -2.1242686E+02   5.7049532E-04
      2     -209.2861877449  -5.3597861E-07   3.3707146E-04
      3     -209.2861842369   3.5079852E-06   9.3408490E-05
      4     -209.2861880995  -3.8625647E-06   1.4959976E-05
      5     -209.2861881622  -6.2677287E-08   7.8024476E-06
------------------------------------------------------------

 total:                                   2.166 sec
 * total energy  :  -209.2861882 Eh     change       -0.2156191E-03 Eh
   gradient norm :     0.0034664 Eh/α   predicted    -0.1408975E-03 ( -34.65%)
   displ. norm   :     0.5407766 α      lambda       -0.2485970E-03
   maximum displ.:     0.3773230 α      in ANC's #3, #1, #8, ...

........................................................................
.............................. CYCLE   55 ..............................
........................................................................
------------------------------------------------------------
  cycle        total energy    energy error   density error
------------------------------------------------------------
      1     -209.2864250231  -2.1242765E+02   6.1072069E-04
      2     -209.2864255975  -5.7440189E-07   3.6072144E-04
      3     -209.2864217181   3.8793595E-06   9.2668640E-05
      4     -209.2864259745  -4.2564342E-06   1.5417760E-05
      5     -209.2864260424  -6.7867603E-08   7.6716917E-06
------------------------------------------------------------

 total:                                   1.754 sec
 * total energy  :  -209.2864260 Eh     change       -0.2378802E-03 Eh
   gradient norm :     0.0035567 Eh/α   predicted    -0.1606507E-03 ( -32.47%)
   displ. norm   :     0.5930348 α      lambda       -0.2768594E-03
   maximum displ.:     0.4148344 α      in ANC's #3, #1, #2, ...

........................................................................
.............................. CYCLE   56 ..............................
........................................................................
------------------------------------------------------------
  cycle        total energy    energy error   density error
------------------------------------------------------------
      1     -209.2866904275  -2.1242839E+02   6.6340571E-04
      2     -209.2866910893  -6.6181536E-07   3.9266592E-04
      3     -209.2866868139   4.2754054E-06   9.6381602E-05
      4     -209.2866915331  -4.7191736E-06   1.5603575E-05
      5     -209.2866915951  -6.2021144E-08   7.9297556E-06
------------------------------------------------------------

 total:                                   2.653 sec
 * total energy  :  -209.2866916 Eh     change       -0.2655527E-03 Eh
   gradient norm :     0.0033112 Eh/α   predicted    -0.1871166E-03 ( -29.54%)
   displ. norm   :     0.6429697 α      lambda       -0.3025847E-03
   maximum displ.:     0.4516752 α      in ANC's #3, #1, #2, ...

........................................................................
.............................. CYCLE   57 ..............................
........................................................................
------------------------------------------------------------
  cycle        total energy    energy error   density error
------------------------------------------------------------
      1     -209.2869789508  -2.1242898E+02   7.1314326E-04
      2     -209.2869797340  -7.8322853E-07   4.2156008E-04
      3     -209.2869748376   4.8964491E-06   1.0422265E-04
      4     -209.2869802402  -5.4026600E-06   1.7264312E-05
      5     -209.2869803188  -7.8614562E-08   8.7774511E-06
------------------------------------------------------------

 total:                                   2.420 sec
 * total energy  :  -209.2869803 Eh     change       -0.2887238E-03 Eh
   gradient norm :     0.0027101 Eh/α   predicted    -0.2138418E-03 ( -25.94%)
   displ. norm   :     0.6856945 α      lambda       -0.3182086E-03
   maximum displ.:     0.4842076 α      in ANC's #3, #1, #2, ...

........................................................................
.............................. CYCLE   58 ..............................
........................................................................
------------------------------------------------------------
  cycle        total energy    energy error   density error
------------------------------------------------------------
      1     -209.2872806723  -2.1242930E+02   7.5285414E-04
      2     -209.2872815761  -9.0376770E-07   4.4557610E-04
      3     -209.2872757306   5.8454704E-06   1.1450964E-04
      4     -209.2872821561  -6.4254151E-06   1.9251879E-05
      5     -209.2872822605  -1.0446968E-07   9.7417984E-06
------------------------------------------------------------

 total:                                   1.761 sec
 * total energy  :  -209.2872823 Eh     change       -0.3019417E-03 Eh
   gradient norm :     0.0019082 Eh/α   predicted    -0.2339116E-03 ( -22.53%)
   displ. norm   :     1.0634404 α      lambda       -0.3155934E-03
   maximum displ.:     0.7548784 α      in ANC's #3, #1, #2, ...

........................................................................
.............................. CYCLE   59 ..............................
........................................................................
------------------------------------------------------------
  cycle        total energy    energy error   density error
------------------------------------------------------------
      1     -209.2877096550  -2.1242889E+02   1.1515243E-03
      2     -209.2877118141  -2.1590807E-06   6.8042141E-04
      3     -209.2877030096   8.8044698E-06   1.4561139E-04
      4     -209.2877128222  -9.8126145E-06   2.7219360E-05
      5     -209.2877129996  -1.7738461E-07   1.4477612E-05
------------------------------------------------------------

 total:                                   1.432 sec
 * total energy  :  -209.2877130 Eh     change       -0.4307391E-03 Eh
   gradient norm :     0.0017083 Eh/α   predicted    -0.2371098E-03 ( -44.95%)
   displ. norm   :     1.0139813 α      lambda       -0.2688564E-03
   maximum displ.:     0.7235203 α      in ANC's #3, #1, #2, ...

........................................................................
.............................. CYCLE   60 ..............................
........................................................................
------------------------------------------------------------
  cycle        total energy    energy error   density error
------------------------------------------------------------
      1     -209.2880781852  -2.1242876E+02   1.0801311E-03
      2     -209.2880797854  -1.6002098E-06   6.3829690E-04
      3     -209.2880682321   1.1553371E-05   1.6191349E-04
      4     -209.2880807961  -1.2563992E-05   2.8446308E-05
      5     -209.2880810501  -2.5399990E-07   1.3696143E-05
------------------------------------------------------------

 total:                                   1.360 sec
 * total energy  :  -209.2880811 Eh     change       -0.3680504E-03 Eh
   gradient norm :     0.0024445 Eh/α   predicted    -0.1958628E-03 ( -46.78%)
   displ. norm   :     0.6586455 α      lambda       -0.2398470E-03
   maximum displ.:     0.4712835 α      in ANC's #3, #1, #2, ...

........................................................................
.............................. CYCLE   61 ..............................
........................................................................
------------------------------------------------------------
  cycle        total energy    energy error   density error
------------------------------------------------------------
      1     -209.2883070333  -2.1242876E+02   6.9834208E-04
      2     -209.2883077187  -6.8536528E-07   4.1247274E-04
      3     -209.2883030281   4.6906358E-06   1.0166343E-04
      4     -209.2883081770  -5.1489532E-06   1.7711450E-05
      5     -209.2883082708  -9.3759439E-08   8.6219971E-06
------------------------------------------------------------

 total:                                   2.266 sec
 * total energy  :  -209.2883083 Eh     change       -0.2272207E-03 Eh
   gradient norm :     0.0027952 Eh/α   predicted    -0.1719485E-03 ( -24.33%)
   displ. norm   :     0.7050704 α      lambda       -0.2592009E-03
   maximum displ.:     0.5060430 α      in ANC's #3, #1, #2, ...

........................................................................
.............................. CYCLE   62 ..............................
........................................................................
------------------------------------------------------------
  cycle        total energy    energy error   density error
------------------------------------------------------------
      1     -209.2885522112  -2.1242964E+02   7.6075711E-04
      2     -209.2885527809  -5.6973371E-07   4.4866512E-04
      3     -209.2885469187   5.8621888E-06   1.1501898E-04
      4     -209.2885533254  -6.4067094E-06   1.6933140E-05
      5     -209.2885534048  -7.9373535E-08   8.6912123E-06
------------------------------------------------------------

 total:                                   2.009 sec
 * total energy  :  -209.2885534 Eh     change       -0.2451340E-03 Eh
   gradient norm :     0.0027060 Eh/α   predicted    -0.1940293E-03 ( -20.85%)
   displ. norm   :     0.7681594 α      lambda       -0.2752434E-03
   maximum displ.:     0.5506833 α      in ANC's #3, #1, #2, ...

[...]
   J. Stückrath, T. Rose, and J. Unsleber
   
 * started run on 2025/03/17 at 18:43:07.775     
   ID    Z sym.   atoms
    1    6 C      1-21, 25-44, 47, 52-75, 142-162, 166-185, 188, 193-216
    2    8 O      22, 23, 45, 46, 48-51, 163, 164, 186, 187, 189-192
    3    5 B      24, 165
    4    1 H      76-141, 217-282

           -------------------------------------------------
          |                Calculation Setup                |
           -------------------------------------------------

          program call               : xtb opt_dimer.mol --dipro 0.3 --chrg -2 --uhf 4
          coordinate file            : opt_dimer.mol
          omp threads                :                     8


molecular fragmentation (1/2 indicates fragments):
111111111111111111111111111111111111111111111111111111111111111111111111
111111111111111111111111111111111111111111111111111111111111111111111222
222222222222222222222222222222222222222222222222222222222222222222222222
222222222222222222222222222222222222222222222222222222222222222222
# atoms in fragment 1/2:   141   141
 fragment masses (1/2) :      998.04      998.04
CMA distance (Bohr)    :  15.479
constraining FC (au)   :  0.0500
########################################################################
[WARNING] Please study the warnings concerning your input carefully
-1- prog_main: Charge in sdf/mol input was overwritten
########################################################################

           -------------------------------------------------
          |                 G F N 2 - x T B                 |
           -------------------------------------------------

        Reference                      10.1021/acs.jctc.8b01176
      * Hamiltonian:
        H0-scaling (s, p, d)           1.850000    2.230000    2.230000
        zeta-weighting                 0.500000
      * Dispersion:
        s8                             2.700000
        a1                             0.520000
        a2                             5.000000
        s9                             5.000000
      * Repulsion:
        kExp                           1.500000    1.000000
        rExp                           1.000000
      * Coulomb:
        alpha                          2.000000
        third order                    shell-resolved
        anisotropic                    true
        a3                             3.000000
        a5                             4.000000
        cn-shift                       1.200000
        cn-exp                         4.000000
        max-rad                        5.000000

q/qsh data taken from xtbrestart
CAMM data taken from xtbrestart
           -------------------------------------------------
          |                    D I P R O                    |
           -------------------------------------------------
Calculation for dimer 
--------------------- 
  
charge of dimer :  -2.
unpaired e- of dimer :  4
repulsion energy          6.2698402425228E+00 Eh
dispersion energy         3.4432648449346E-02 Eh
number of electrons       7.6400000000000E+02 e
integral cutoff           1.9311100799991E+01 bohr

------------------------------------------------------------
  cycle        total energy    energy error   density error
------------------------------------------------------------
      1     -416.8166347255  -4.2312091E+02   1.4991882E-01
      2     -418.3360804352  -1.5194457E+00   7.2267843E-02
      3     -418.2837994221   5.2281013E-02   3.9523685E-02
      4     -418.4383635657  -1.5456414E-01   1.9835243E-02
      5     -418.5683958882  -1.3003232E-01   7.0075480E-03
      6     -418.5795168077  -1.1120920E-02   3.0038152E-03
      7     -418.5807523081  -1.2355004E-03   1.3478504E-03
      8     -418.5810271251  -2.7481692E-04   5.4639751E-04
      9     -418.5810775793  -5.0454232E-05   3.1521980E-04
     10     -418.5811113195  -3.3740188E-05   1.2478956E-04
     11     -418.5811130745  -1.7550315E-06   4.9470396E-05
     12     -418.5811133571  -2.8262326E-07   2.5804909E-05
     13     -418.5811134788  -1.2167834E-07   1.1813103E-05
------------------------------------------------------------

electronic energy        -4.2488538636979E+02 Eh
total energy             -4.1858111347881E+02 Eh

 total:                                   3.222 sec
 - repulsion                              0.000 sec (  0%)
 - dispersion                             0.026 sec (  0%)
 - coulomb                                0.007 sec (  0%)
 - hamiltonian                            0.019 sec (  0%)
 - scc                                    3.168 sec ( 98%)

Found 2 fragments!
Fragment 1:  1-141
Fragment 2:  142-282

[Info] Fragment spin read from .UHFfrag
[Info] Fragment charge read from .CHRGfrag
Calculation for fragment 1
 ------------------------------
   
charge of fragment :  -1.
unpaired e- of fragment :  2
------------------------------------------------------------
  cycle        total energy    energy error   density error
------------------------------------------------------------
      1     -208.4061420878  -2.1154608E+02   1.4973016E-01
      2     -209.1718626994  -7.6572061E-01   7.2063799E-02
      3     -209.1496447464   2.2217953E-02   3.9053292E-02
      4     -209.2227070739  -7.3062328E-02   1.9613501E-02
      5     -209.2852754114  -6.2568338E-02   6.8375328E-03
      6     -209.2902965595  -5.0211481E-03   2.9283537E-03
      7     -209.2908700594  -5.7349986E-04   1.2546845E-03
      8     -209.2909779959  -1.0793649E-04   4.7274182E-04
      9     -209.2909877049  -9.7090757E-06   2.6190834E-04
     10     -209.2909967941  -9.0891592E-06   1.1997805E-04
     11     -209.2909978967  -1.1025707E-06   4.2047243E-05
     12     -209.2909979464  -4.9759137E-08   2.2092012E-05
     13     -209.2909979717  -2.5266729E-08   1.0647790E-05
------------------------------------------------------------

 total:                                   0.777 sec
Calculation for fragment 2
 ------------------------------
   
charge of fragment :  -1.
unpaired e- of fragment :  2
------------------------------------------------------------
  cycle        total energy    energy error   density error
------------------------------------------------------------
      1     -208.4061836168  -2.1154590E+02   1.5029497E-01
      2     -209.1714642419  -7.6528063E-01   7.2089572E-02
      3     -209.1477993117   2.3664930E-02   3.9191207E-02
      4     -209.2207352386  -7.2935927E-02   1.9883910E-02
      5     -209.2859728502  -6.5237612E-02   6.9146516E-03
      6     -209.2911683710  -5.1955208E-03   2.9678737E-03
      7     -209.2917877038  -6.1933282E-04   1.2678137E-03
      8     -209.2919042645  -1.1656068E-04   4.9577971E-04
      9     -209.2919177060  -1.3441537E-05   2.6812852E-04
     10     -209.2919272507  -9.5446359E-06   1.2015934E-04
     11     -209.2919281675  -9.1681932E-07   4.2679867E-05
     12     -209.2919282186  -5.1127444E-08   2.1913493E-05
     13     -209.2919282430  -2.4339954E-08   1.0585292E-05
------------------------------------------------------------

 total:                                   0.875 sec
   
   ::::::::::::::::::::::::::::::::::::::::::::::
   ::     D I P R O      C O U P L I N G S     ::
   ::::::::::::::::::::::::::::::::::::::::::::::
   
energy threshhold for near-degenerate orbitals near HOMO and LUMO considered for DIPRO:  0.300 eV
no. of orbitals within energy window of frag 1         7
no. of orbitals within energy window of frag 2         7
   
  Fragment 1 HOMO-4  Fragment 2 HOMO-4
--------------------------------------
E_mon(orb) frag1 frag2              -6.683    -6.744 eV
J(AB):               -0.001 eV
S(AB):             0.00003616 Eh
|J(AB,eff)|:            0.001 eV
   
  Fragment 1 HOMO-4  Fragment 2 HOMO-3
--------------------------------------
E_mon(orb) frag1 frag2              -6.683    -6.615 eV
J(AB):                0.002 eV
S(AB):            -0.00006418 Eh
|J(AB,eff)|:            0.001 eV
   
  Fragment 1 HOMO-4  Fragment 2 HOMO-2
--------------------------------------
E_mon(orb) frag1 frag2              -6.683    -6.606 eV
J(AB):                0.001 eV
S(AB):            -0.00002305 Eh
|J(AB,eff)|:            0.001 eV
   
  Fragment 1 HOMO-4  Fragment 2 HOMO-1
--------------------------------------
E_mon(orb) frag1 frag2              -6.683    -6.524 eV
J(AB):               -0.001 eV
S(AB):             0.00005470 Eh
|J(AB,eff)|:            0.001 eV
   
  Fragment 1 HOMO-4  Fragment 2 HOMO 
--------------------------------------
E_mon(orb) frag1 frag2              -6.683    -6.496 eV
J(AB):                0.000 eV
S(AB):            -0.00005511 Eh
|J(AB,eff)|:            0.000 eV
   
  Fragment 1 HOMO-4  Fragment 2 LUMO 
--------------------------------------
E_mon(orb) frag1 frag2              -6.683    -5.539 eV
J(AB):               -0.002 eV
S(AB):             0.00012507 Eh
|J(AB,eff)|:            0.001 eV
   
  Fragment 1 HOMO-4  Fragment 2 LUMO+1
--------------------------------------
E_mon(orb) frag1 frag2              -6.683    -5.489 eV
J(AB):               -0.001 eV
S(AB):             0.00003905 Eh
|J(AB,eff)|:            0.001 eV
   
  Fragment 1 HOMO-3  Fragment 2 HOMO-4
--------------------------------------
E_mon(orb) frag1 frag2              -6.490    -6.744 eV
J(AB):                0.001 eV
S(AB):            -0.00004395 Eh
|J(AB,eff)|:            0.000 eV
   
  Fragment 1 HOMO-3  Fragment 2 HOMO-3
--------------------------------------
E_mon(orb) frag1 frag2              -6.490    -6.615 eV
J(AB):                0.004 eV
S(AB):            -0.00018824 Eh
|J(AB,eff)|:            0.002 eV
   
  Fragment 1 HOMO-3  Fragment 2 HOMO-2
--------------------------------------
E_mon(orb) frag1 frag2              -6.490    -6.606 eV
J(AB):               -0.000 eV
S(AB):             0.00003296 Eh
|J(AB,eff)|:            0.000 eV
   
  Fragment 1 HOMO-3  Fragment 2 HOMO-1
--------------------------------------
E_mon(orb) frag1 frag2              -6.490    -6.524 eV
J(AB):               -0.002 eV
S(AB):             0.00011739 Eh
|J(AB,eff)|:            0.001 eV
   
  Fragment 1 HOMO-3  Fragment 2 HOMO 
--------------------------------------
E_mon(orb) frag1 frag2              -6.490    -6.496 eV
J(AB):               -0.002 eV
S(AB):             0.00004810 Eh
|J(AB,eff)|:            0.002 eV
   
  Fragment 1 HOMO-3  Fragment 2 LUMO 
--------------------------------------
E_mon(orb) frag1 frag2              -6.490    -5.539 eV
J(AB):                0.003 eV
S(AB):            -0.00010417 Eh
|J(AB,eff)|:            0.002 eV
   
  Fragment 1 HOMO-3  Fragment 2 LUMO+1
--------------------------------------
E_mon(orb) frag1 frag2              -6.490    -5.489 eV
J(AB):                0.004 eV
S(AB):            -0.00021418 Eh
|J(AB,eff)|:            0.003 eV
   
  Fragment 1 HOMO-2  Fragment 2 HOMO-4
--------------------------------------
E_mon(orb) frag1 frag2              -6.603    -6.744 eV
J(AB):                0.003 eV
S(AB):            -0.00016036 Eh
|J(AB,eff)|:            0.002 eV
   
  Fragment 1 HOMO-2  Fragment 2 HOMO-3
--------------------------------------
E_mon(orb) frag1 frag2              -6.603    -6.615 eV
J(AB):               -0.008 eV
S(AB):             0.00041790 Eh
|J(AB,eff)|:            0.006 eV
   
  Fragment 1 HOMO-2  Fragment 2 HOMO-2
--------------------------------------
E_mon(orb) frag1 frag2              -6.603    -6.606 eV
J(AB):               -0.007 eV
S(AB):             0.00036681 Eh
|J(AB,eff)|:            0.005 eV
   
  Fragment 1 HOMO-2  Fragment 2 HOMO-1
--------------------------------------
E_mon(orb) frag1 frag2              -6.603    -6.524 eV
J(AB):                0.024 eV
S(AB):            -0.00122194 Eh
|J(AB,eff)|:            0.016 eV
   
  Fragment 1 HOMO-2  Fragment 2 HOMO 
--------------------------------------
E_mon(orb) frag1 frag2              -6.603    -6.496 eV
J(AB):                0.004 eV
S(AB):            -0.00020155 Eh
|J(AB,eff)|:            0.003 eV
   
  Fragment 1 HOMO-2  Fragment 2 LUMO 
--------------------------------------
E_mon(orb) frag1 frag2              -6.603    -5.539 eV
J(AB):                0.003 eV
S(AB):            -0.00014050 Eh
|J(AB,eff)|:            0.002 eV
   
  Fragment 1 HOMO-2  Fragment 2 LUMO+1
--------------------------------------
E_mon(orb) frag1 frag2              -6.603    -5.489 eV
J(AB):                0.002 eV
S(AB):            -0.00005613 Eh
|J(AB,eff)|:            0.001 eV
   
  Fragment 1 HOMO-1  Fragment 2 HOMO-4
--------------------------------------
E_mon(orb) frag1 frag2              -6.422    -6.744 eV
J(AB):                0.002 eV
S(AB):            -0.00011007 Eh
|J(AB,eff)|:            0.002 eV
   
  Fragment 1 HOMO-1  Fragment 2 HOMO-3
--------------------------------------
E_mon(orb) frag1 frag2              -6.422    -6.615 eV
J(AB):               -0.001 eV
S(AB):             0.00004811 Eh
|J(AB,eff)|:            0.001 eV
   
  Fragment 1 HOMO-1  Fragment 2 HOMO-2
--------------------------------------
E_mon(orb) frag1 frag2              -6.422    -6.606 eV
J(AB):               -0.002 eV
S(AB):             0.00009554 Eh
|J(AB,eff)|:            0.002 eV
   
  Fragment 1 HOMO-1  Fragment 2 HOMO-1
--------------------------------------
E_mon(orb) frag1 frag2              -6.422    -6.524 eV
J(AB):               -0.000 eV
S(AB):             0.00002582 Eh
|J(AB,eff)|:            0.000 eV
   
  Fragment 1 HOMO-1  Fragment 2 HOMO 
--------------------------------------
E_mon(orb) frag1 frag2              -6.422    -6.496 eV
J(AB):               -0.001 eV
S(AB):             0.00001657 Eh
|J(AB,eff)|:            0.000 eV
   
  Fragment 1 HOMO-1  Fragment 2 LUMO 
--------------------------------------
E_mon(orb) frag1 frag2              -6.422    -5.539 eV
J(AB):               -0.001 eV
S(AB):             0.00003698 Eh
|J(AB,eff)|:            0.001 eV
   
  Fragment 1 HOMO-1  Fragment 2 LUMO+1
--------------------------------------
E_mon(orb) frag1 frag2              -6.422    -5.489 eV
J(AB):                0.000 eV
S(AB):            -0.00004085 Eh
|J(AB,eff)|:            0.000 eV
   
  Fragment 1 HOMO   Fragment 2 HOMO-4
--------------------------------------
E_mon(orb) frag1 frag2              -6.419    -6.744 eV
J(AB):               -0.005 eV
S(AB):             0.00023037 Eh
|J(AB,eff)|:            0.003 eV
   
  Fragment 1 HOMO   Fragment 2 HOMO-3
--------------------------------------
E_mon(orb) frag1 frag2              -6.419    -6.615 eV
J(AB):                0.005 eV
S(AB):            -0.00024127 Eh
|J(AB,eff)|:            0.004 eV
   
  Fragment 1 HOMO   Fragment 2 HOMO-2
--------------------------------------
E_mon(orb) frag1 frag2              -6.419    -6.606 eV
J(AB):                0.006 eV
S(AB):            -0.00028110 Eh
|J(AB,eff)|:            0.004 eV
   
  Fragment 1 HOMO   Fragment 2 HOMO-1
--------------------------------------
E_mon(orb) frag1 frag2              -6.419    -6.524 eV
J(AB):               -0.017 eV
S(AB):             0.00086586 Eh
|J(AB,eff)|:            0.011 eV
   
  Fragment 1 HOMO   Fragment 2 HOMO 
--------------------------------------
E_mon(orb) frag1 frag2              -6.419    -6.496 eV
J(AB):               -0.002 eV
S(AB):             0.00012068 Eh
|J(AB,eff)|:            0.001 eV
   
  Fragment 1 HOMO   Fragment 2 LUMO 
--------------------------------------
E_mon(orb) frag1 frag2              -6.419    -5.539 eV
J(AB):               -0.002 eV
S(AB):             0.00011030 Eh
|J(AB,eff)|:            0.001 eV
   
  Fragment 1 HOMO   Fragment 2 LUMO+1
--------------------------------------
E_mon(orb) frag1 frag2              -6.419    -5.489 eV
J(AB):               -0.002 eV
S(AB):             0.00013751 Eh
|J(AB,eff)|:            0.001 eV
   
  Fragment 1 LUMO   Fragment 2 HOMO-4
--------------------------------------
E_mon(orb) frag1 frag2              -5.394    -6.744 eV
J(AB):               -0.001 eV
S(AB):             0.00004246 Eh
|J(AB,eff)|:            0.001 eV
   
  Fragment 1 LUMO   Fragment 2 HOMO-3
--------------------------------------
E_mon(orb) frag1 frag2              -5.394    -6.615 eV
J(AB):                0.001 eV
S(AB):            -0.00005132 Eh
|J(AB,eff)|:            0.001 eV
   
  Fragment 1 LUMO   Fragment 2 HOMO-2
--------------------------------------
E_mon(orb) frag1 frag2              -5.394    -6.606 eV
J(AB):                0.000 eV
S(AB):             0.00000807 Eh
|J(AB,eff)|:            0.000 eV
   
  Fragment 1 LUMO   Fragment 2 HOMO-1
--------------------------------------
E_mon(orb) frag1 frag2              -5.394    -6.524 eV
J(AB):                0.001 eV
S(AB):            -0.00002834 Eh
|J(AB,eff)|:            0.001 eV
   
  Fragment 1 LUMO   Fragment 2 HOMO 
--------------------------------------
E_mon(orb) frag1 frag2              -5.394    -6.496 eV
J(AB):                0.002 eV
S(AB):            -0.00014776 Eh
|J(AB,eff)|:            0.001 eV
   
  Fragment 1 LUMO   Fragment 2 LUMO 
--------------------------------------
E_mon(orb) frag1 frag2              -5.394    -5.539 eV
J(AB):               -0.003 eV
S(AB):             0.00017573 Eh
|J(AB,eff)|:            0.002 eV
   
  Fragment 1 LUMO   Fragment 2 LUMO+1
--------------------------------------
E_mon(orb) frag1 frag2              -5.394    -5.489 eV
J(AB):               -0.001 eV
S(AB):             0.00001763 Eh
|J(AB,eff)|:            0.001 eV
   
  Fragment 1 LUMO+1  Fragment 2 HOMO-4
--------------------------------------
E_mon(orb) frag1 frag2              -5.463    -6.744 eV
J(AB):               -0.001 eV
S(AB):             0.00002836 Eh
|J(AB,eff)|:            0.001 eV
   
  Fragment 1 LUMO+1  Fragment 2 HOMO-3
--------------------------------------
E_mon(orb) frag1 frag2              -5.463    -6.615 eV
J(AB):                0.002 eV
S(AB):            -0.00004656 Eh
|J(AB,eff)|:            0.001 eV
   
  Fragment 1 LUMO+1  Fragment 2 HOMO-2
--------------------------------------
E_mon(orb) frag1 frag2              -5.463    -6.606 eV
J(AB):                0.002 eV
S(AB):            -0.00007192 Eh
|J(AB,eff)|:            0.001 eV
   
  Fragment 1 LUMO+1  Fragment 2 HOMO-1
--------------------------------------
E_mon(orb) frag1 frag2              -5.463    -6.524 eV
J(AB):               -0.002 eV
S(AB):             0.00010757 Eh
|J(AB,eff)|:            0.001 eV
   
  Fragment 1 LUMO+1  Fragment 2 HOMO 
--------------------------------------
E_mon(orb) frag1 frag2              -5.463    -6.496 eV
J(AB):               -0.001 eV
S(AB):             0.00007153 Eh
|J(AB,eff)|:            0.001 eV
   
  Fragment 1 LUMO+1  Fragment 2 LUMO 
--------------------------------------
E_mon(orb) frag1 frag2              -5.463    -5.539 eV
J(AB):                0.002 eV
S(AB):            -0.00009271 Eh
|J(AB,eff)|:            0.001 eV
   
  Fragment 1 LUMO+1  Fragment 2 LUMO+1
--------------------------------------
E_mon(orb) frag1 frag2              -5.463    -5.489 eV
J(AB):                0.001 eV
S(AB):            -0.00003959 Eh
|J(AB,eff)|:            0.001 eV
   
..............................................................................
:  total |J(AB,eff)| for hole transport (occ. MOs) :               0.022 eV  :
:  total |J(AB,eff)| for charge transport (unocc. MOs) :           0.002 eV  :
:  total |J(AB,eff)| for charge transfer (CT) :                    0.006 eV  :
..............................................................................
  
 Please remember, DIPRO is not available for restart!
   
normal termination of dipro
----------------------------------------------------------
 * finished run on 2025/03/17 at 18:43:12.709     
----------------------------------------------------------
 dipro:
 * wall-time:     0 d,  0 h,  0 min,  4.922 sec
 *  cpu-time:     0 d,  0 h,  0 min, 18.497 sec
 * ratio c/w:     3.758 speedup
Reorganization energy (electron): 0.1167603195595302 eV
Reorganization energy (hole): 0.08566582872379665 eV
Electron Transfer integral J: 0.002 eV
Hole Transfer integral J: 0.022 eV
