      -----------------------------------------------------------      
     |                   =====================                   |     
     |                           x T B                           |     
     |                   =====================                   |     
     |                         S. Grimme                         |     
     |          Mulliken Center for Theoretical Chemistry        |     
     |                    University of Bonn                     |     
      -----------------------------------------------------------      

   * xtb version 6.6.1 (8d0f1dd) compiled by 'runner@Mac-1690902418499.local' on 2023-08-01

   xtb is free software: you can redistribute it and/or modify it under
   the terms of the GNU Lesser General Public License as published by
   the Free Software Foundation, either version 3 of the License, or
   (at your option) any later version.
   
   xtb is distributed in the hope that it will be useful,
   but WITHOUT ANY WARRANTY; without even the implied warranty of
   MERCHANTABILITY or FITNESS FOR A PARTICULAR PURPOSE.  See the
   GNU Lesser General Public License for more details.
   
   Cite this work as:
   * C. Bannwarth, E. Caldeweyher, S. Ehlert, A. Hansen, P. Pracht,
     J. Seibert, S. Spicher, S. Grimme, WIREs Comput. Mol. Sci., 2020, 11,
     e01493. DOI: 10.1002/wcms.1493
   
   for GFN2-xTB:
   * C. Bannwarth, S. Ehlert and S. Grimme., J. Chem. Theory Comput., 2019,
     15, 1652-1671. DOI: 10.1021/acs.jctc.8b01176
   for GFN1-xTB:
   * S. Grimme, C. Bannwarth, P. Shushkov, J. Chem. Theory Comput., 2017,
     13, 1989-2009. DOI: 10.1021/acs.jctc.7b00118
   for GFN0-xTB:
   * P. Pracht, E. Caldeweyher, S. Ehlert, S. Grimme, ChemRxiv, 2019, preprint.
     DOI: 10.26434/chemrxiv.8326202.v1
   for GFN-FF:
   * S. Spicher and S. Grimme, Angew. Chem. Int. Ed., 2020, 59, 15665-15673.
     DOI: 10.1002/anie.202004239
   
   for ALPB and GBSA implicit solvation:
   * S. Ehlert, M. Stahn, S. Spicher, S. Grimme, J. Chem. Theory Comput.,
     2021, 17, 4250-4261. DOI: 10.1021/acs.jctc.1c00471
   
   for DFT-D4:
   * E. Caldeweyher, C. Bannwarth and S. Grimme, J. Chem. Phys., 2017,
     147, 034112. DOI: 10.1063/1.4993215
   * E. Caldeweyher, S. Ehlert, A. Hansen, H. Neugebauer, S. Spicher,
     C. Bannwarth and S. Grimme, J. Chem. Phys., 2019, 150, 154122.
     DOI: 10.1063/1.5090222
   * E. Caldeweyher, J.-M. Mewes, S. Ehlert and S. Grimme, Phys. Chem. Chem. Phys.
     2020, 22, 8499-8512. DOI: 10.1039/D0CP00502A
   
   for sTDA-xTB:
   * S. Grimme and C. Bannwarth, J. Chem. Phys., 2016, 145, 054103.
     DOI: 10.1063/1.4959605
   
   in the mass-spec context:
   * V. Asgeirsson, C. Bauer and S. Grimme, Chem. Sci., 2017, 8, 4879.
     DOI: 10.1039/c7sc00601b
   * J. Koopman and S. Grimme, ACS Omega 2019, 4, 12, 15120-15133.
     DOI: 10.1021/acsomega.9b02011
   
   for metadynamics refer to:
   * S. Grimme, J. Chem. Theory Comput., 2019, 155, 2847-2862
     DOI: 10.1021/acs.jctc.9b00143
   
   for SPH calculations refer to:
   * S. Spicher and S. Grimme, J. Chem. Theory Comput., 2021, 17, 1701-1714
     DOI: 10.1021/acs.jctc.0c01306
   
   with help from (in alphabetical order)
   P. Atkinson, C. Bannwarth, F. Bohle, G. Brandenburg, E. Caldeweyher
   M. Checinski, S. Dohm, S. Ehlert, S. Ehrlich, I. Gerasimov, C. Hölzer
   A. Katbashev, J. Koopman, C. Lavigne, S. Lehtola, F. März, M. Müller,
   F. Musil, H. Neugebauer, J. Pisarek, C. Plett, P. Pracht, F. Pultar,
   J. Seibert, P. Shushkov, S. Spicher, M. Stahn, M. Steiner, T. Strunk,
   J. Stückrath, T. Rose, and J. Unsleber
   
 * started run on 2025/03/14 at 12:42:18.538     

           -------------------------------------------------
          |                Calculation Setup                |
           -------------------------------------------------

          program call               : xtb scoord.19 --md --gfnff --input md_settings.inp
          coordinate file            : scoord.19
          omp threads                :                     8

   ID    Z sym.   atoms
    1    6 C      1-9, 11, 12, 14-21, 24, 25, 34, 35, 38, 41-43, 59-67, 69,
                  70, 72-79, 82, 83, 92, 93, 96, 99-101
    2    7 N      10, 13, 68, 71
    3    8 O      22, 23, 32, 33, 36, 37, 39, 40, 80, 81, 90, 91, 94, 95, 97,
                  98
    4    1 H      26-31, 44-58, 84-89, 102-116

molecular fragmentation (1/2 indicates fragments):
111111111111111111111111111111111111111111111111111111111122222222222222
22222222222222222222222222222222222222222222
# atoms in fragment 1/2:    58    58
 fragment masses (1/2) :      501.47      501.47
CMA distance (Bohr)    :  28.587
constraining FC (au)   :  0.0500
          GFN-FF topology read from file successfully!
           ------------------------------------------------- 
          |                   G F N - F F                   |
          |          A general generic force-field          |
          |                  Version 1.0.3                  | 
           ------------------------------------------------- 
          Number of HB bonds (bound hydrogen)     7026
          Number of HB bonds (unbound hydrogen)   263
          Number of XB bonds                      0

 E+G (total)                   0 d,  0 h,  0 min,  0.002 sec
 distance/D3 list               ...        0 min,  0.000 sec (  1.395%)
 non bonded repulsion           ...        0 min,  0.000 sec (  4.783%)
 dCN                            ...        0 min,  0.000 sec (  6.673%)
 EEQ energy and q               ...        0 min,  0.000 sec ( 17.094%)
 D3                             ...        0 min,  0.000 sec ( 21.877%)
 EEQ gradient                   ...        0 min,  0.000 sec (  2.639%)
 bonds                          ...        0 min,  0.000 sec (  6.658%)
 bend and torsion               ...        0 min,  0.000 sec (  4.708%)
 bonded ATM                     ...        0 min,  0.000 sec (  2.759%)
 HB/XB (incl list setup)        ...        0 min,  0.000 sec ( 30.814%)

         :::::::::::::::::::::::::::::::::::::::::::::::::::::
         ::                     SUMMARY                     ::
         :::::::::::::::::::::::::::::::::::::::::::::::::::::
         :: total energy             -22.622794283342 Eh    ::
         :: gradient norm              0.500817351453 Eh/a0 ::
         ::.................................................::
         :: bond energy              -23.480423581833 Eh    ::
         :: angle energy               0.187614006973 Eh    ::
         :: torsion energy             0.146357924888 Eh    ::
         :: repulsion energy           1.587962210018 Eh    ::
         :: electrostat energy        -0.922373986124 Eh    ::
         :: dispersion energy         -0.112784857256 Eh    ::
         :: HB energy                 -0.003757331045 Eh    ::
         :: XB energy                  0.000000000000 Eh    ::
         :: bonded atm energy         -0.025388668962 Eh    ::
         :: external energy            0.000000000000 Eh    ::
         :: add. restraining           0.000000000000 Eh    ::
         :: total charge              -0.000000000000 e     ::
         :::::::::::::::::::::::::::::::::::::::::::::::::::::

           -------------------------------------------------
          |                Property Printout                |
           -------------------------------------------------

           -------------------------------------------------
          | TOTAL ENERGY              -22.622794283342 Eh   |
          | GRADIENT NORM               0.500817351453 Eh/α |
           -------------------------------------------------
           ------------------------------------------------- 
          |               Molecular Dynamics                |
           ------------------------------------------------- 
 trajectories on xtb.trj or xtb.trj.<n>

 MD time /ps        :   20.00
 dt /fs             :    2.00
 SCC accuracy       :    2.00
 temperature /K     :  800.00
 max steps          : 10000
 block length (av.) :  2500
 dumpstep(trj) /fs  :  500.00   250
 dumpstep(coords)/fs: 1000.00   500
 H atoms mass (amu) :     4
 # deg. of freedom  :   348
 SHAKE off
 Berendsen THERMOSTAT on
         time (ps)    <Epot>      Ekin   <T>   T     Etot
      0    0.00      0.00000   0.9196    0.    0.   -21.70315
est. speed in wall clock h for 100 ps :  0.02
    200    0.40    -22.31597   0.5828 1151. 1058.   -21.86887
    400    0.80    -22.39684   0.5193 1087.  943.   -21.95606
    600    1.20    -22.43698   0.5285 1039.  959.   -22.04353
    800    1.60    -22.46663   0.4955 1007.  899.   -22.08012
   1000    2.00    -22.48746   0.4749  979.  862.   -22.08826
   1200    2.40    -22.50213   0.4770  955.  866.   -22.10880
   1400    2.80    -22.51434   0.4435  938.  805.   -22.14502
   1600    3.20    -22.52426   0.4415  923.  801.   -22.14120
   1800    3.60    -22.53350   0.4708  912.  854.   -22.16237
   2000    4.00    -22.54017   0.4688  901.  851.   -22.16072
   2200    4.40    -22.54537   0.4697  892.  852.   -22.15159
   2400    4.80    -22.54932   0.4413  883.  801.   -22.19116
block <Epot> / <T> :     -22.56044  881.     drift:  0.99D+02   Tbath : 800.
   2600    5.20    -22.55325   0.4617  878.  838.   -22.12540
   2800    5.60    -22.55635   0.4340  872.  788.   -22.17403
   3000    6.00    -22.55927   0.4535  867.  823.   -22.15098
   3200    6.40    -22.56175   0.4407  863.  800.   -22.16379
   3400    6.80    -22.56395   0.4628  859.  840.   -22.18208
   3600    7.20    -22.56616   0.4394  856.  797.   -22.15514
   3800    7.60    -22.56834   0.4129  854.  749.   -22.19598
   4000    8.00    -22.57034   0.4472  851.  812.   -22.17198
   4200    8.40    -22.57251   0.4590  849.  833.   -22.18209
   4400    8.80    -22.57406   0.4767  847.  865.   -22.17325
   4600    9.20    -22.57588   0.4253  845.  772.   -22.17740
   4800    9.60    -22.57635   0.4065  842.  738.   -22.16152
   5000   10.00    -22.57712   0.4116  840.  747.   -22.16983
block <Epot> / <T> :     -22.60284  800.     drift:  0.99D+02   Tbath : 800.
   5200   10.40    -22.57842   0.4271  839.  775.   -22.16584
   5400   10.80    -22.57936   0.3912  838.  710.   -22.16709
   5600   11.20    -22.58022   0.4505  836.  818.   -22.17652
   5800   11.60    -22.58129   0.4647  836.  843.   -22.18872
   6000   12.00    -22.58224   0.4398  834.  798.   -22.16661
   6200   12.40    -22.58314   0.4500  833.  817.   -22.18686
   6400   12.80    -22.58399   0.4507  832.  818.   -22.17088
   6600   13.20    -22.58500   0.4691  832.  851.   -22.17468
   6800   13.60    -22.58611   0.4057  831.  736.   -22.18653
   7000   14.00    -22.58711   0.4218  830.  766.   -22.17975
   7200   14.40    -22.58791   0.4319  829.  784.   -22.19584
   7400   14.80    -22.58871   0.4578  828.  831.   -22.18281
block <Epot> / <T> :     -22.61323  804.     drift:  0.99D+02   Tbath : 800.
   7600   15.20    -22.58959   0.4198  828.  762.   -22.14953
   7800   15.60    -22.59007   0.4292  827.  779.   -22.18529
   8000   16.00    -22.59060   0.4727  826.  858.   -22.17022
   8200   16.40    -22.59140   0.4826  826.  876.   -22.18552
   8400   16.80    -22.59234   0.4210  825.  764.   -22.17645
   8600   17.20    -22.59325   0.4777  825.  867.   -22.16882
   8800   17.60    -22.59406   0.4442  824.  806.   -22.22314
   9000   18.00    -22.59483   0.4082  824.  741.   -22.19705
   9200   18.40    -22.59541   0.3587  823.  651.   -22.18016
   9400   18.80    -22.59605   0.4840  823.  878.   -22.17099
   9600   19.20    -22.59664   0.4457  822.  809.   -22.17999
   9800   19.60    -22.59732   0.4486  822.  814.   -22.17627
 average properties 
 Epot               :  -22.597591932001063     
 Epot (accurate SCC):  -22.600285955534858     
 Ekin               :  0.45239650112122010     
 Etot               :  -22.145195430879841     
 T                  :   821.00948857974277     
 thermostating problem
 normal exit of md()

------------------------------------------------------------------------
 * finished run on 2025/03/14 at 12:42:32.441     
------------------------------------------------------------------------
 total:
 * wall-time:     0 d,  0 h,  0 min, 13.902 sec
 *  cpu-time:     0 d,  0 h,  0 min, 27.049 sec
 * ratio c/w:     1.946 speedup
 SCF:
 * wall-time:     0 d,  0 h,  0 min,  0.002 sec
 *  cpu-time:     0 d,  0 h,  0 min,  0.004 sec
Note: The following floating-point exceptions are signalling: IEEE_UNDERFLOW_FLAG
normal termination of xtb
 * ratio c/w:     1.782 speedup
 MD:
 * wall-time:     0 d,  0 h,  0 min, 13.894 sec
 *  cpu-time:     0 d,  0 h,  0 min, 27.041 sec
 * ratio c/w:     1.946 speedup

