302
 energy: -414.408046797950 gnorm: 0.155255512791 xtb: 6.7.1 (edcfbbe)
C            2.02030000000000        1.02750000000000        0.59760000000000
C            1.69590000000000       -0.25990000000000        1.02030000000000
C            2.73630000000000       -1.12790000000000        1.50260000000000
C            4.04040000000000       -0.56800000000000        1.61930000000000
C            4.29620000000000        0.72490000000000        1.13290000000000
C            3.31190000000000        1.54070000000000        0.64510000000000
C            2.56800000000000       -2.49000000000000        1.97240000000000
C            3.58050000000000       -2.96610000000000        2.83490000000000
C            4.81890000000000       -2.28160000000000        2.94480000000000
N            5.07880000000000       -1.16010000000000        2.25360000000000
C            1.52060000000000       -3.42560000000000        1.69020000000000
C            1.39250000000000       -4.55870000000000        2.54900000000000
N            2.26610000000000       -4.87460000000000        3.52800000000000
C            3.37990000000000       -4.13340000000000        3.61720000000000
C            4.37260000000000       -4.52550000000000        4.52860000000000
C            5.57830000000000       -3.85920000000000        4.64620000000000
C            5.79500000000000       -2.76210000000000        3.83080000000000
C            0.62140000000000       -3.35760000000000        0.55740000000000
C           -0.44550000000000       -4.28280000000000        0.48950000000000
C           -0.63040000000000       -5.30470000000000        1.39680000000000
C            0.31610000000000       -5.44750000000000        2.38690000000000
O            0.34010000000000       -0.58250000000000        1.00570000000000
C           -3.81200000000000       -2.43220000000000       -0.36000000000000
C           -2.89290000000000       -1.52330000000000        0.16150000000000
C           -3.36270000000000       -0.31530000000000        0.76570000000000
C           -4.73470000000000       -0.31930000000000        1.16510000000000
C           -5.61760000000000       -1.27000000000000        0.61210000000000
C           -5.18610000000000       -2.28740000000000       -0.20240000000000
C           -2.56130000000000        0.84930000000000        1.08820000000000
C           -3.10110000000000        1.65390000000000        2.11910000000000
C           -4.38720000000000        1.37710000000000        2.66950000000000
N           -5.23090000000000        0.48070000000000        2.13070000000000
C           -1.50610000000000        1.44380000000000        0.30250000000000
C           -1.16110000000000        2.79610000000000        0.63870000000000
N           -1.42060000000000        3.36500000000000        1.84370000000000
C           -2.42840000000000        2.82860000000000        2.55400000000000
C           -2.96120000000000        3.57280000000000        3.62300000000000
C           -4.18200000000000        3.27370000000000        4.20280000000000
C           -4.87760000000000        2.18550000000000        3.70640000000000
C           -0.99250000000000        0.96310000000000       -0.98040000000000
C           -0.62120000000000        1.92430000000000       -1.95100000000000
C           -0.47970000000000        3.26670000000000       -1.66720000000000
C           -0.66750000000000        3.66310000000000       -0.35740000000000
O           -1.58380000000000       -1.94600000000000        0.22130000000000
B           -0.31810000000000       -1.28520000000000       -0.12650000000000
N            0.71480000000000       -2.39670000000000       -0.45100000000000
C            2.11790000000000       -3.07610000000000       -2.34150000000000
C            1.90950000000000       -2.11510000000000       -1.19010000000000
N           -0.70110000000000       -0.34490000000000       -1.27060000000000
C           -1.29770000000000       -2.23220000000000       -2.74590000000000
C           -0.67580000000000       -0.86060000000000       -2.60840000000000
C           -4.86060000000000        4.24090000000000        5.18650000000000
C           -5.76530000000000        3.47240000000000        6.16890000000000
C           -3.82220000000000        5.02240000000000        6.00900000000000
C           -5.71390000000000        5.23630000000000        4.38320000000000
C           -0.14830000000000        4.25560000000000       -2.79730000000000
C           -1.27630000000000        4.20230000000000       -3.84430000000000
C           -0.03820000000000        5.70100000000000       -2.27570000000000
C            1.18570000000000        3.87670000000000       -3.46570000000000
C           -6.18800000000000       -3.28680000000000       -0.79640000000000
C           -7.38180000000000       -2.52630000000000       -1.40570000000000
C           -5.54430000000000       -4.13050000000000       -1.91400000000000
C           -6.68850000000000       -4.22400000000000        0.31460000000000
C           -1.77360000000000       -6.32320000000000        1.27160000000000
C           -1.23150000000000       -7.59800000000000        0.60570000000000
C           -2.33960000000000       -6.67030000000000        2.66300000000000
C           -2.92870000000000       -5.76260000000000        0.42490000000000
C            6.60770000000000       -4.32800000000000        5.68400000000000
C            7.88830000000000       -3.47220000000000        5.64840000000000
C            5.99080000000000       -4.21220000000000        7.08700000000000
C            6.98980000000000       -5.79230000000000        5.40350000000000
C            3.67180000000000        2.95100000000000        0.15740000000000
C            4.73060000000000        3.59410000000000        1.07740000000000
H            4.89890000000000        4.63580000000000        0.80500000000000
H            5.69020000000000        3.08430000000000        1.00730000000000
H            4.40630000000000        3.56710000000000        2.11710000000000
C            4.22860000000000        2.84680000000000       -1.27150000000000
H            5.13980000000000        2.24960000000000       -1.28950000000000
H            4.46140000000000        3.83180000000000       -1.67500000000000
H            3.50700000000000        2.36650000000000       -1.93170000000000
C            2.43890000000000        3.86440000000000        0.16330000000000
H            1.96800000000000        3.87410000000000        1.14520000000000
H            1.70990000000000        3.52090000000000       -0.56420000000000
H            2.70680000000000        4.88870000000000       -0.09490000000000
H            7.66870000000000       -2.42900000000000        5.87410000000000
H            8.36750000000000       -3.52330000000000        4.67110000000000
H            8.60770000000000       -3.82300000000000        6.38800000000000
H            5.69720000000000       -3.18340000000000        7.29350000000000
H            6.70060000000000       -4.52080000000000        7.85360000000000
H            5.10260000000000       -4.83460000000000        7.18560000000000
H            1.16500000000000        2.85930000000000       -3.85360000000000
H            2.00950000000000        3.95200000000000       -2.75900000000000
H            1.40420000000000        4.54440000000000       -4.29870000000000
H           -0.97200000000000        6.02400000000000       -1.81640000000000
H            0.18390000000000        6.38950000000000       -3.09060000000000
H            0.75940000000000        5.79530000000000       -1.53970000000000
H           -2.23460000000000        4.45250000000000       -3.38980000000000
H           -1.36300000000000        3.20780000000000       -4.28020000000000
H           -1.09170000000000        4.90730000000000       -4.65440000000000
H           -6.47260000000000        4.71430000000000        3.80090000000000
H           -5.09400000000000        5.80480000000000        3.69040000000000
H           -6.21860000000000        5.94090000000000        5.04360000000000
H           -3.16090000000000        4.33490000000000        6.52790000000000
H           -4.30690000000000        5.64610000000000        6.75960000000000
H           -3.21700000000000        5.67660000000000        5.38350000000000
H           -5.21200000000000        2.66430000000000        6.64100000000000
H           -6.63130000000000        3.04190000000000        5.66880000000000
H           -6.13630000000000        4.12930000000000        6.95500000000000
H           -5.10840000000000       -3.49160000000000       -2.68170000000000
H           -6.28640000000000       -4.76930000000000       -2.39250000000000
H           -4.76350000000000       -4.78030000000000       -1.52300000000000
H           -7.17670000000000       -3.66120000000000        1.10920000000000
H           -5.86170000000000       -4.77900000000000        0.75580000000000
H           -7.40640000000000       -4.94450000000000       -0.07650000000000
H           -7.04110000000000       -1.81450000000000       -2.15710000000000
H           -7.93590000000000       -1.97610000000000       -0.64690000000000
H           -8.07760000000000       -3.21470000000000       -1.88480000000000
H            7.40290000000000       -5.89670000000000        4.40070000000000
H            6.12470000000000       -6.44940000000000        5.47970000000000
H            7.73690000000000       -6.14300000000000        6.11520000000000
H            6.71590000000000       -2.21350000000000        3.88870000000000
H            4.17210000000000       -5.38250000000000        5.14440000000000
H            5.30830000000000        1.07830000000000        1.19640000000000
H            0.26320000000000       -6.28450000000000        3.05730000000000
H            1.21580000000000        1.63890000000000        0.24070000000000
H           -1.14160000000000       -4.16260000000000       -0.31680000000000
H           -3.42150000000000       -3.30200000000000       -0.85080000000000
H           -0.35330000000000        1.58800000000000       -2.93450000000000
H           -6.65620000000000       -1.19660000000000        0.87700000000000
H           -0.52330000000000        4.69000000000000       -0.07810000000000
H           -5.86290000000000        1.96490000000000        4.07170000000000
H           -2.42530000000000        4.45230000000000        3.92380000000000
H           -1.60360000000000       -7.18210000000000        3.28080000000000
H           -3.20460000000000       -7.32760000000000        2.57740000000000
H           -2.65580000000000       -5.76850000000000        3.18520000000000
H           -2.62020000000000       -5.60000000000000       -0.60690000000000
H           -3.28020000000000       -4.81920000000000        0.84060000000000
H           -3.76970000000000       -6.45570000000000        0.40800000000000
H           -0.42720000000000       -8.03370000000000        1.19800000000000
H           -0.83520000000000       -7.37710000000000       -0.38500000000000
H           -2.01570000000000       -8.34700000000000        0.49800000000000
H            0.35740000000000       -0.85070000000000       -2.96830000000000
H           -1.22110000000000       -0.16480000000000       -3.25550000000000
H           -0.82400000000000       -2.94420000000000       -2.07230000000000
H           -1.21450000000000       -2.62560000000000       -3.76160000000000
H           -2.35700000000000       -2.20190000000000       -2.49150000000000
H            2.76190000000000       -2.17810000000000       -0.50790000000000
H            1.87670000000000       -1.07460000000000       -1.52870000000000
H            2.14810000000000       -4.10650000000000       -1.98320000000000
H            3.05130000000000       -2.88160000000000       -2.87430000000000
H            1.30700000000000       -3.01450000000000       -3.06720000000000
C            1.01390000000000        2.08610000000000        9.29560000000000
C            1.37240000000000        0.84500000000000        8.76410000000000
C            2.64350000000000        0.25960000000000        9.14760000000000
C            3.50770000000000        1.09730000000000        9.92050000000000
C            3.08340000000000        2.36440000000000       10.36000000000000
C            1.83020000000000        2.85010000000000       10.11580000000000
C            3.11620000000000       -1.10550000000000        8.94080000000000
C            4.27790000000000       -1.49460000000000        9.64630000000000
C            5.10640000000000       -0.52530000000000       10.26540000000000
N            4.74850000000000        0.76220000000000       10.34780000000000
C            2.53230000000000       -2.16800000000000        8.17670000000000
C            2.85370000000000       -3.52030000000000        8.51070000000000
N            3.91110000000000       -3.86860000000000        9.26760000000000
C            4.66630000000000       -2.86230000000000        9.73660000000000
C            5.87530000000000       -3.19240000000000       10.36930000000000
C            6.72450000000000       -2.24030000000000       10.89910000000000
C            6.32190000000000       -0.91770000000000       10.84720000000000
C            1.64130000000000       -1.98320000000000        7.06220000000000
C            0.83380000000000       -3.07040000000000        6.66040000000000
C            1.01310000000000       -4.35320000000000        7.13430000000000
C            2.06200000000000       -4.56890000000000        8.00530000000000
O            0.36640000000000        0.36380000000000        7.92100000000000
C           -2.93860000000000       -1.61840000000000        5.49250000000000
C           -2.18220000000000       -0.69590000000000        6.21340000000000
C           -2.84120000000000        0.43010000000000        6.82410000000000
C           -4.25120000000000        0.25460000000000        7.02650000000000
C           -4.96080000000000       -0.68770000000000        6.25000000000000
C           -4.32380000000000       -1.57730000000000        5.42120000000000
C           -2.25400000000000        1.66840000000000        7.32860000000000
C           -3.01360000000000        2.30490000000000        8.33430000000000
C           -4.28200000000000        1.78890000000000        8.73250000000000
N           -4.94650000000000        0.87560000000000        8.00340000000000
C           -1.18270000000000        2.45990000000000        6.78010000000000
C           -1.02480000000000        3.79940000000000        7.25580000000000
N           -1.59390000000000        4.26640000000000        8.38940000000000
C           -2.57690000000000        3.52450000000000        8.92220000000000
C           -3.28110000000000        4.04490000000000       10.02050000000000
C           -4.43490000000000        3.46050000000000       10.50840000000000
C           -4.94070000000000        2.36470000000000        9.83070000000000
C           -0.37480000000000        2.10960000000000        5.63200000000000
C            0.21060000000000        3.13390000000000        4.85270000000000
C            0.28180000000000        4.44110000000000        5.28250000000000
C           -0.29140000000000        4.73860000000000        6.50180000000000
O           -0.87290000000000       -1.07620000000000        6.39030000000000
B            0.23980000000000       -0.14700000000000        6.51560000000000
N            1.60130000000000       -0.81310000000000        6.33320000000000
C            3.69000000000000       -0.47570000000000        5.12310000000000
C            2.69230000000000        0.08320000000000        6.10470000000000
N           -0.00230000000000        0.82780000000000        5.35400000000000
C            0.14610000000000       -1.10580000000000        3.81550000000000
C            0.29780000000000        0.38470000000000        4.02240000000000
C           -5.14480000000000        4.07910000000000       11.72070000000000
C           -6.33890000000000        3.22040000000000       12.18000000000000
C           -4.15060000000000        4.18810000000000       12.89240000000000
C           -5.66050000000000        5.47900000000000       11.34460000000000
C            1.03110000000000        5.48360000000000        4.43990000000000
C            0.32130000000000        5.64950000000000        3.08560000000000
C            1.07640000000000        6.85540000000000        5.13910000000000
C            2.47730000000000        5.00570000000000        4.21180000000000
C           -5.08950000000000       -2.59830000000000        4.57210000000000
C           -6.41960000000000       -1.99760000000000        4.07950000000000
C           -4.25700000000000       -2.99880000000000        3.33650000000000
C           -5.37100000000000       -3.84820000000000        5.41960000000000
C            0.11300000000000       -5.52080000000000        6.70830000000000
C            0.96240000000000       -6.59090000000000        6.00130000000000
C           -0.54990000000000       -6.12800000000000        7.95760000000000
C           -1.00030000000000       -5.05520000000000        5.75120000000000
C            8.05810000000000       -2.67740000000000       11.52190000000000
C            8.87110000000000       -1.47250000000000       12.03210000000000
C            7.78190000000000       -3.61790000000000       12.70870000000000
C            8.89500000000000       -3.41390000000000       10.45910000000000
C            1.34180000000000        4.17410000000000       10.72380000000000
C            2.31410000000000        4.70410000000000       11.79630000000000
H            1.92090000000000        5.60850000000000       12.26030000000000
H            3.28200000000000        4.95480000000000       11.36330000000000
H            2.46660000000000        3.96660000000000       12.58390000000000
C            1.22060000000000        5.22770000000000        9.61510000000000
H            2.17770000000000        5.38080000000000        9.11700000000000
H            0.88650000000000        6.18430000000000       10.01600000000000
H            0.50070000000000        4.90900000000000        8.86770000000000
C           -0.02660000000000        3.95350000000000       11.39330000000000
H            0.04540000000000        3.20270000000000       12.17980000000000
H           -0.76540000000000        3.61020000000000       10.67340000000000
H           -0.39870000000000        4.87610000000000       11.83780000000000
H            8.32860000000000       -0.93360000000000       12.80840000000000
H            9.09560000000000       -0.77990000000000       11.22140000000000
H            9.81900000000000       -1.79890000000000       12.45930000000000
H            7.17010000000000       -3.11930000000000       13.46000000000000
H            8.71170000000000       -3.93080000000000       13.18320000000000
H            7.25310000000000       -4.51470000000000       12.38870000000000
H            2.50230000000000        4.05910000000000        3.67410000000000
H            2.98940000000000        4.86220000000000        5.16300000000000
H            3.04200000000000        5.73410000000000        3.63010000000000
H            0.07230000000000        7.24700000000000        5.30050000000000
H            1.61890000000000        7.58040000000000        4.53250000000000
H            1.58070000000000        6.78740000000000        6.10280000000000
H           -0.69490000000000        6.01680000000000        3.22390000000000
H            0.26200000000000        4.70000000000000        2.55740000000000
H            0.85150000000000        6.35660000000000        2.44810000000000
H           -6.35300000000000        5.42110000000000       10.50510000000000
H           -4.84130000000000        6.13680000000000       11.05700000000000
H           -6.18240000000000        5.94070000000000       12.18250000000000
H           -3.74910000000000        3.20780000000000       13.14800000000000
H           -4.63580000000000        4.59570000000000       13.77890000000000
H           -3.31280000000000        4.83830000000000       12.64480000000000
H           -6.02000000000000        2.20760000000000       12.42540000000000
H           -7.10480000000000        3.16450000000000       11.40710000000000
H           -6.80230000000000        3.64680000000000       13.06950000000000
H           -3.93440000000000       -2.11580000000000        2.78740000000000
H           -4.83890000000000       -3.62390000000000        2.66080000000000
H           -3.36830000000000       -3.56230000000000        3.61480000000000
H           -5.96950000000000       -3.59590000000000        6.29450000000000
H           -4.44090000000000       -4.29620000000000        5.76890000000000
H           -5.91190000000000       -4.59790000000000        4.84250000000000
H           -6.24540000000000       -1.05970000000000        3.55410000000000
H           -7.10120000000000       -1.80230000000000        4.90580000000000
H           -6.92410000000000       -2.67900000000000        3.39530000000000
H            9.07540000000000       -2.77090000000000        9.59790000000000
H            8.38750000000000       -4.31080000000000       10.10610000000000
H            9.86080000000000       -3.71590000000000       10.86350000000000
H            6.93030000000000       -0.14630000000000       11.28000000000000
H            6.13990000000000       -4.23230000000000       10.42260000000000
H            3.77620000000000        2.92460000000000       10.95990000000000
H            2.28700000000000       -5.56630000000000        8.33510000000000
H            0.04720000000000        2.46390000000000        9.02430000000000
H            0.06540000000000       -2.87470000000000        5.93970000000000
H           -2.41630000000000       -2.43590000000000        5.03440000000000
H            0.70190000000000        2.86380000000000        3.93680000000000
H           -6.02890000000000       -0.71930000000000        6.36010000000000
H           -0.24760000000000        5.74150000000000        6.88260000000000
H           -5.88180000000000        1.93490000000000       10.11770000000000
H           -2.91750000000000        4.95560000000000       10.45960000000000
H            0.19490000000000       -6.51360000000000        8.65250000000000
H           -1.21250000000000       -6.94990000000000        7.68740000000000
H           -1.13950000000000       -5.37640000000000        8.48210000000000
H           -0.58430000000000       -4.63060000000000        4.83830000000000
H           -1.63010000000000       -4.30460000000000        6.22730000000000
H           -1.64090000000000       -5.89010000000000        5.46970000000000
H            1.71150000000000       -7.00900000000000        6.67230000000000
H            1.48450000000000       -6.16240000000000        5.14820000000000
H            0.34030000000000       -7.41060000000000        5.64280000000000
H            1.30780000000000        0.71240000000000        3.75550000000000
H           -0.37830000000000        0.91750000000000        3.34210000000000
H            0.90030000000000       -1.66120000000000        4.37150000000000
H            0.23210000000000       -1.39600000000000        2.77000000000000
H           -0.83120000000000       -1.43910000000000        4.15330000000000
H            3.18840000000000        0.30930000000000        7.04900000000000
H            2.28590000000000        1.03920000000000        5.75730000000000
H            4.09590000000000       -1.42170000000000        5.48470000000000
H            4.52670000000000        0.20320000000000        4.94500000000000
H            3.21480000000000       -0.67560000000000        4.16340000000000
302
 energy: -414.439644025291 gnorm: 0.073893450022 xtb: 6.7.1 (edcfbbe)
C            2.01937012657653        1.02898517989744        0.59692195434788
C            1.68912500681933       -0.26063126215622        1.00200037640185
C            2.71382401805579       -1.12682755690916        1.50446804883201
C            4.02857740909730       -0.56802010097457        1.62441355390666
C            4.30338085594219        0.72083554028477        1.12937976860571
C            3.31931289075489        1.54220906256073        0.64187533783827
C            2.56028877474875       -2.48924613797037        1.96430755896837
C            3.57350931471524       -2.96309496665566        2.82779688756776
C            4.81169521233413       -2.27665692793865        2.94378158134987
N            5.06129940280293       -1.16442285846641        2.24843620977570
C            1.52146223557044       -3.42996800763340        1.66500576903697
C            1.39484722990360       -4.56068031244578        2.53684867289101
N            2.26465081563525       -4.86310079619855        3.51456857710862
C            3.37986229705903       -4.13532237770769        3.60776556404088
C            4.37103272844220       -4.52801900539390        4.52982160579611
C            5.58165415640498       -3.85813483420910        4.64709981837330
C            5.79873797992479       -2.76030217714239        3.82633477753541
C            0.62392606940443       -3.36658081599220        0.55322305142110
C           -0.43705405932008       -4.28011294448866        0.48587988739767
C           -0.62924749136657       -5.31011913228416        1.40026417880524
C            0.31642432655286       -5.45478883622323        2.39022521507255
O            0.35025001051035       -0.56945075914508        0.99360242071559
C           -3.79938808425081       -2.43347173745454       -0.34747926402365
C           -2.87556047546319       -1.52725325886116        0.17733626716790
C           -3.34173229245132       -0.32541666651317        0.76737419486910
C           -4.71936877456399       -0.32634755878221        1.16574373511485
C           -5.61605481969510       -1.26844746560928        0.61321248625130
C           -5.18283289437845       -2.28893412797694       -0.19905105296066
C           -2.56031172626733        0.84774125393968        1.07238355270337
C           -3.09928979078435        1.64752952507788        2.10986413903365
C           -4.38337667179728        1.37717582970820        2.66230093086642
N           -5.21225394569602        0.48076483052075        2.11736646581051
C           -1.51850242077161        1.43861106275925        0.27792033388014
C           -1.18008707814067        2.79083343167359        0.62094086312667
N           -1.44786213829686        3.35657364077132        1.81560468799426
C           -2.43389450021373        2.82540958874791        2.54279399666286
C           -2.95706801410305        3.57520127328009        3.62119996682026
C           -4.18832786384164        3.28533310914407        4.19282887757852
C           -4.88189047225961        2.18650595147026        3.70194276395737
C           -0.97865314571102        0.96617017960879       -0.98440607674242
C           -0.61959814179960        1.92804949335029       -1.94768223035180
C           -0.49663920373865        3.28265742187396       -1.66837663775748
C           -0.67070077170964        3.67251496725161       -0.35623542060306
O           -1.59175665671130       -1.94854065845231        0.25252439674794
B           -0.33797984552025       -1.28508780371512       -0.11513010549185
N            0.68572917024550       -2.40652895567965       -0.45484797915038
C            2.11178655509084       -3.08556305861398       -2.34003955482667
C            1.90695898481321       -2.12861027613801       -1.17164003614131
N           -0.70957263052639       -0.34012692320884       -1.26577165990430
C           -1.30373064486889       -2.22764490749920       -2.74843481795139
C           -0.68408193367767       -0.84498778839043       -2.61938659457013
C           -4.86007255593260        4.24040236315714        5.18477686830122
C           -5.76715260802706        3.47717973955569        6.16037700747895
C           -3.82797125853359        5.02387914512407        6.00242530812416
C           -5.71108068335523        5.23166031803307        4.37705530522899
C           -0.15044046487118        4.26089052938728       -2.79410008260242
C           -1.27632376597654        4.20053274818439       -3.83919279764791
C           -0.03864106573981        5.70081056408077       -2.27660806280315
C            1.18038718785441        3.87776156241270       -3.46246944137479
C           -6.18173681744609       -3.28259858409520       -0.79930596996183
C           -7.37620422726375       -2.52540266668212       -1.40379537932493
C           -5.54411496100105       -4.12791534892696       -1.91212785454788
C           -6.68467098652891       -4.21790966060647        0.31154775006111
C           -1.77344636608539       -6.32018060658861        1.27333905339996
C           -1.22844461758078       -7.59302031365780        0.60806625577972
C           -2.33755646067563       -6.66936077580250        2.65995730514961
C           -2.92563540933212       -5.76434651269470        0.42772520072095
C            6.61088326795987       -4.32654018317168        5.67740369322321
C            7.88703351185432       -3.47412332790021        5.64547400880191
C            5.99150101608893       -4.21219231946814        7.07641407436796
C            6.98769029902332       -5.78960279892004        5.39924797261953
C            3.67404940322553        2.95110301955046        0.16303825741283
C            4.73241177002175        3.59078820353003        1.07722468480333
H            4.89002478676851        4.63123985097041        0.79784394890022
H            5.69171014735212        3.08545397891900        1.00454538317059
H            4.40594123545240        3.56324254418846        2.11469680506831
C            4.22877070439589        2.84204268711950       -1.26539229646725
H            5.13987879551318        2.24699437174272       -1.28206064061008
H            4.45912289425135        3.82909527512591       -1.66427597757250
H            3.50512901856526        2.36364973863591       -1.92364393901425