116
 energy: -22.928061455056 gnorm: 0.329736929581 xtb: 6.6.1 (8d0f1dd)
C           -3.31122850772930        0.79849766164622       -0.92477639677520
C           -2.44380812530352       -0.12270372891954       -0.27661132624697
C           -1.41337090092821        0.39579727573559        0.56335275196199
C           -0.89266158675590        1.65801491088749        0.27377586709581
C           -1.72665675402493        2.51431363229076       -0.49448366572522
C           -2.95444148494349        2.13954154133227       -1.01494489940871
C           -0.74098268209890       -0.43411532818871        1.49825021926784
C            0.56872586496315        0.03782116815119        1.86248088067890
C            1.03782416582094        1.29402317993033        1.50887470833621
N            0.31238977034758        2.07067427098208        0.65193736800696
C           -1.29695700510141       -1.39996043042223        2.41574187746061
C           -0.38243517664656       -2.18060797534842        3.13232615520648
N            0.91308504082021       -1.90366887689689        3.30325166013478
C            1.37712470144904       -0.74872102533751        2.81811050966982
C            2.52149331701875       -0.17739833758153        3.39379298866852
C            2.95849061756259        1.02681208890480        2.95105897606587
C            2.24288949469137        1.78498308775960        2.03503020483770
C           -2.74860936222260       -1.74497937691422        2.38401158947411
C           -3.09416315450955       -2.91614440870436        3.00571134491758
C           -2.16786021984049       -3.77788778654213        3.63251872101904
C           -0.85708937311598       -3.40495313382985        3.68547234358092
O           -3.71994433332149       -0.94984598373544        1.67726658385724
O           -2.55702603277562       -1.47241711578389       -0.57241635275616
C           -3.84297843593025        3.13357444054366       -1.60938954875544
C           -2.68769581069131       -5.03867041417370        4.30484659386931
H           -1.39666850744143        3.51251503834900       -0.76806311868865
H           -4.27662633836220        0.55105838579656       -1.33106614114542
H            2.66329581305412        2.73912661909249        1.72562431984580
H            3.05775395548473       -0.69369546277216        4.16536137542516
H           -0.24710966264510       -4.12034095424229        4.22946223699121
H           -4.11477991332403       -3.04712728052358        3.03244694615357
O           -4.21824883374556        4.03433712717988       -0.87713382485991
O           -4.44510595673734        2.90643496899600       -2.81853501752979
C           -5.44216520282800        3.83300025693726       -3.02488532025093
C            4.23586651889298        1.50004220933226        3.59165660008449
O            5.05927614697201        0.66079890002952        3.91714215179376
O            4.47001334453535        2.86385149488593        3.72605651435371
C            5.79457498613219        3.08584475587818        4.15829123132174
O           -3.82227255313510       -5.27347675879771        4.16636005494405
O           -1.85023202017753       -5.79767454267276        5.06656077253571
C           -2.55119635829503       -6.86252441382958        5.62930343183426
C           -5.07197156564436       -1.42399175670916        1.58830531863830
C           -1.33089900128490       -2.23622472573986       -0.99264499351172
H           -2.54510546830388       -7.76426885143998        4.99136022291012
H           -3.57194749219491       -6.44405511486021        5.74196173723541
H           -2.09133598235598       -7.02043774843818        6.64022264233588
H            5.72707967266424        3.46798026205549        5.10135971236643
H            6.34060091246885        3.78468702308830        3.50069950143490
H            6.17933064298187        2.03010500085905        4.19342358084693
H           -0.91862729772622       -2.57650129080332       -0.01361370304871
H           -0.49769766914251       -1.60651221708571       -1.34094446550576
H           -1.52632419730509       -2.94569707152159       -1.75361447637286
H           -5.11788846557077       -2.41810833635233        1.17520213188926
H           -5.67929807973498       -0.69619639428435        1.04301666067831
H           -5.57598832326623       -1.42383358739762        2.57928294206544
H           -6.13050215934830        3.76035386975488       -2.23272855695873
H           -5.86615610071888        3.45938329385866       -4.02668959924245
H           -5.13479557532099        4.87790991548477       -2.98314551356402
C           -1.38192942069774        3.73616555005018        2.91232598411686
C           -1.84821468128685        2.59982427735607        3.49755545445181
C           -1.05946531454833        2.05730632010638        4.60922730982276
C            0.19893954712228        2.69376791964407        4.86302140881997
C            0.50425395911860        3.94630308659851        4.28768785650746
C           -0.26031777722226        4.46998310053134        3.25072669343212
C           -1.20488993561782        0.74454293276906        5.14851520323437
C           -0.06287609782692        0.02744069315890        5.60930570802864
C            1.19208754369866        0.71421540266195        5.78882868583885
N            1.19428660993148        2.06344359410476        5.62744624321596
C           -2.41361422770794        0.07928500213936        5.25249410304426
C           -2.45851584031083       -1.32662100968547        5.60237876023992
N           -1.29466212405906       -1.98318595734370        5.89916817085159
C           -0.14475655767527       -1.32117560077092        5.98824682881008
C            0.97209270935794       -1.98958449505532        6.53157704134458
C            2.21982707914082       -1.36973967291181        6.68703967237737
C            2.30561929262884       -0.09745313075593        6.26436900324455
C           -3.73018485967715        0.71367583494582        5.25810242262992
C           -4.89964478833448       -0.06184623426677        5.21204641615509
C           -4.82617965800088       -1.39228978090841        5.46901303780036
C           -3.67144193418464       -1.98914944386360        5.67265433266067
O           -3.75568638935321        2.07705011038914        5.52067969627343
O           -2.94192434743730        1.91263938797883        3.01658762327703
C            0.21273512614467        5.50086066357994        2.34765104514621
C           -6.06660304520411       -2.17604633098929        5.80641622556876
H            1.41756699010566        4.38133362238595        4.66974005703471
H           -1.82880610647429        4.11982501512100        2.06992133318584
H            3.26888037378556        0.32655662585251        6.31721410015598
H            0.87146188387207       -3.08471526305024        6.57830423410869
H           -3.67716811065157       -3.05999292755990        5.83019634570050
H           -5.77379677507622        0.43595144608221        4.71017130754348
O            1.34459852619901        5.82615848916894        2.44941456579099
O           -0.74718748219123        6.07961784856304        1.59848183464284
C           -0.21473095568964        7.24015934882472        1.05753806029483
C            3.53228080814219       -2.00967610361154        7.02506769044485
O            3.64093082622715       -3.14437803815732        7.50071391725347
O            4.56565258381079       -1.22937033368332        6.69086985080897
C            5.72579357310716       -1.80692399125161        7.22246151275881
O           -7.04801223588612       -1.95726935745904        5.14194115322235
O           -6.01514389321278       -2.93743591896022        6.94765316328794
C           -7.21292732384718       -3.62681918543340        7.15115816329978
C           -4.95459780685163        2.65960679932188        5.86868674392943
C           -3.68284113682406        2.59129188358641        2.05479246020704
H           -7.43119628931628       -4.22607794725959        6.20622607140901
H           -8.06548455146707       -2.91765848248592        7.29781126410398
H           -7.07314693247270       -4.33087306029711        7.91223421050944
H            6.57332189837178       -1.29353136199234        6.78341268688262
H            5.74663761932316       -2.84282155125561        6.88089468184451
H            5.69426191474290       -1.72781984964892        8.29460302186842
H           -4.10481209541493        3.44288266176275        2.60483747673152
H           -4.49244774344916        1.87419893016926        1.82433103764650
H           -3.18901540870812        2.85154642679373        1.06781919454921
H           -5.55414326821421        2.76698137191684        4.93950725322359
H           -4.78658370641210        3.62090640967288        6.25983200635257
H           -5.43485580473958        1.97242995129449        6.65265772412460
H            0.89164886030839        7.38838561720231        1.13776105146914
H           -0.62894889903848        8.04195665205089        1.64837664327952
H           -0.59282546386754        7.45699159724320        0.03719083132488
116
 energy: -22.641166189806 gnorm: 0.525085311792 xtb: 6.6.1 (8d0f1dd)
C           -2.81423571588855        0.89111398945438       -1.35294251990899
C           -2.27867283776676       -0.01495668865704       -0.38763476131674
C           -1.16410282234245        0.27306731051051        0.33883771971402
C           -0.68843949330752        1.53849307506444        0.13139824936833
C           -1.39687268361065        2.56488980772680       -0.55919699869304
C           -2.35719105970281        2.22787306298318       -1.42564913297997
C           -0.38304460724959       -0.59847640802621        1.19752495298025
C            0.85670517248117       -0.16081705150660        1.58210781853535
C            1.23142185204575        1.18967837178168        1.42604304332490
N            0.35646408561989        2.04505641452718        0.81839515495986
C           -0.82913283954109       -1.81969898924903        1.81212389926660
C            0.13865572572844       -2.62034229707097        2.57040394326004
N            1.37138423376412       -2.12062632966557        2.67182257453905
C            1.77563956087088       -0.94663128506671        2.18439102919935
C            3.05982217430004       -0.46025852216786        2.57247837283051
C            3.28777954364425        0.96527263227328        2.58058363979220
C            2.29843173218483        1.79770384898661        2.05592552218095
C           -2.24888889117855       -2.10295523202078        2.00090389688365
C           -2.52009497433637       -3.45181800736437        2.08878620879306
C           -1.50410022525387       -4.27449043510331        2.51779002983386
C           -0.20201012700541       -3.86442398297413        2.69935717537616
O           -3.20515365041025       -1.01985014361679        2.01927879262901
O           -2.81353095199418       -1.35511141427994       -0.61103799815799
C           -2.98293699163016        3.20031347689233       -2.34508865893892
C           -1.70446921579783       -5.71031836693595        2.97050244030280
H           -0.85396048672970        3.47630083305507       -0.70413241975151
H           -3.65898679256480        0.54622349865400       -1.98530319684032
H            2.39349016925769        2.83794402577033        1.92740536715072
H            3.69290843259030       -1.29985771757374        2.85884983285898
H            0.57210471181116       -4.53020064984917        2.93735029122102
H           -3.55790518680145       -3.76675965896328        2.00728787921724
O           -2.45200469228770        4.28625355439337       -2.47010009941050
O           -3.97635866476709        2.79192552550427       -3.23419348706803
C           -4.04181175625468        3.91994370432214       -4.16625522045210
C            4.79052414835454        1.29323401944732        2.93149450932531
O            5.19355280178149        1.29370433139462        4.10523182368662
O            5.56725325004481        1.25079520852067        1.78144938522257
C            6.89062940480757        1.10511561204978        2.17650447160546
O           -2.86657304055592       -6.09955021650780        3.31234899556365
O           -0.56284281427457       -6.56172189482783        3.08394525194280
C           -0.93592285543238       -7.95506720148687        3.13092899610547
C           -4.57650000455916       -1.26924852143055        1.72368558633541
C           -1.95086272163846       -2.21439427866402       -1.17853147847935
H           -0.93752012533806       -8.26782989510966        4.24555024370617
H           -0.18713695192914       -8.61854700026923        2.83743055971558
H           -2.02834790234592       -7.96131277741981        3.10488212452382
H            7.33278719158334        1.83694139579603        1.47831696609077
H            6.97420613595883        0.10414779571641        2.19599395888331
H            7.02823357129453        1.34632292598738        3.25614872517771
H           -1.49491687629837       -2.62085369500268       -0.24137651278721
H           -1.24962755809565       -1.66919008226040       -1.66985898368187
H           -2.38279564834176       -2.88397763691274       -2.00945296506511
H           -4.52761989017977       -2.09464638474816        1.09608538547819
H           -5.17139694008350       -0.48488537535945        1.32035053394414
H           -5.00549048386991       -1.39162369464012        2.62179646823422
H           -3.89087986914955        4.99840252281312       -3.66966154889130
H           -5.06016688229417        3.94899426928716       -4.63852972686123
H           -3.15257880018655        3.96444117387612       -4.89549971542158
C           -2.32475943297859        3.80159250536965        3.51199429110101
C           -2.63449670322056        2.72643203207306        4.29928354588637
C           -1.49254376905722        2.24000709787503        4.87792238344755
C           -0.18972572044230        2.77892092561207        4.93553586279099
C            0.04592972157394        3.87066624046484        4.22104445728070
C           -1.01173437555271        4.36809319295777        3.43815910989181
C           -1.69077133063700        1.14645926302791        5.69567303256406
C           -0.46611271378706        0.41602876174842        5.94548089020801
C            0.76331699455833        1.05997971970705        5.98218323110741
N            0.87087319270922        2.37776283894907        5.74394515929203
C           -2.93163703817249        0.54432971181850        6.18835024633102
C           -2.79382972013534       -0.81170593630974        6.48713605458583
N           -1.69683178548395       -1.56321020366351        6.48490575939068
C           -0.50465134044966       -0.90575037468314        6.37155358212652
C            0.78242439198133       -1.50410170660733        6.79750574651744
C            1.94476947073165       -0.84122033845923        6.98785589675623
C            1.88581268228507        0.43972740201446        6.56363109008723
C           -4.03463263303308        1.35341243899778        6.64813516110305
C           -5.24580739960953        0.68474169634470        6.91162613747774
C           -5.33487104350816       -0.70182635317635        6.66421711342177
C           -4.13559974019975       -1.44878323852068        6.56490110579322
O           -3.86765589275619        2.69753845905190        7.06425181287535
O           -3.90316637365627        2.11668911724289        4.24959025678543
C           -0.92131884326481        5.73203424284901        2.74719425192364
C           -6.61789643761382       -1.39262985244567        6.80336299976069
H            0.81311891461571        4.56206637820281        4.53065552446841
H           -3.15240287664119        4.11546133836689        2.91792678762601
H            2.86868210702097        1.05212270826903        6.51120854064511
H            0.83409269985161       -2.44062008165573        7.18306571991903
H           -4.31289899958686       -2.48075248447627        7.01808284642564
H           -5.99488016963064        1.23671707711991        7.16228143338572
O           -0.01705572652207        6.46768506909975        3.32641362633304
O           -1.52894459799438        5.80123140139223        1.46186329184855
C           -1.63159272529072        7.17116475675922        1.04850658681413
C            3.07972375046952       -1.72078156482785        7.48059633226027
O            2.70407533144162       -2.84012589344871        7.68271072414889
O            4.33280709529139       -1.04843870685191        7.70887346019817
C            5.35701753705030       -1.88649020207838        8.29125150974924
O           -7.52573462371820       -1.48265276856249        5.94557125928769
O           -6.87091371651582       -2.25437077313417        7.86349370650145
C           -7.94627912939140       -3.19801642252358        7.50165777607594
C           -4.91560333568590        3.23796099520374        7.76873579690547
C           -4.69079307173080        1.93024569310534        3.09061814476418
H           -7.68744461816630       -4.25528745832682        7.38304787799734
H           -8.61457533153579       -2.99438632715468        6.66517416191466
H           -8.47030218599651       -3.11171525361304        8.58498700564719
H            6.23842092677995       -1.85511925376939        7.65143811297340
H            4.95483006398497       -2.80195845444098        8.18194817510050
H            5.42216534847172       -1.69366689751866        9.36210369919351
H           -5.75999066230383        2.29809849898083        3.05438256381240
H           -4.85999240626892        0.80728515471499        3.04334137363274
H           -4.37119837073373        2.36794324943596        2.18311437517197
H           -5.86518244925599        3.08081972681403        7.47836243476310
H           -4.74784566846129        4.32633292389253        7.77571772912222
H           -4.72370346799759        2.96167419916338        8.81381171627627
H           -2.70320425328043        7.60251370854811        1.06475817370959
H           -1.15566805143120        7.30892800733767        0.09472981027570
H           -1.15891726677533        7.85012222182509        1.73992589223855
116
 energy: -22.744740399620 gnorm: 0.429605559733 xtb: 6.6.1 (8d0f1dd)
C           -2.46146192249218        0.62043237848645       -0.89646634135046
C           -1.64195204597150       -0.28739062329877       -0.21148217397953
C           -0.68461901563310        0.29320775666421        0.70815742422115
C           -0.33121499755875        1.66426893506253        0.76274464365168
C           -1.29338182292787        2.51266479798983        0.09032736323547
C           -2.24901404147131        1.95890354410333       -0.78854717556202
C            0.00722261546042       -0.55550652869687        1.58262467016229
C            1.25196425366961       -0.15523091993497        2.02761679076526
C            1.62208187677448        1.21396917781771        1.82292610957814
N            0.71437172218729        2.16250135959997        1.47028393844727
C           -0.55803739680350       -1.66570876441136        2.21690582369816
C            0.40974774093746       -2.55552533068168        2.72441788400761
N            1.70708882705903       -2.42885075128170        2.78279557020651
C            2.14405408954124       -1.16516577441292        2.48093388528211
C            3.41852001943355       -0.67583464015576        2.82652983448871
C            3.72435824727261        0.64083443105095        2.88661678889446
C            2.79719770223815        1.56721315075402        2.43668091733309
C           -1.90284802671952       -2.07678599983562        2.06568375319634
C           -2.26327212027076       -3.37855860679594        2.20530401462212
C           -1.33864920501488       -4.29264466181931        2.67465468713089
C           -0.08912997627197       -3.86249982634161        3.05640209485064
O           -3.01078200205072       -1.22040914580093        1.84230705908460
O           -1.73044086574705       -1.60602985652158       -0.57886067904546
C           -3.05772997094335        3.02314726557281       -1.35071067413499
C           -1.56043004211664       -5.72946853894802        2.62540936390024
H           -1.33763963334274        3.56541434678772        0.25569213313758
H           -3.33431145090012        0.36189460822213       -1.47822238758953
H            3.23776393643614        2.51097716425921        2.33065562436675
H            4.30100669372476       -1.29602127584642        3.07508387037558
H            0.61346767269801       -4.60986459489278        3.32018684501262
H           -3.21642462321743       -3.65999451423807        1.86659203000874
O           -3.52660985087469        3.85826369974444       -0.53909263113491
O           -3.03607972902840        3.00593790722342       -2.71709664707918
C           -3.81974847552215        4.01620769567297       -3.22744844191490
C            5.08039601917412        1.08519265910407        3.11947922680582
O            6.03223886471970        1.01337624331170        2.39243390506978
O            5.16772903836562        1.57180133667242        4.35577401145086
C            6.57154769435916        1.84021823811201        4.53914298946373
O           -2.64484931475680       -6.13151332994314        2.32891088307376
O           -0.37154059959013       -6.55856457969812        2.76944428739771
C           -0.62019876788518       -7.85540515863115        2.56860126709757
C           -3.52904531330746       -0.95167171767403        3.21683964054831
C           -2.97938540365833       -2.04395472954197       -1.03564688048472
H           -1.70218187058241       -8.15519069733111        2.73361030613928
H            0.20080064811858       -8.44927463493416        2.77417316268493
H           -0.63855861518085       -8.01411612090463        1.51528187757764
H            7.03212462991075        1.88682026846869        3.59485648496447
H            7.03867855572486        1.29455181256105        5.36699198337650
H            6.49644006781732        2.80095969400152        4.89144055950170
H           -2.71731918672269       -3.08156761285635       -0.97728582533840
H           -3.16291451345412       -1.65833639586074       -2.10756231693286
H           -3.81703896390187       -1.75874405885010       -0.38527073667430
H           -4.54108611306558       -0.94248004025454        3.08435440969467
H           -3.14987645793873       -0.04060124400979        3.67508211318638
H           -3.29672756269460       -1.72982779405443        3.98082891635670
H           -4.80184065839755        3.91446827979712       -2.74325052466718
H           -3.72155608230960        4.37648601904924       -4.33229845246576
H           -3.57881101174689        4.86876549750972       -2.61743143170345
C           -2.73750739996276        3.74550940212256        2.73105172181424
C           -2.84089324448450        2.58607473536328        3.49795507175081
C           -1.77622557623121        2.16890861483309        4.45573348967629
C           -0.50201693102426        2.69982538413422        4.26448511476956
C           -0.53599696403077        3.94853098093811        3.58789558556963
C           -1.55080952660179        4.42824949631852        2.75002771227143
C           -1.88216346998538        1.07990301215783        5.36145994649823
C           -0.67376318073664        0.44775944630157        5.59366742393728
C            0.60611104488491        1.10270455280470        5.48328231849245
N            0.65989799186984        2.25705493151394        4.78573009788506
C           -3.04004321945834        0.59424109743170        6.13093736169772
C           -3.07201246813823       -0.81291402065703        6.44361481580763
N           -1.89480296045998       -1.50314780680527        6.47672672995953
C           -0.77917295669108       -0.84498179488424        6.14000594716008
C            0.36668121851496       -1.55101995404886        6.36546518839552
C            1.58982074156009       -0.92922142025706        6.22989660718744
C            1.84342714029214        0.39458359599134        5.99818207260916
C           -4.24302968561462        1.28838008326227        6.41804379554321
C           -5.46736132260601        0.66506900774126        6.62741539458134
C           -5.37758225972378       -0.69791274938459        6.98257375456170
C           -4.20149973469034       -1.41620236924743        6.85564596908476
O           -4.27266345618382        2.71527533596954        6.37804351245203
O           -3.95593892529974        1.66494396573927        3.57854770924771
C           -1.09865779343004        5.65998689384543        2.06753021625761
C           -6.63583507493555       -1.28982489269612        7.63922361612955
H            0.47660168939588        4.42323103162112        3.73354089084934
H           -3.39215502867505        4.17443223377938        1.99377172049942
H            2.85290387921275        0.73170686604589        6.01849603384964
H            0.39418662655823       -2.52093065841517        6.81064574156296
H           -4.05124158551933       -2.36134929507989        7.20168088951287
H           -6.38371342136834        1.26299754398129        6.82495237491378
O            0.06423880746962        5.85761211441213        1.80842740334158
O           -2.14883588199787        6.48856158308384        1.68538331461554
C           -1.84305512200548        7.62394911422003        0.98974408223582
C            2.70394848672987       -1.90749164774814        6.59179331563187
O            2.49011783218204       -2.91717552155530        7.28946756554174
O            3.92352082889068       -1.54221737848062        6.16106604434288
C            4.97011940487374       -2.49641219274123        6.46617274014840
O           -7.39142854481741       -0.74889375805078        8.40862517580018
O           -6.99494075870197       -2.48768140817780        6.84215242589650
C           -8.09785501428918       -2.88930072320218        7.48162915738532
C           -5.34328237308262        3.52857012519567        6.98127845468134
C           -4.81884123215895        1.96594750776051        2.50284344353825
H           -7.66958863250359       -3.00260890245306        8.54225494228089
H           -8.55146508020767       -3.95148391805731        7.30137777972265
H           -8.68269294415670       -2.00054800526967        7.41365538602643
H            4.88121284562998       -3.52025774238783        6.00109286167681
H            5.02602019611807       -2.48577605979578        7.59295948858769
H            6.12467570920395       -2.14289528992049        6.27834474780069
H           -4.76510308969954        1.15940986996336        1.65015462775125
H           -4.85845531244123        2.98216270761814        2.15997654207603
H           -5.84168470963546        1.82340429901522        2.90093415058623
H           -6.25456379700027        3.17399044150630        6.80866123600724
H           -5.28076079777739        4.59346351059641        6.80094448051954
H           -5.08122629825685        3.65583446388191        8.10301410393447
H           -0.75915066057929        7.68129498873694        0.65154286570369
H           -2.17032257202346        8.40058328547984        1.70232829990105
H           -2.41540748571706        7.29600060973130        0.01321824775889
116
 energy: -22.753947572464 gnorm: 0.485463994400 xtb: 6.6.1 (8d0f1dd)
C           -2.85910222436506        0.56854175005582       -0.54051746086179
C           -1.85727287493762       -0.37470949346932       -0.24830139601331
C           -0.65745162357151        0.13115305326721        0.29706932940870
C           -0.23925611082440        1.51708666250924        0.22154438773105
C           -1.24399159523818        2.36186750497672       -0.29910992097345
C           -2.58996700094383        1.92116278175608       -0.43899481495583
C            0.19223895129498       -0.75678894929918        1.02995077125173
C            1.51723126611723       -0.23472896732416        1.31645048254261
C            1.70843968424448        1.21347875345716        1.20389352410024
N            0.83920347186875        2.03475505152542        0.74065690445184
C            0.00317421261928       -2.19490701618696        1.36705809453362
C            1.15166662148333       -2.96002644243391        1.73469625185442
N            2.39386876894683       -2.51447323096612        1.87846472101144
C            2.50310067212888       -1.17177170954929        1.76021391567342
C            3.56991892546812       -0.57976589281848        2.36763977164255
C            3.70728392167006        0.80593658058141        2.44435233859855
C            2.72621714643317        1.67912565604920        2.01166076048065
C           -1.32966772879294       -2.71231336100987        1.73624991726342
C           -1.37983661785380       -4.13949364677532        2.07586680511941
C           -0.22868585809523       -4.85984863788579        2.37502975256868
C            0.99566703933147       -4.27948007754559        2.15933700230175
O           -2.57361680071654       -2.03443818220080        1.75110247319312
O           -1.96232216984328       -1.69514946128877       -0.62020538655334
C           -3.75399782611384        2.86426415310142       -0.72254086722459
C           -0.39895321511667       -6.11195684866202        3.07804813268214
H           -0.97720881820535        3.38775018532907       -0.28132814700635
H           -3.87529622816447        0.17408351229122       -0.55130275743677
H            2.66049137494334        2.71892905509098        2.25650271119175
H            4.44256226165491       -1.13204817981469        2.79892629157597
H            1.86031640188350       -4.74946734831274        2.46594298111072
H           -2.26241400329000       -4.64575604251685        1.99038435956162
O           -4.83258631517458        2.51435213912320       -1.14200326171432