116
 energy: -22.928061455056 gnorm: 0.329736929581 xtb: 6.6.1 (8d0f1dd)
C           -3.31122850772930        0.79849766164622       -0.92477639677520
C           -2.44380812530352       -0.12270372891954       -0.27661132624697
C           -1.41337090092821        0.39579727573559        0.56335275196199
C           -0.89266158675590        1.65801491088749        0.27377586709581
C           -1.72665675402493        2.51431363229076       -0.49448366572522
C           -2.95444148494349        2.13954154133227       -1.01494489940871
C           -0.74098268209890       -0.43411532818871        1.49825021926784
C            0.56872586496315        0.03782116815119        1.86248088067890
C            1.03782416582094        1.29402317993033        1.50887470833621
N            0.31238977034758        2.07067427098208        0.65193736800696
C           -1.29695700510141       -1.39996043042223        2.41574187746061
C           -0.38243517664656       -2.18060797534842        3.13232615520648
N            0.91308504082021       -1.90366887689689        3.30325166013478
C            1.37712470144904       -0.74872102533751        2.81811050966982
C            2.52149331701875       -0.17739833758153        3.39379298866852
C            2.95849061756259        1.02681208890480        2.95105897606587
C            2.24288949469137        1.78498308775960        2.03503020483770
C           -2.74860936222260       -1.74497937691422        2.38401158947411
C           -3.09416315450955       -2.91614440870436        3.00571134491758
C           -2.16786021984049       -3.77788778654213        3.63251872101904
C           -0.85708937311598       -3.40495313382985        3.68547234358092
O           -3.71994433332149       -0.94984598373544        1.67726658385724
O           -2.55702603277562       -1.47241711578389       -0.57241635275616
C           -3.84297843593025        3.13357444054366       -1.60938954875544
C           -2.68769581069131       -5.03867041417370        4.30484659386931
H           -1.39666850744143        3.51251503834900       -0.76806311868865
H           -4.27662633836220        0.55105838579656       -1.33106614114542
H            2.66329581305412        2.73912661909249        1.72562431984580
H            3.05775395548473       -0.69369546277216        4.16536137542516
H           -0.24710966264510       -4.12034095424229        4.22946223699121
H           -4.11477991332403       -3.04712728052358        3.03244694615357
O           -4.21824883374556        4.03433712717988       -0.87713382485991
O           -4.44510595673734        2.90643496899600       -2.81853501752979
C           -5.44216520282800        3.83300025693726       -3.02488532025093
C            4.23586651889298        1.50004220933226        3.59165660008449
O            5.05927614697201        0.66079890002952        3.91714215179376
O            4.47001334453535        2.86385149488593        3.72605651435371
C            5.79457498613219        3.08584475587818        4.15829123132174
O           -3.82227255313510       -5.27347675879771        4.16636005494405
O           -1.85023202017753       -5.79767454267276        5.06656077253571
C           -2.55119635829503       -6.86252441382958        5.62930343183426
C           -5.07197156564436       -1.42399175670916        1.58830531863830
C           -1.33089900128490       -2.23622472573986       -0.99264499351172
H           -2.54510546830388       -7.76426885143998        4.99136022291012
H           -3.57194749219491       -6.44405511486021        5.74196173723541
H           -2.09133598235598       -7.02043774843818        6.64022264233588
H            5.72707967266424        3.46798026205549        5.10135971236643
H            6.34060091246885        3.78468702308830        3.50069950143490
H            6.17933064298187        2.03010500085905        4.19342358084693
H           -0.91862729772622       -2.57650129080332       -0.01361370304871
H           -0.49769766914251       -1.60651221708571       -1.34094446550576
H           -1.52632419730509       -2.94569707152159       -1.75361447637286
H           -5.11788846557077       -2.41810833635233        1.17520213188926
H           -5.67929807973498       -0.69619639428435        1.04301666067831
H           -5.57598832326623       -1.42383358739762        2.57928294206544
H           -6.13050215934830        3.76035386975488       -2.23272855695873
H           -5.86615610071888        3.45938329385866       -4.02668959924245
H           -5.13479557532099        4.87790991548477       -2.98314551356402
C           -1.38192942069774        3.73616555005018        2.91232598411686
C           -1.84821468128685        2.59982427735607        3.49755545445181
C           -1.05946531454833        2.05730632010638        4.60922730982276
C            0.19893954712228        2.69376791964407        4.86302140881997
C            0.50425395911860        3.94630308659851        4.28768785650746
C           -0.26031777722226        4.46998310053134        3.25072669343212
C           -1.20488993561782        0.74454293276906        5.14851520323437
C           -0.06287609782692        0.02744069315890        5.60930570802864
C            1.19208754369866        0.71421540266195        5.78882868583885
N            1.19428660993148        2.06344359410476        5.62744624321596
C           -2.41361422770794        0.07928500213936        5.25249410304426
C           -2.45851584031083       -1.32662100968547        5.60237876023992
N           -1.29466212405906       -1.98318595734370        5.89916817085159
C           -0.14475655767527       -1.32117560077092        5.98824682881008
C            0.97209270935794       -1.98958449505532        6.53157704134458
C            2.21982707914082       -1.36973967291181        6.68703967237737
C            2.30561929262884       -0.09745313075593        6.26436900324455
C           -3.73018485967715        0.71367583494582        5.25810242262992
C           -4.89964478833448       -0.06184623426677        5.21204641615509
C           -4.82617965800088       -1.39228978090841        5.46901303780036
C           -3.67144193418464       -1.98914944386360        5.67265433266067
O           -3.75568638935321        2.07705011038914        5.52067969627343
O           -2.94192434743730        1.91263938797883        3.01658762327703
C            0.21273512614467        5.50086066357994        2.34765104514621
C           -6.06660304520411       -2.17604633098929        5.80641622556876
H            1.41756699010566        4.38133362238595        4.66974005703471
H           -1.82880610647429        4.11982501512100        2.06992133318584
H            3.26888037378556        0.32655662585251        6.31721410015598
H            0.87146188387207       -3.08471526305024        6.57830423410869
H           -3.67716811065157       -3.05999292755990        5.83019634570050
H           -5.77379677507622        0.43595144608221        4.71017130754348
O            1.34459852619901        5.82615848916894        2.44941456579099
O           -0.74718748219123        6.07961784856304        1.59848183464284
C           -0.21473095568964        7.24015934882472        1.05753806029483
C            3.53228080814219       -2.00967610361154        7.02506769044485
O            3.64093082622715       -3.14437803815732        7.50071391725347
O            4.56565258381079       -1.22937033368332        6.69086985080897
C            5.72579357310716       -1.80692399125161        7.22246151275881
O           -7.04801223588612       -1.95726935745904        5.14194115322235
O           -6.01514389321278       -2.93743591896022        6.94765316328794
C           -7.21292732384718       -3.62681918543340        7.15115816329978
C           -4.95459780685163        2.65960679932188        5.86868674392943
C           -3.68284113682406        2.59129188358641        2.05479246020704
H           -7.43119628931628       -4.22607794725959        6.20622607140901
H           -8.06548455146707       -2.91765848248592        7.29781126410398
H           -7.07314693247270       -4.33087306029711        7.91223421050944
H            6.57332189837178       -1.29353136199234        6.78341268688262
H            5.74663761932316       -2.84282155125561        6.88089468184451
H            5.69426191474290       -1.72781984964892        8.29460302186842
H           -4.10481209541493        3.44288266176275        2.60483747673152
H           -4.49244774344916        1.87419893016926        1.82433103764650
H           -3.18901540870812        2.85154642679373        1.06781919454921
H           -5.55414326821421        2.76698137191684        4.93950725322359
H           -4.78658370641210        3.62090640967288        6.25983200635257
H           -5.43485580473958        1.97242995129449        6.65265772412460
H            0.89164886030839        7.38838561720231        1.13776105146914
H           -0.62894889903848        8.04195665205089        1.64837664327952
H           -0.59282546386754        7.45699159724320        0.03719083132488
116
 energy: -22.602485989173 gnorm: 0.551999387445 xtb: 6.6.1 (8d0f1dd)
C           -2.90474255310757        0.44274981025576       -1.46559951216258
C           -2.08495066935609       -0.38138776580095       -0.61037469127772
C           -1.27893945000834        0.15287079546580        0.46139520686685
C           -0.97308249792830        1.58053196147388        0.37548752381813
C           -1.86380956943984        2.44967815675425       -0.23783307462379
C           -2.90263427392119        1.89513987156896       -1.08585138597542
C           -0.61775508732206       -0.56310657589063        1.50885889351926
C            0.66925563512110       -0.13057184271794        1.84966461101141
C            0.96588565653271        1.25246467116084        1.62125175231459
N            0.03813332639892        2.09430975637956        1.13252197486360
C           -1.04621374492562       -1.82094379466081        1.98826087157102
C           -0.05591546554086       -2.42604375318977        2.93401877274058
N            1.25200128292778       -2.07437216867535        3.11550981738918
C            1.54818645554028       -0.88953155883804        2.58294349062408
C            2.73764258471858       -0.36244956486117        3.03890636293080
C            3.01277298663167        0.99410692580503        2.84914218246051
C            2.20206143691535        1.91114323195103        2.01589845930783
C           -2.42378153383454       -2.28521460562053        2.09005864393062
C           -2.58995409804609       -3.60643407544677        2.78173709912798
C           -1.59422456513678       -4.07207262044696        3.58965756402732
C           -0.35515543723665       -3.50521165360372        3.64939637541902
O           -3.33571078783882       -1.16907477466383        2.20972672507247
O           -1.84148360173320       -1.64595235186697       -1.07579103274830
C           -3.88720576637494        2.81174513676240       -1.68573131112804
C           -1.89289588315984       -5.24792378949558        4.47350171632141
H           -1.89833822064839        3.63063486479723       -0.03491508391570
H           -3.08373798001612        0.14743451819664       -2.44305406521214
H            2.34097094711005        2.92481116787998        1.72024217538554
H            3.09655511501889       -0.94576030419528        3.90839757089322
H            0.25313208279004       -4.11507763121132        4.23527607894757
H           -3.47460598900726       -4.20890137840765        2.71384158348873
O           -3.78972427079816        3.39424544400005       -2.69693254934305
O           -5.00158337527414        2.93033456684845       -0.76943941393873
C           -6.04000377881290        3.59030126202216       -1.38440881625136
C            4.29141227330820        1.68794453524432        3.28834575600835
O            4.42974293181669        1.77636594691142        4.47770398748826
O            5.34087960165849        1.95195732972420        2.45519824007949
C            6.09475350088056        3.11025329823768        2.61882300955987
O           -3.08163712215258       -5.73800331411247        4.30423503581775
O           -0.98287142329691       -5.92388082487834        5.27847567276492
C           -1.59358935794296       -7.15116206130562        5.73411294573487
C           -4.75030776889490       -1.23198466456024        1.87583594820011
C           -0.50933732847661       -2.05927358180478       -1.25397488355926
H           -2.62490194845261       -7.40836948372556        5.32832086893115
H           -1.88911839623882       -6.86320880259128        6.75393679135539
H           -0.64087610966407       -7.79540224803657        5.61946128183754
H            5.58782456299471        3.71679841289586        3.34116067256532
H            5.93339103574043        3.66925022794313        1.73237674736252
H            7.18769868506370        2.81176799743019        2.74455769547008
H           -0.32675645628218       -3.07577880248627       -1.18812240496265
H            0.07619558642821       -1.49796970140679       -0.63993771790956
H           -0.12549306862668       -1.49395569362157       -2.08826947819360
H           -5.46913675890240       -0.69373915122250        2.51518241523805
H           -5.08770687095790       -2.26377654653032        2.10465972251226
H           -5.03064899924722       -1.01747774741354        0.76866735349413
H           -5.73550699564025        4.60918615924622       -1.44415055427323
H           -7.11429439574761        3.49655386393141       -0.77270689197718
H           -6.07319269210655        3.22950766091457       -2.38841934067745
C           -2.15180735323030        3.79068165633013        3.45381170078292
C           -2.47812519529055        2.73197772190076        4.17908362553389
C           -1.37053400197180        2.24078338437832        4.98747507736535
C           -0.13011093132305        2.80068430922676        4.93484395253249
C            0.21871852654556        3.96801368339736        4.24222489843732
C           -0.87250192798928        4.41884926649550        3.48653633619969
C           -1.56217822505589        1.03803017464710        5.73315579144995
C           -0.47382098624179        0.14212277188224        6.04199183864448
C            0.70025966898957        0.66671198807860        5.68640554051430
N            0.87756290774964        1.90908480180085        5.35376437222595
C           -2.82696199508115        0.43656041925100        6.04659930954423
C           -2.93426861951819       -1.01293207972648        6.18068660842218
N           -1.79264769144003       -1.69166363068321        6.40159104169399
C           -0.55457856105722       -1.13804306466638        6.50265884511232
C            0.64354297343009       -1.73887162967047        6.80568658669772
C            1.91999032877219       -1.28583915552836        6.59252826688708
C            1.99702248703637        0.08794660161032        6.03572752737948
C           -3.99204599533155        1.18598114818510        6.31014455193555
C           -5.19366386857226        0.67066287752952        6.12338258072657
C           -5.17710931878951       -0.68405686582114        5.66406872830641
C           -4.08054688521629       -1.62405359211706        5.67761801647612
O           -3.97278750637868        2.60394291324467        6.68376121841087
O           -3.74746289072758        2.06826586469292        4.11527829623436
C           -0.78726844180545        5.63397597844034        2.67689284272573
C           -6.36791206399270       -1.13819349628284        4.86809416042794
H            1.16252709108431        4.57603741099267        4.19524445059588
H           -2.79684429004944        4.19386652077703        2.67495535616037
H            2.91844311510521        0.67898862621811        5.87134105239905
H            0.62447385366563       -2.72369323537512        7.29301764040626
H           -4.24445796290747       -2.61992325186029        5.38755944865238
H           -5.97885494624926        1.32532441737070        5.88864523441881
O           -1.31099126968881        6.69651093241461        2.92644038341374
O            0.29828770842134        5.63171656150298        1.82614538806697
C            0.50397634144308        6.91236922078829        1.39225964216705
C            3.08147582360789       -2.18176450869178        6.75141318404721
O            3.20054326966947       -3.08555699162090        7.60730783778319
O            4.09990254983111       -2.06434711499461        5.75564431080066
C            5.37003710765205       -2.38316760886030        6.27765284198982
O           -6.93718835131047       -0.36636820804028        4.12507258302590
O           -6.68504534121381       -2.45504521812854        4.77750648643676
C           -7.70262209625041       -2.83896930956806        3.96065149473331
C           -2.82864157695658        2.94944937117153        7.46649132383817
C           -3.76828775718451        1.20935930802715        3.03587360103771
H           -7.35383026434431       -3.38380646549672        3.19011331067279
H           -8.04644206958620       -1.92719025403748        3.59789882412245
H           -8.58740527675966       -3.45516640471817        4.18634131953456
H            5.82069869859144       -1.42393068875087        6.50853247736226
H            5.99632998916827       -3.08437247994169        5.64724847026895
H            4.97799229544706       -3.10377939726910        7.08322043276335
H           -4.15921799142190        0.16473373298661        3.17268355731941
H           -2.88866444995750        0.97356913986007        2.55399453474621
H           -4.52424548601306        1.54465038940787        2.29079782589284
H           -2.74632025509176        2.33043197547564        8.27028218159274
H           -2.87737804855564        4.16005242287138        7.67218756025285
H           -1.84105370425234        2.73183946353128        7.05728769552265
H            0.03915715351142        7.60421149778034        2.21613911776328
H           -0.33547207178053        7.06133906955264        0.74287443416500
H            1.32151727510922        7.15740704769600        0.84859186075158
116
 energy: -22.639468083963 gnorm: 0.490753948366 xtb: 6.6.1 (8d0f1dd)
C           -3.16738064852391        0.09749085702535       -0.79552364613300
C           -2.22098113057769       -0.58806739554310       -0.15376725647645
C           -1.20693869107695        0.06015717008749        0.74174089011606
C           -0.88099493887670        1.39680892297541        0.50459136557984
C           -1.82073349566057        2.13393061143002       -0.16804295017382
C           -3.03181893825243        1.57278697139845       -0.61185476186113
C           -0.53514059053581       -0.77381480127652        1.74812110730250
C            0.79914460841594       -0.29465735130296        2.04227930356591
C            1.09112742874162        1.12404492545481        1.85437964968515
N            0.22980737704818        1.93078006028063        1.18038220835176
C           -0.79419193497696       -2.04248511528639        2.35192225878200
C            0.27019347531444       -2.91468846132703        2.70778260656420
N            1.57603297543902       -2.52097005937436        2.76025482966907
C            1.88579003528020       -1.21289687634552        2.54311081664728
C            3.15191375188328       -0.70798591778450        2.82726914630664
C            3.30777527091154        0.71105210858955        2.78555757982710
C            2.40613564132295        1.59437373643225        2.17498657152972
C           -2.15680411630348       -2.26851103798903        2.75677933515264
C           -2.54376363504305       -3.51540114931997        3.17410842900198
C           -1.54088461523454       -4.42239081469415        3.64269766415424
C           -0.16153278460823       -4.06719270319244        3.46136979965003
O           -3.04044316462233       -1.16284032902304        2.65369816150141
O           -2.33528289130182       -1.95043376019824       -0.26779920828806
C           -4.05223654109134        2.57704898638923       -1.07040012082792
C           -1.67850193962808       -5.72733822352378        4.35410037446941
H           -1.79532693686290        3.25876208343170       -0.10186717079350
H           -3.85418332483828       -0.35488028392778       -1.46989747933131
H            2.72193339814512        2.64161164386333        2.12653564379211
H            3.87874482809490       -1.49264746187051        3.06730540530449
H            0.71792996960717       -4.58418174053490        3.90358474210507
H           -3.59585026549571       -3.81657927789893        3.45904525974628
O           -5.23479969335411        2.37286333702892       -0.84188345179153
O           -3.52144469097579        3.71707365629397       -1.58319377592146
C           -4.47242786794385        4.67039674383613       -1.54151879921270
C            4.74887101795365        1.31816262558164        2.88737901226841
O            5.75042454219042        0.85406849591379        3.43818688959438
O            4.71491184916315        2.60809367173451        2.39473287058041
C            5.98003562046098        3.28706077933642        2.33118171920973
O           -2.56675084108604       -6.46614411393819        4.43483024173289
O           -0.27374365739445       -6.08309497045873        4.76131394305130
C           -0.02973392922231       -7.02896158416214        5.70768437079156
C           -4.15918544804831       -1.13966077888161        1.80802087659496
C           -1.71306602722022       -2.36348461357701       -1.61641760689896
H           -0.96088351468366       -7.51012321344923        6.11987374678980
H            0.73918266701746       -7.04357439211940        6.49548061013487
H            0.10918411293921       -7.93241014545522        5.07816512622067
H            6.90529573692964        2.78475508541219        1.93669128399273
H            5.99999781215378        3.95574051277442        3.21265029288455
H            5.91410578904933        3.93543365565277        1.50062888889292
H           -0.76048534855889       -2.00584793036503       -1.43467644116922
H           -2.22005311718946       -1.97370919932184       -2.45827397863672
H           -1.79290795237986       -3.40710384916492       -1.66226748658597
H           -4.94305766687287       -0.93527330920810        2.53896416380425
H           -4.40391054596080       -2.21475305717463        1.49473690951744
H           -4.02469329842470       -0.45351306567644        0.95214149523891
H           -5.31767280241451        4.35361862306757       -0.87908815646425
H           -4.68748307367736        4.69355512036349       -2.75135580438686
H           -4.05988718728169        5.57793528561850       -1.20681174792258
C           -2.11654347521027        4.24415596421317        3.31143391805858
C           -2.40396851510941        2.96601041174051        3.89666737688501
C           -1.45828575190660        2.23658459623283        4.75424921712306
C           -0.11074326934855        2.66806033724309        4.85494097010725
C            0.24139095156272        3.95671859905135        4.44499076489184
C           -0.68655702892178        4.55627024683300        3.50512843850154
C           -1.83016265543814        0.96678211096379        5.40387132053598
C           -0.73542221934005        0.13518525667989        5.75493316328472
C            0.53721060782770        0.84993375947447        6.00043635740098
N            0.80966136430078        2.12110516739814        5.59675393996815
C           -3.09521448700650        0.48621425673138        5.69366991450268
C           -3.15282607424954       -0.96577819991834        5.98420005797314
N           -2.15849031615156       -1.87291842563684        6.06765214218717
C           -0.96546366719950       -1.26475199153447        5.88179849109278
C            0.26493815101637       -2.18825432427592        5.95971938786807
C            1.32601254651575       -1.38079335120233        6.22291015528870
C            1.51348283274189       -0.03144492833825        6.48428941640392
C           -4.35669423006178        1.21374023367774        5.59860387968884
C           -5.55948103878437        0.51524975789946        5.58303332307403
C           -5.58053298602249       -0.86132313112451        5.62739420122422
C           -4.42643433463017       -1.56131221576739        5.81120947173456
O           -4.75396970250811        2.50666108055455        5.92655569152742
O           -3.57693831733601        2.29701760443289        3.43391391376068
C           -0.30762751149713        5.82212049651192        2.80477126894069
C           -6.87981316898059       -1.68289216451193        5.63411141655882
H            1.08177610823927        4.64723800486868        4.63271890933430
H           -2.80679619578181        4.97099279585738        2.85806371844731
H            2.50778097110626        0.29398543536333        6.39657244565204
H            0.32620082003664       -3.21964416178887        6.10035521054366
H           -4.31976328983443       -2.56106589139817        5.47688201397350
H           -6.52739525575800        0.92317391736828        5.61017479035915
O           -0.75876884954794        6.08913760117046        1.72502952145117
O            0.66113501177838        6.46873803919403        3.43021455988438
C            1.20036599656051        7.48842013416566        2.61479051723999
C            2.70288599577723       -1.97077496754562        6.48944990195299
O            2.99053523511190       -2.97461951028871        5.86859013267442
O            3.65746614224663       -1.01700783798102        6.94519796602578
C            4.78346198568309       -1.09195582385455        6.17542809614967
O           -7.66724566295684       -1.34171707343678        6.48630643461914
O           -6.97147327455897       -2.59543917015465        4.56096668077407
C           -8.13629808808993       -3.38495814427322        4.36609708813279
C           -3.95768934732165        3.25676786973880        6.72872840529773
C           -4.37610936436685        2.94228348693296        2.37912108233300
H           -8.67995229351246       -3.74186516753937        5.31399083710983
H           -7.74170020686470       -4.26720438992296        3.67791806495044
H           -8.82707167285512       -2.65825445862483        3.79173406767580
H            4.63696973890852       -1.45740407548790        5.13491444047277
H            5.66077639933707       -1.31434475176404        6.76656477663784
H            5.12135341437485       -0.05916643637357        5.81017308802667
H           -4.06800712470958        2.39697505419543        1.49725648016006
H           -4.10765418218851        4.01862099504711        2.24357711455936
H           -5.46090204126913        2.94259536169406        2.64049311643889
H           -2.88016914885605        2.75373262488212        6.61086504312132
H           -4.26554504958595        3.25066242161352        7.72468364170202
H           -3.59999891897748        4.19055325331143        6.21587825168035
H            0.47420667769608        8.18825207804944        2.15965632029216
H            1.63029712944808        7.12624952186790        1.74667643806267
H            2.10482207155958        7.72364969924610        3.34723062134142
116
 energy: -22.576061099063 gnorm: 0.573058109496 xtb: 6.6.1 (8d0f1dd)
C           -2.30436264462942        0.70008969460878       -1.12998811412496
C           -1.71910528771530       -0.09215363811694       -0.13260993129913
C           -0.58419296251330        0.39081335217357        0.68487857067437
C           -0.33724327176142        1.70898808501134        0.63548100933356
C           -1.23528642461350        2.48426178049239       -0.04651236735904
C           -2.16563091154815        2.06544299602310       -0.91210759796109
C            0.01452014558214       -0.49493663910380        1.59736094513091
C            1.22514874274287       -0.12306293827290        2.01291650228143
C            1.65058041435064        1.19473125574717        1.75692172875949
N            0.77253502166253        2.19989235627841        1.38794091613776
C           -0.49431882330389       -1.70441863147318        2.16773520831775
C            0.48673919522233       -2.65584885552888        2.63547437569230
N            1.82081365508687       -2.39922216053151        2.77417478393962
C            2.11597237893707       -1.09525641190367        2.63029911890508
C            3.48760052474935       -0.77620884464608        2.90251678701959
C            3.85045126015936        0.58476473538075        2.84370616241772
C            3.03412056938868        1.48014290513135        2.27630176683882
C           -1.93543386329732       -1.95469498197134        2.38492752545182
C           -2.19551087621534       -3.27681935681304        2.76490696529037
C           -1.24871948435809       -4.26899128113281        2.95081605949114
C            0.07485125467672       -3.95194506177650        2.85433459802829
O           -3.08866033516318       -1.17932065410423        1.95688581976209
O           -1.75660695406467       -1.59066441201508       -0.31610313068777
C           -2.94422354070848        3.08706513916230       -1.71322709425507
C           -1.53324666568710       -5.59541460597071        3.44828084371805
H           -1.35284965656430        3.56353670403498        0.03097935473829
H           -3.23829518052101        0.30688452314748       -1.45620760980120
H            3.17993362659529        2.58787015733522        2.61600581943959
H            4.04939427969083       -1.48208163170137        3.51090460882347
H            0.79746651240077       -4.60124762232498        3.26404219625974
H           -3.25923383644694       -3.71417635002308        2.82630887242568
O           -4.13863887609071        3.13023434147209       -1.44801774733504