      -----------------------------------------------------------      
     |                   =====================                   |     
     |                           x T B                           |     
     |                   =====================                   |     
     |                         S. Grimme                         |     
     |          Mulliken Center for Theoretical Chemistry        |     
     |                    University of Bonn                     |     
      -----------------------------------------------------------      

   * xtb version 6.6.1 (8d0f1dd) compiled by 'runner@Mac-1690902418499.local' on 2023-08-01

   xtb is free software: you can redistribute it and/or modify it under
   the terms of the GNU Lesser General Public License as published by
   the Free Software Foundation, either version 3 of the License, or
   (at your option) any later version.
   
   xtb is distributed in the hope that it will be useful,
   but WITHOUT ANY WARRANTY; without even the implied warranty of
   MERCHANTABILITY or FITNESS FOR A PARTICULAR PURPOSE.  See the
   GNU Lesser General Public License for more details.
   
   Cite this work as:
   * C. Bannwarth, E. Caldeweyher, S. Ehlert, A. Hansen, P. Pracht,
     J. Seibert, S. Spicher, S. Grimme, WIREs Comput. Mol. Sci., 2020, 11,
     e01493. DOI: 10.1002/wcms.1493
   
   for GFN2-xTB:
   * C. Bannwarth, S. Ehlert and S. Grimme., J. Chem. Theory Comput., 2019,
     15, 1652-1671. DOI: 10.1021/acs.jctc.8b01176
   for GFN1-xTB:
   * S. Grimme, C. Bannwarth, P. Shushkov, J. Chem. Theory Comput., 2017,
     13, 1989-2009. DOI: 10.1021/acs.jctc.7b00118
   for GFN0-xTB:
   * P. Pracht, E. Caldeweyher, S. Ehlert, S. Grimme, ChemRxiv, 2019, preprint.
     DOI: 10.26434/chemrxiv.8326202.v1
   for GFN-FF:
   * S. Spicher and S. Grimme, Angew. Chem. Int. Ed., 2020, 59, 15665-15673.
     DOI: 10.1002/anie.202004239
   
   for ALPB and GBSA implicit solvation:
   * S. Ehlert, M. Stahn, S. Spicher, S. Grimme, J. Chem. Theory Comput.,
     2021, 17, 4250-4261. DOI: 10.1021/acs.jctc.1c00471
   
   for DFT-D4:
   * E. Caldeweyher, C. Bannwarth and S. Grimme, J. Chem. Phys., 2017,
     147, 034112. DOI: 10.1063/1.4993215
   * E. Caldeweyher, S. Ehlert, A. Hansen, H. Neugebauer, S. Spicher,
     C. Bannwarth and S. Grimme, J. Chem. Phys., 2019, 150, 154122.
     DOI: 10.1063/1.5090222
   * E. Caldeweyher, J.-M. Mewes, S. Ehlert and S. Grimme, Phys. Chem. Chem. Phys.
     2020, 22, 8499-8512. DOI: 10.1039/D0CP00502A
   
   for sTDA-xTB:
   * S. Grimme and C. Bannwarth, J. Chem. Phys., 2016, 145, 054103.
     DOI: 10.1063/1.4959605
   
   in the mass-spec context:
   * V. Asgeirsson, C. Bauer and S. Grimme, Chem. Sci., 2017, 8, 4879.
     DOI: 10.1039/c7sc00601b
   * J. Koopman and S. Grimme, ACS Omega 2019, 4, 12, 15120-15133.
     DOI: 10.1021/acsomega.9b02011
   
   for metadynamics refer to:
   * S. Grimme, J. Chem. Theory Comput., 2019, 155, 2847-2862
     DOI: 10.1021/acs.jctc.9b00143
   
   for SPH calculations refer to:
   * S. Spicher and S. Grimme, J. Chem. Theory Comput., 2021, 17, 1701-1714
     DOI: 10.1021/acs.jctc.0c01306
   
   with help from (in alphabetical order)
   P. Atkinson, C. Bannwarth, F. Bohle, G. Brandenburg, E. Caldeweyher
   M. Checinski, S. Dohm, S. Ehlert, S. Ehrlich, I. Gerasimov, C. Hölzer
   A. Katbashev, J. Koopman, C. Lavigne, S. Lehtola, F. März, M. Müller,
   F. Musil, H. Neugebauer, J. Pisarek, C. Plett, P. Pracht, F. Pultar,
   J. Seibert, P. Shushkov, S. Spicher, M. Stahn, M. Steiner, T. Strunk,
   J. Stückrath, T. Rose, and J. Unsleber
   
 * started run on 2024/11/12 at 09:03:38.248     

           -------------------------------------------------
          |                Calculation Setup                |
           -------------------------------------------------

          program call               : xtb stacked_dimer_Katherine4.mol --opt --gfn2 --chrg -2 --uhf 0 --tight
          coordinate file            : stacked_dimer_Katherine4.mol
          omp threads                :                     8

   ID    Z sym.   atoms
    1    6 C      1-21, 26-39, 79-99, 104-117
    2    8 O      22-25, 100-103
    3    1 H      40-78, 118-156

molecular fragmentation (1/2 indicates fragments):
111111111111111111111111111111111111111111111111111111111111111111111111
111111222222222222222222222222222222222222222222222222222222222222222222
222222222222
# atoms in fragment 1/2:    78    78
 fragment masses (1/2) :      523.68      523.68
CMA distance (Bohr)    :  11.338
constraining FC (au)   :  0.0500
########################################################################
[WARNING] Please study the warnings concerning your input carefully
-2- prog_main: Charge in sdf/mol input was overwritten
-1- prog_main_parseArguments: Unknown option '--tight' provided
########################################################################

           -------------------------------------------------
          |                 G F N 2 - x T B                 |
           -------------------------------------------------

        Reference                      10.1021/acs.jctc.8b01176
      * Hamiltonian:
        H0-scaling (s, p, d)           1.850000    2.230000    2.230000
        zeta-weighting                 0.500000
      * Dispersion:
        s8                             2.700000
        a1                             0.520000
        a2                             5.000000
        s9                             5.000000
      * Repulsion:
        kExp                           1.500000    1.000000
        rExp                           1.000000
      * Coulomb:
        alpha                          2.000000
        third order                    shell-resolved
        anisotropic                    true
        a3                             3.000000
        a5                             4.000000
        cn-shift                       1.200000
        cn-exp                         4.000000
        max-rad                        5.000000

q/qsh data taken from xtbrestart
CAMM data taken from xtbrestart

          ...................................................
          :                      SETUP                      :
          :.................................................:
          :  # basis functions                 390          :
          :  # atomic orbitals                 390          :
          :  # shells                          234          :
          :  # electrons                       408          :
          :  max. iterations                   250          :
          :  Hamiltonian                  GFN2-xTB          :
          :  restarted?                       true          :
          :  GBSA solvation                  false          :
          :  PC potential                    false          :
          :  electronic temp.          300.0000000     K    :
          :  accuracy                    1.0000000          :
          :  -> integral cutoff          0.2500000E+02      :
          :  -> integral neglect         0.1000000E-07      :
          :  -> SCF convergence          0.1000000E-05 Eh   :
          :  -> wf. convergence          0.1000000E-03 e    :
          :  Broyden damping             0.4000000          :
          ...................................................

 iter      E             dE          RMSdq      gap      omega  full diag
   1   -226.0806163 -0.226081E+03  0.137E+00    1.25       0.0  T
   2   -226.0926442 -0.120279E-01  0.815E-01    1.26       1.0  T
   3   -226.0765288  0.161155E-01  0.341E-01    1.41       1.0  T
   4   -226.0955102 -0.189814E-01  0.929E-02    1.24       1.0  T
   5   -226.0963528 -0.842584E-03  0.487E-02    1.27       1.0  T
   6   -226.0967573 -0.404533E-03  0.138E-02    1.27       1.0  T
   7   -226.0967734 -0.160580E-04  0.698E-03    1.27       1.1  T
   8   -226.0967751 -0.170462E-05  0.378E-03    1.27       2.1  T
   9   -226.0967766 -0.151184E-05  0.155E-03    1.27       5.2  T
  10   -226.0967770 -0.378708E-06  0.763E-04    1.27      10.5  T
  11   -226.0967771 -0.654787E-07  0.339E-04    1.27      23.6  T

   *** convergence criteria satisfied after 11 iterations ***

         #    Occupation            Energy/Eh            Energy/eV
      -------------------------------------------------------------
         1        2.0000           -0.5505864             -14.9822
       ...           ...                  ...                  ...
       198        2.0000           -0.1871028              -5.0913
       199        2.0000           -0.1777912              -4.8379
       200        2.0000           -0.1748512              -4.7579
       201        2.0000           -0.1726869              -4.6990
       202        2.0000           -0.1702963              -4.6340
       203        2.0000           -0.1417159              -3.8563
       204        2.0000           -0.1376651              -3.7461 (HOMO)
       205                         -0.0908279              -2.4716 (LUMO)
       206                         -0.0881729              -2.3993
       207                         -0.0572623              -1.5582
       208                         -0.0520349              -1.4159
       209                         -0.0431474              -1.1741
       ...                                ...                  ...
       390                          0.9290406              25.2805
      -------------------------------------------------------------
                  HL-Gap            0.0468371 Eh            1.2745 eV
             Fermi-level           -0.1142676 Eh           -3.1094 eV

 SCC (total)                   0 d,  0 h,  0 min,  1.058 sec
 SCC setup                      ...        0 min,  0.000 sec (  0.047%)
 Dispersion                     ...        0 min,  0.002 sec (  0.230%)
 classical contributions        ...        0 min,  0.000 sec (  0.041%)
 integral evaluation            ...        0 min,  0.009 sec (  0.868%)
 iterations                     ...        0 min,  0.964 sec ( 91.124%)
 molecular gradient             ...        0 min,  0.079 sec (  7.511%)
 printout                       ...        0 min,  0.002 sec (  0.176%)

         :::::::::::::::::::::::::::::::::::::::::::::::::::::
         ::                     SUMMARY                     ::
         :::::::::::::::::::::::::::::::::::::::::::::::::::::
         :: total energy            -222.741730779966 Eh    ::
         :: gradient norm              0.078515282086 Eh/a0 ::
         :: HOMO-LUMO gap              1.274503198537 eV    ::
         ::.................................................::
         :: SCC energy              -226.096777050723 Eh    ::
         :: -> isotropic ES            0.414043168892 Eh    ::
         :: -> anisotropic ES          0.068813337965 Eh    ::
         :: -> anisotropic XC          0.073123305415 Eh    ::
         :: -> dispersion             -0.211589832424 Eh    ::
         :: repulsion energy           3.342822995584 Eh    ::
         :: add. restraining           0.000000000000 Eh    ::
         :: total charge              -2.000032448599 e     ::
         :::::::::::::::::::::::::::::::::::::::::::::::::::::

      ----------------------------------------------------------- 
     |                   =====================                   |
     |                        A N C O P T                        |
     |                   =====================                   |
     |               Approximate Normal Coordinate               |
     |                Rational Function Optimizer                |
      ----------------------------------------------------------- 

          ...................................................
          :                      SETUP                      :
          :.................................................:
          :   optimization level            normal          :
          :   max. optcycles                   468          :
          :   ANC micro-cycles                  20          :
          :   degrees of freedom               462          :
          :.................................................:
          :   RF solver                   davidson          :
          :   write xtbopt.log                true          :
          :   linear?                        false          :
          :   energy convergence         0.5000000E-05 Eh   :
          :   grad. convergence          0.1000000E-02 Eh/α :
          :   maxmium RF displ.          1.0000000          :
          :   Hlow (freq-cutoff)         0.1000000E-01      :
          :   Hmax (freq-cutoff)         5.0000000          :
          :   S6 in model hess.         20.0000000          :
          ...................................................

generating ANC from model Hessian ...
Using Lindh-Hessian (1995)
 Shifting diagonal of input Hessian by    1.0024082895095755E-002
 Lowest  eigenvalues of input Hessian
    0.010000    0.000000    0.000000    0.000000    0.000000    0.000000
    0.000000    0.010056    0.010090    0.010178    0.010237    0.010270
    0.010339    0.010359    0.010392    0.010432    0.010462    0.010513
 Highest eigenvalues
    2.095311    2.095319    2.193212    2.193214    2.221380    2.221383


........................................................................
.............................. CYCLE    1 ..............................
........................................................................

 iter      E             dE          RMSdq      gap      omega  full diag
   1   -226.0967771 -0.226097E+03  0.161E-04    1.27       0.0  T
   2   -226.0967771 -0.331369E-09  0.124E-04    1.27      64.6  T
   3   -226.0967771 -0.227726E-08  0.694E-05    1.27     115.4  T
     SCC iter.                  ...        0 min,  0.222 sec
     gradient                   ...        0 min,  0.079 sec
 * total energy  :  -222.7417308 Eh     change       -0.7975672E-08 Eh
   gradient norm :     0.0785164 Eh/α   predicted     0.0000000E+00 (-100.00%)
   displ. norm   :     0.7732887 α      lambda       -0.5243237E-01
   maximum displ.:     0.2792715 α      in ANC's #78, #38, #98, ...

........................................................................
.............................. CYCLE    2 ..............................
........................................................................

 iter      E             dE          RMSdq      gap      omega  full diag
   1   -226.1359111 -0.226136E+03  0.160E-01    1.27       0.0  T
   2   -226.1362870 -0.375867E-03  0.960E-02    1.28       1.0  T
   3   -226.1360657  0.221342E-03  0.523E-02    1.27       1.0  T
   4   -226.1363629 -0.297194E-03  0.176E-02    1.29       1.0  T
   5   -226.1363978 -0.349790E-04  0.702E-03    1.28       1.1  T
   6   -226.1364049 -0.706414E-05  0.275E-03    1.28       2.9  T
   7   -226.1364056 -0.698064E-06  0.118E-03    1.28       6.8  T
   8   -226.1364058 -0.204570E-06  0.566E-04    1.28      14.1  T
   9   -226.1364058 -0.431384E-07  0.254E-04    1.28      31.6  T
     SCC iter.                  ...        0 min,  0.827 sec
     gradient                   ...        0 min,  0.079 sec
 * total energy  :  -222.7723787 Eh     change       -0.3064790E-01 Eh
   gradient norm :     0.0231194 Eh/α   predicted    -0.4189284E-01 (  36.69%)
   displ. norm   :     0.5063939 α      lambda       -0.9818617E-02
   maximum displ.:     0.2179137 α      in ANC's #78, #38, #33, ...

........................................................................
.............................. CYCLE    3 ..............................
........................................................................

 iter      E             dE          RMSdq      gap      omega  full diag
   1   -226.1386080 -0.226139E+03  0.737E-02    1.29       0.0  T
   2   -226.1386294 -0.213644E-04  0.436E-02    1.28       1.0  T
   3   -226.1385668  0.625903E-04  0.185E-02    1.29       1.0  T
   4   -226.1386357 -0.689101E-04  0.477E-03    1.28       1.7  T
   5   -226.1386396 -0.388680E-05  0.180E-03    1.28       4.5  T
   6   -226.1386399 -0.299754E-06  0.884E-04    1.28       9.1  T
   7   -226.1386400 -0.673560E-07  0.378E-04    1.28      21.2  T
     SCC iter.                  ...        0 min,  0.566 sec
     gradient                   ...        0 min,  0.079 sec
 * total energy  :  -222.7801259 Eh     change       -0.7747259E-02 Eh
   gradient norm :     0.0141029 Eh/α   predicted    -0.6168228E-02 ( -20.38%)
   displ. norm   :     0.6054582 α      lambda       -0.7070323E-02
   maximum displ.:     0.2500524 α      in ANC's #78, #38, #25, ...

........................................................................
.............................. CYCLE    4 ..............................
........................................................................

 iter      E             dE          RMSdq      gap      omega  full diag
   1   -226.1385095 -0.226139E+03  0.668E-02    1.28       0.0  T
   2   -226.1385242 -0.147323E-04  0.399E-02    1.28       1.0  T
   3   -226.1384428  0.814857E-04  0.209E-02    1.29       1.0  T
   4   -226.1385352 -0.924792E-04  0.391E-03    1.28       2.0  T
   5   -226.1385375 -0.228551E-05  0.172E-03    1.28       4.6  T
   6   -226.1385378 -0.310904E-06  0.785E-04    1.28      10.2  T
   7   -226.1385379 -0.331744E-07  0.410E-04    1.28      19.5  T
     SCC iter.                  ...        0 min,  0.611 sec
     gradient                   ...        0 min,  0.081 sec
 * total energy  :  -222.7855593 Eh     change       -0.5433315E-02 Eh
   gradient norm :     0.0101110 Eh/α   predicted    -0.4831093E-02 ( -11.08%)
   displ. norm   :     0.5991298 α      lambda       -0.4033283E-02
   maximum displ.:     0.2175264 α      in ANC's #38, #78, #25, ...

........................................................................
.............................. CYCLE    5 ..............................
........................................................................

 iter      E             dE          RMSdq      gap      omega  full diag
   1   -226.1389302 -0.226139E+03  0.518E-02    1.28       0.0  T
   2   -226.1389369 -0.676313E-05  0.314E-02    1.27       1.0  T
   3   -226.1388691  0.678257E-04  0.189E-02    1.28       1.0  T
   4   -226.1389480 -0.789510E-04  0.261E-03    1.27       3.1  T
   5   -226.1389488 -0.764334E-06  0.129E-03    1.27       6.2  T
   6   -226.1389490 -0.144911E-06  0.565E-04    1.27      14.2  T
   7   -226.1389490 -0.112424E-07  0.294E-04    1.27      27.3  T
     SCC iter.                  ...        0 min,  0.612 sec
     gradient                   ...        0 min,  0.084 sec
 * total energy  :  -222.7887248 Eh     change       -0.3165510E-02 Eh
   gradient norm :     0.0075989 Eh/α   predicted    -0.2740531E-02 ( -13.43%)
   displ. norm   :     0.6210016 α      lambda       -0.2592022E-02
   maximum displ.:     0.1977473 α      in ANC's #38, #12, #78, ...

........................................................................
.............................. CYCLE    6 ..............................
........................................................................

 iter      E             dE          RMSdq      gap      omega  full diag
   1   -226.1396517 -0.226140E+03  0.449E-02    1.27       0.0  T
   2   -226.1396562 -0.446962E-05  0.272E-02    1.27       1.0  T
   3   -226.1396036  0.525958E-04  0.167E-02    1.27       1.0  T
   4   -226.1396650 -0.614058E-04  0.213E-03    1.27       3.8  T
   5   -226.1396655 -0.516210E-06  0.104E-03    1.27       7.7  T
   6   -226.1396656 -0.835645E-07  0.448E-04    1.27      17.9  T
   7   -226.1396656 -0.754321E-08  0.204E-04    1.27      39.3  T
     SCC iter.                  ...        0 min,  0.553 sec
     gradient                   ...        0 min,  0.082 sec
 * total energy  :  -222.7907949 Eh     change       -0.2070101E-02 Eh
   gradient norm :     0.0055494 Eh/α   predicted    -0.1795810E-02 ( -13.25%)
   displ. norm   :     0.6503426 α      lambda       -0.1805550E-02
   maximum displ.:     0.2306975 α      in ANC's #12, #5, #25, ...

........................................................................
.............................. CYCLE    7 ..............................
........................................................................

 iter      E             dE          RMSdq      gap      omega  full diag
   1   -226.1407075 -0.226141E+03  0.406E-02    1.27       0.0  T
   2   -226.1407106 -0.313329E-05  0.246E-02    1.26       1.0  T
   3   -226.1406661  0.444707E-04  0.153E-02    1.27       1.0  T
   4   -226.1407178 -0.516420E-04  0.189E-03    1.26       4.2  T
   5   -226.1407182 -0.445606E-06  0.932E-04    1.27       8.6  T
   6   -226.1407183 -0.692303E-07  0.434E-04    1.27      18.5  T
     SCC iter.                  ...        0 min,  0.429 sec
     gradient                   ...        0 min,  0.086 sec
 * total energy  :  -222.7922716 Eh     change       -0.1476744E-02 Eh
   gradient norm :     0.0044360 Eh/α   predicted    -0.1284601E-02 ( -13.01%)
   displ. norm   :     0.6744271 α      lambda       -0.1366777E-02
   maximum displ.:     0.2553738 α      in ANC's #12, #5, #25, ...

........................................................................
.............................. CYCLE    8 ..............................
........................................................................

 iter      E             dE          RMSdq      gap      omega  full diag
   1   -226.1415960 -0.226142E+03  0.381E-02    1.26       0.0  T
   2   -226.1415984 -0.231352E-05  0.230E-02    1.26       1.0  T
   3   -226.1415619  0.364240E-04  0.133E-02    1.26       1.0  T
   4   -226.1416029 -0.410038E-04  0.186E-03    1.26       4.3  T
   5   -226.1416035 -0.548562E-06  0.908E-04    1.26       8.8  T
   6   -226.1416036 -0.854280E-07  0.416E-04    1.26      19.3  T
     SCC iter.                  ...        0 min,  0.443 sec
     gradient                   ...        0 min,  0.077 sec
 * total energy  :  -222.7934211 Eh     change       -0.1149503E-02 Eh
   gradient norm :     0.0039575 Eh/α   predicted    -0.9942304E-03 ( -13.51%)
   displ. norm   :     0.6946536 α      lambda       -0.1129110E-02
   maximum displ.:     0.2729208 α      in ANC's #12, #5, #15, ...

........................................................................
.............................. CYCLE    9 ..............................
........................................................................

 iter      E             dE          RMSdq      gap      omega  full diag
   1   -226.1425725 -0.226143E+03  0.389E-02    1.26       0.0  T
   2   -226.1425742 -0.167505E-05  0.235E-02    1.25       1.0  T
   3   -226.1425340  0.401922E-04  0.132E-02    1.26       1.0  T
   4   -226.1425784 -0.444217E-04  0.181E-03    1.25       4.4  T
   5   -226.1425790 -0.532686E-06  0.884E-04    1.25       9.1  T
   6   -226.1425790 -0.741224E-07  0.409E-04    1.25      19.6  T
     SCC iter.                  ...        0 min,  0.547 sec
     gradient                   ...        0 min,  0.085 sec
 * total energy  :  -222.7943925 Eh     change       -0.9713651E-03 Eh
   gradient norm :     0.0041856 Eh/α   predicted    -0.8369810E-03 ( -13.83%)
   displ. norm   :     0.7071239 α      lambda       -0.9880199E-03
   maximum displ.:     0.2985098 α      in ANC's #5, #12, #6, ...

........................................................................
.............................. CYCLE   10 ..............................
........................................................................

 iter      E             dE          RMSdq      gap      omega  full diag
   1   -226.1432560 -0.226143E+03  0.416E-02    1.25       0.0  T
   2   -226.1432573 -0.133825E-05  0.252E-02    1.25       1.0  T
   3   -226.1432118  0.455562E-04  0.134E-02    1.25       1.0  T
   4   -226.1432615 -0.496918E-04  0.181E-03    1.25       4.4  T
   5   -226.1432620 -0.508248E-06  0.905E-04    1.25       8.8  T
   6   -226.1432621 -0.684917E-07  0.414E-04    1.25      19.3  T
     SCC iter.                  ...        0 min,  0.593 sec
     gradient                   ...        0 min,  0.081 sec
 * total energy  :  -222.7952544 Eh     change       -0.8619294E-03 Eh
   gradient norm :     0.0042664 Eh/α   predicted    -0.7410349E-03 ( -14.03%)
   displ. norm   :     0.7139628 α      lambda       -0.8889195E-03
   maximum displ.:     0.3228965 α      in ANC's #5, #12, #6, ...

........................................................................
.............................. CYCLE   11 ..............................
........................................................................

 iter      E             dE          RMSdq      gap      omega  full diag
   1   -226.1438567 -0.226144E+03  0.453E-02    1.24       0.0  T
   2   -226.1438578 -0.117364E-05  0.275E-02    1.24       1.0  T
   3   -226.1438027  0.551158E-04  0.145E-02    1.24       1.0  T
   4   -226.1438627 -0.599871E-04  0.182E-03    1.24       4.4  T
   5   -226.1438632 -0.458875E-06  0.951E-04    1.24       8.4  T
   6   -226.1438632 -0.698148E-07  0.450E-04    1.24      17.8  T
     SCC iter.                  ...        0 min,  0.482 sec
     gradient                   ...        0 min,  0.083 sec
 * total energy  :  -222.7960330 Eh     change       -0.7785546E-03 Eh
   gradient norm :     0.0042928 Eh/α   predicted    -0.6710226E-03 ( -13.81%)
   displ. norm   :     0.7146887 α      lambda       -0.7987106E-03
   maximum displ.:     0.3426195 α      in ANC's #5, #12, #6, ...

........................................................................
.............................. CYCLE   12 ..............................
........................................................................

 iter      E             dE          RMSdq      gap      omega  full diag
   1   -226.1441168 -0.226144E+03  0.481E-02    1.23       0.0  T
   2   -226.1441181 -0.127562E-05  0.291E-02    1.23       1.0  T
   3   -226.1440605  0.575677E-04  0.149E-02    1.23       1.0  T
   4   -226.1441230 -0.624930E-04  0.192E-03    1.23       4.2  T
   5   -226.1441236 -0.555103E-06  0.976E-04    1.23       8.2  T
   6   -226.1441236 -0.696139E-07  0.449E-04    1.23      17.8  T
     SCC iter.                  ...        0 min,  0.686 sec
     gradient                   ...        0 min,  0.080 sec
 * total energy  :  -222.7967309 Eh     change       -0.6979294E-03 Eh
   gradient norm :     0.0042844 Eh/α   predicted    -0.6033388E-03 ( -13.55%)
   displ. norm   :     0.7033504 α      lambda       -0.7082489E-03
   maximum displ.:     0.3543261 α      in ANC's #5, #12, #2, ...

........................................................................
.............................. CYCLE   13 ..............................
........................................................................

 iter      E             dE          RMSdq      gap      omega  full diag
   1   -226.1443684 -0.226144E+03  0.489E-02    1.23       0.0  T
   2   -226.1443695 -0.114646E-05  0.295E-02    1.23       1.0  T
   3   -226.1443141  0.554183E-04  0.146E-02    1.23       1.0  T
   4   -226.1443742 -0.600707E-04  0.187E-03    1.23       4.3  T
   5   -226.1443747 -0.545732E-06  0.939E-04    1.23       8.5  T
   6   -226.1443748 -0.591297E-07  0.425E-04    1.23      18.8  T
     SCC iter.                  ...        0 min,  0.619 sec
     gradient                   ...        0 min,  0.083 sec
 * total energy  :  -222.7973497 Eh     change       -0.6187919E-03 Eh
   gradient norm :     0.0043839 Eh/α   predicted    -0.5293137E-03 ( -14.46%)
   displ. norm   :     0.6897125 α      lambda       -0.6395906E-03
   maximum displ.:     0.3617634 α      in ANC's #5, #2, #12, ...

........................................................................
.............................. CYCLE   14 ..............................
........................................................................

 iter      E             dE          RMSdq      gap      omega  full diag
   1   -226.1446611 -0.226145E+03  0.486E-02    1.22       0.0  T
   2   -226.1446622 -0.111937E-05  0.292E-02    1.22       1.0  T
   3   -226.1446116  0.505769E-04  0.140E-02    1.22       1.0  T
   4   -226.1446664 -0.547019E-04  0.183E-03    1.22       4.4  T
   5   -226.1446669 -0.581072E-06  0.872E-04    1.22       9.2  T
   6   -226.1446670 -0.444150E-07  0.393E-04    1.22      20.4  T
     SCC iter.                  ...        0 min,  0.584 sec
     gradient                   ...        0 min,  0.081 sec
 * total energy  :  -222.7979098 Eh     change       -0.5601554E-03 Eh
   gradient norm :     0.0045860 Eh/α   predicted    -0.4719233E-03 ( -15.75%)
   displ. norm   :     0.6810308 α      lambda       -0.5971843E-03
   maximum displ.:     0.3691546 α      in ANC's #5, #2, #6, ...

........................................................................
.............................. CYCLE   15 ..............................
........................................................................

 iter      E             dE          RMSdq      gap      omega  full diag
   1   -226.1452433 -0.226145E+03  0.486E-02    1.22       0.0  T
   2   -226.1452448 -0.156552E-05  0.290E-02    1.22       1.0  T
   3   -226.1452042  0.406570E-04  0.128E-02    1.22       1.0  T
   4   -226.1452481 -0.439329E-04  0.186E-03    1.22       4.3  T
   5   -226.1452488 -0.682858E-06  0.838E-04    1.22       9.6  T
   6   -226.1452488 -0.428511E-07  0.398E-04    1.22      20.1  T
     SCC iter.                  ...        0 min,  0.632 sec
     gradient                   ...        0 min,  0.083 sec
 * total energy  :  -222.7984318 Eh     change       -0.5219814E-03 Eh
   gradient norm :     0.0047184 Eh/α   predicted    -0.4370808E-03 ( -16.27%)
   displ. norm   :     0.6751774 α      lambda       -0.5593111E-03
   maximum displ.:     0.3758910 α      in ANC's #5, #2, #6, ...

........................................................................
.............................. CYCLE   16 ..............................
........................................................................

 iter      E             dE          RMSdq      gap      omega  full diag
   1   -226.1458722 -0.226146E+03  0.487E-02    1.22       0.0  T
   2   -226.1458746 -0.234990E-05  0.290E-02    1.22       1.0  T
   3   -226.1458427  0.318281E-04  0.120E-02    1.22       1.0  T
   4   -226.1458774 -0.346977E-04  0.183E-03    1.22       4.4  T
   5   -226.1458781 -0.655770E-06  0.844E-04    1.22       9.5  T
   6   -226.1458781 -0.616023E-07  0.425E-04    1.22      18.8  T
     SCC iter.                  ...        0 min,  0.666 sec
     gradient                   ...        0 min,  0.097 sec
 * total energy  :  -222.7989160 Eh     change       -0.4842036E-03 Eh
   gradient norm :     0.0045153 Eh/α   predicted    -0.4071438E-03 ( -15.91%)
   displ. norm   :     0.6646024 α      lambda       -0.5031954E-03
   maximum displ.:     0.3786970 α      in ANC's #5, #2, #6, ...

........................................................................
.............................. CYCLE   17 ..............................
........................................................................

 iter      E             dE          RMSdq      gap      omega  full diag
   1   -226.1466606 -0.226147E+03  0.481E-02    1.22       0.0  T
   2   -226.1466638 -0.317782E-05  0.288E-02    1.22       1.0  T
   3   -226.1466357  0.280393E-04  0.119E-02    1.22       1.0  T
   4   -226.1466670 -0.312395E-04  0.162E-03    1.22       4.9  T
   5   -226.1466674 -0.403924E-06  0.791E-04    1.22      10.1  T
   6   -226.1466674 -0.502538E-07  0.408E-04    1.22      19.6  T
     SCC iter.                  ...        0 min,  0.489 sec
     gradient                   ...        0 min,  0.097 sec
 * total energy  :  -222.7993460 Eh     change       -0.4299796E-03 Eh
   gradient norm :     0.0039534 Eh/α   predicted    -0.3627363E-03 ( -15.64%)
   displ. norm   :     0.6411501 α      lambda       -0.4270056E-03
   maximum displ.:     0.3735946 α      in ANC's #5, #2, #6, ...

........................................................................
.............................. CYCLE   18 ..............................
........................................................................

 iter      E             dE          RMSdq      gap      omega  full diag
   1   -226.1471450 -0.226147E+03  0.451E-02    1.22       0.0  T
   2   -226.1471480 -0.300203E-05  0.271E-02    1.22       1.0  T
   3   -226.1471190  0.290044E-04  0.117E-02    1.22       1.0  T
   4   -226.1471513 -0.323178E-04  0.155E-03    1.22       5.2  T
   5   -226.1471517 -0.385249E-06  0.723E-04    1.22      11.1  T
   6   -226.1471517 -0.402431E-07  0.373E-04    1.22      21.5  T
     SCC iter.                  ...        0 min,  0.577 sec
     gradient                   ...        0 min,  0.083 sec
 * total energy  :  -222.7997064 Eh     change       -0.3603816E-03 Eh
   gradient norm :     0.0032521 Eh/α   predicted    -0.3012684E-03 ( -16.40%)
   displ. norm   :     0.6089512 α      lambda       -0.3507441E-03
   maximum displ.:     0.3614041 α      in ANC's #5, #2, #6, ...

........................................................................
.............................. CYCLE   19 ..............................
........................................................................

 iter      E             dE          RMSdq      gap      omega  full diag
   1   -226.1476928 -0.226148E+03  0.414E-02    1.22       0.0  T
   2   -226.1476952 -0.243683E-05  0.249E-02    1.22       1.0  T
   3   -226.1476680  0.272291E-04  0.110E-02    1.22       1.0  T
   4   -226.1476981 -0.301061E-04  0.150E-03    1.22       5.3  T
   5   -226.1476985 -0.389235E-06  0.700E-04    1.22      11.4  T
   6   -226.1476986 -0.447687E-07  0.367E-04    1.22      21.8  T
     SCC iter.                  ...        0 min,  0.584 sec
     gradient                   ...        0 min,  0.081 sec
 * total energy  :  -222.8000019 Eh     change       -0.2954757E-03 Eh
   gradient norm :     0.0034782 Eh/α   predicted    -0.2404100E-03 ( -18.64%)
   displ. norm   :     0.5593503 α      lambda       -0.2979297E-03
   maximum displ.:     0.3381501 α      in ANC's #5, #2, #6, ...

........................................................................
.............................. CYCLE   20 ..............................
........................................................................

 iter      E             dE          RMSdq      gap      omega  full diag
   1   -226.1488723 -0.226149E+03  0.363E-02    1.22       0.0  T
   2   -226.1488736 -0.138152E-05  0.217E-02    1.22       1.0  T
   3   -226.1488577  0.159229E-04  0.831E-03    1.22       1.0  T
   4   -226.1488752 -0.174976E-04  0.113E-03    1.22       7.1  T
   5   -226.1488754 -0.193108E-06  0.584E-04    1.22      13.7  T
   6   -226.1488754 -0.308527E-07  0.307E-04    1.22      26.1  T
     SCC iter.                  ...        0 min,  0.945 sec
     gradient                   ...        0 min,  0.086 sec
 * total energy  :  -222.8002488 Eh     change       -0.2469024E-03 Eh
   gradient norm :     0.0039028 Eh/α   predicted    -0.1955764E-03 ( -20.79%)
   displ. norm   :     0.5674272 α      lambda       -0.2925648E-03
   maximum displ.:     0.3444186 α      in ANC's #5, #2, #6, ...
 * RMSD in coord.:     0.8456070 α      energy gain  -0.5851799E-01 Eh

generating ANC from model Hessian ...
Using Lindh-Hessian (1995)
 Shifting diagonal of input Hessian by    1.0008394638830789E-002
 Lowest  eigenvalues of input Hessian
    0.010000    0.010008    0.000000    0.000000    0.000000    0.000000
    0.000000    0.000000    0.010018    0.010129    0.010141    0.010169
    0.010204    0.010248    0.010283    0.010288    0.010313    0.010360
 Highest eigenvalues
    2.095106    2.096379    2.188477    2.193995    2.217460    2.222762


........................................................................
.............................. CYCLE   21 ..............................
........................................................................

 iter      E             dE          RMSdq      gap      omega  full diag
   1   -226.1476620 -0.226148E+03  0.379E-02    1.22       0.0  T
   2   -226.1476637 -0.162201E-05  0.226E-02    1.22       1.0  T
   3   -226.1476518  0.118182E-04  0.752E-03    1.22       1.1  T
   4   -226.1476650 -0.131464E-04  0.113E-03    1.22       7.1  T
   5   -226.1476651 -0.138121E-06  0.645E-04    1.22      12.4  T
   6   -226.1476652 -0.360347E-07  0.317E-04    1.22      25.2  T
     SCC iter.                  ...        0 min,  0.641 sec
     gradient                   ...        0 min,  0.098 sec
 * total energy  :  -222.8004687 Eh     change       -0.2199668E-03 Eh
   gradient norm :     0.0054653 Eh/α   predicted     0.0000000E+00 (-100.00%)
   displ. norm   :     0.0742889 α      lambda       -0.1167623E-03
   maximum displ.:     0.0288839 α      in ANC's #4, #3, #26, ...

........................................................................
.............................. CYCLE   22 ..............................
........................................................................

 iter      E             dE          RMSdq      gap      omega  full diag
   1   -226.1484692 -0.226148E+03  0.101E-02    1.22       0.0  T
   2   -226.1484696 -0.400735E-06  0.634E-03    1.22       1.3  T
   3   -226.1484665  0.309801E-05  0.378E-03    1.22       2.1  T
   4   -226.1484701 -0.356802E-05  0.821E-04    1.22       9.8  T
   5   -226.1484703 -0.154951E-06  0.282E-04    1.22      28.4  T
   6   -226.1484703 -0.540146E-08  0.166E-04    1.22      48.2  T
     SCC iter.                  ...        0 min,  0.770 sec
     gradient                   ...        0 min,  0.083 sec
 * total energy  :  -222.8005635 Eh     change       -0.9473711E-04 Eh
   gradient norm :     0.0020559 Eh/α   predicted    -0.5870706E-04 ( -38.03%)
   displ. norm   :     0.2188711 α      lambda       -0.2032452E-03
   maximum displ.:     0.0882069 α      in ANC's #4, #3, #26, ...

........................................................................
.............................. CYCLE   23 ..............................
........................................................................

 iter      E             dE          RMSdq      gap      omega  full diag
   1   -226.1493200 -0.226149E+03  0.250E-02    1.21       0.0  T
   2   -226.1493213 -0.135691E-05  0.154E-02    1.22       1.0  T
   3   -226.1493069  0.143913E-04  0.775E-03    1.22       1.0  T
   4   -226.1493227 -0.157420E-04  0.149E-03    1.22       5.4  T
   5   -226.1493232 -0.499839E-06  0.574E-04    1.22      13.9  T
   6   -226.1493232 -0.226275E-07  0.321E-04    1.22      25.0  T
     SCC iter.                  ...        0 min,  0.586 sec
     gradient                   ...        0 min,  0.082 sec
 * total energy  :  -222.8007085 Eh     change       -0.1450568E-03 Eh
   gradient norm :     0.0041711 Eh/α   predicted    -0.1064929E-03 ( -26.59%)
   displ. norm   :     0.2547099 α      lambda       -0.1506258E-03
   maximum displ.:     0.1081153 α      in ANC's #4, #3, #26, ...

........................................................................
.............................. CYCLE   24 ..............................
........................................................................

 iter      E             dE          RMSdq      gap      omega  full diag
   1   -226.1491178 -0.226149E+03  0.266E-02    1.22       0.0  T
   2   -226.1491185 -0.769303E-06  0.160E-02    1.22       1.0  T
   3   -226.1491122  0.635810E-05  0.539E-03    1.22       1.5  T
   4   -226.1491191 -0.689336E-05  0.104E-03    1.22       7.7  T
   5   -226.1491193 -0.191144E-06  0.523E-04    1.22      15.3  T
   6   -226.1491193 -0.202556E-07  0.250E-04    1.22      32.0  T
     SCC iter.                  ...        0 min,  0.505 sec
     gradient                   ...        0 min,  0.083 sec
 * total energy  :  -222.8008301 Eh     change       -0.1215612E-03 Eh
   gradient norm :     0.0061013 Eh/α   predicted    -0.8023079E-04 ( -34.00%)
   displ. norm   :     0.3604894 α      lambda       -0.1979525E-03
   maximum displ.:     0.1598971 α      in ANC's #4, #3, #26, ...

........................................................................
.............................. CYCLE   25 ..............................
........................................................................

 iter      E             dE          RMSdq      gap      omega  full diag
   1   -226.1481489 -0.226148E+03  0.359E-02    1.22       0.0  T
   2   -226.1481500 -0.108654E-05  0.215E-02    1.22       1.0  T
   3   -226.1481446  0.531374E-05  0.548E-03    1.22       1.5  T
   4   -226.1481506 -0.598314E-05  0.107E-03    1.22       7.5  T
   5   -226.1481507 -0.952813E-07  0.636E-04    1.22      12.6  T
   6   -226.1481508 -0.340055E-07  0.237E-04    1.22      33.8  T
     SCC iter.                  ...        0 min,  0.384 sec
     gradient                   ...        0 min,  0.085 sec
 * total energy  :  -222.8009875 Eh     change       -0.1573789E-03 Eh
   gradient norm :     0.0052337 Eh/α   predicted    -0.1118389E-03 ( -28.94%)
   displ. norm   :     0.3743097 α      lambda       -0.1837828E-03
   maximum displ.:     0.1770403 α      in ANC's #3, #4, #12, ...

........................................................................
.............................. CYCLE   26 ..............................
........................................................................

 iter      E             dE          RMSdq      gap      omega  full diag
   1   -226.1474421 -0.226147E+03  0.359E-02    1.22       0.0  T
   2   -226.1474437 -0.161309E-05  0.215E-02    1.22       1.0  T
   3   -226.1474281  0.155775E-04  0.840E-03    1.22       1.0  T
   4   -226.1474450 -0.169122E-04  0.148E-03    1.22       5.4  T
   5   -226.1474454 -0.377617E-06  0.699E-04    1.22      11.5  T
   6   -226.1474454 -0.342890E-07  0.357E-04    1.22      22.4  T
     SCC iter.                  ...        0 min,  0.370 sec
     gradient                   ...        0 min,  0.082 sec
 * total energy  :  -222.8011303 Eh     change       -0.1428495E-03 Eh
   gradient norm :     0.0031131 Eh/α   predicted    -0.1047673E-03 ( -26.66%)
   displ. norm   :     0.3377996 α      lambda       -0.1562892E-03
   maximum displ.:     0.1717698 α      in ANC's #3, #4, #12, ...

........................................................................
.............................. CYCLE   27 ..............................
........................................................................

 iter      E             dE          RMSdq      gap      omega  full diag
   1   -226.1477641 -0.226148E+03  0.311E-02    1.22       0.0  T
   2   -226.1477657 -0.160790E-05  0.188E-02    1.22       1.0  T
   3   -226.1477466  0.191390E-04  0.918E-03    1.23       1.0  T
   4   -226.1477674 -0.208569E-04  0.155E-03    1.22       5.2  T
   5   -226.1477679 -0.488675E-06  0.641E-04    1.22      12.5  T
   6   -226.1477680 -0.336508E-07  0.345E-04    1.22      23.2  T
     SCC iter.                  ...        0 min,  0.414 sec
     gradient                   ...        0 min,  0.078 sec
 * total energy  :  -222.8012597 Eh     change       -0.1293415E-03 Eh
   gradient norm :     0.0035510 Eh/α   predicted    -0.8706753E-04 ( -32.68%)
   displ. norm   :     0.3866368 α      lambda       -0.1914222E-03
   maximum displ.:     0.2039264 α      in ANC's #3, #4, #12, ...

........................................................................
.............................. CYCLE   28 ..............................
........................................................................

 iter      E             dE          RMSdq      gap      omega  full diag
   1   -226.1486542 -0.226149E+03  0.346E-02    1.23       0.0  T
   2   -226.1486559 -0.161376E-05  0.209E-02    1.23       1.0  T
   3   -226.1486323  0.235363E-04  0.101E-02    1.23       1.0  T
   4   -226.1486580 -0.256387E-04  0.160E-03    1.23       5.0  T
   5   -226.1486585 -0.489631E-06  0.708E-04    1.23      11.3  T
   6   -226.1486585 -0.421709E-07  0.369E-04    1.23      21.7  T
     SCC iter.                  ...        0 min,  0.324 sec
     gradient                   ...        0 min,  0.079 sec
 * total energy  :  -222.8014228 Eh     change       -0.1631094E-03 Eh
   gradient norm :     0.0054842 Eh/α   predicted    -0.1100190E-03 ( -32.55%)
   displ. norm   :     0.4861242 α      lambda       -0.2397808E-03
   maximum displ.:     0.2604632 α      in ANC's #3, #4, #12, ...

........................................................................
.............................. CYCLE   29 ..............................
........................................................................

 iter      E             dE          RMSdq      gap      omega  full diag
   1   -226.1490630 -0.226149E+03  0.421E-02    1.23       0.0  T
   2   -226.1490646 -0.155339E-05  0.254E-02    1.23       1.0  T
   3   -226.1490418  0.228185E-04  0.996E-03    1.23       1.0  T
   4   -226.1490665 -0.247836E-04  0.157E-03    1.23       5.1  T
   5   -226.1490669 -0.362701E-06  0.821E-04    1.23       9.7  T
   6   -226.1490670 -0.530851E-07  0.386E-04    1.23      20.7  T
     SCC iter.                  ...        0 min,  0.340 sec
     gradient                   ...        0 min,  0.082 sec
 * total energy  :  -222.8016253 Eh     change       -0.2025212E-03 Eh
   gradient norm :     0.0063345 Eh/α   predicted    -0.1482271E-03 ( -26.81%)
   displ. norm   :     0.5300461 α      lambda       -0.2446203E-03
   maximum displ.:     0.2902259 α      in ANC's #3, #4, #12, ...

........................................................................
.............................. CYCLE   30 ..............................
........................................................................

 iter      E             dE          RMSdq      gap      omega  full diag
   1   -226.1491066 -0.226149E+03  0.429E-02    1.23       0.0  T
   2   -226.1491081 -0.155678E-05  0.258E-02    1.23       1.0  T
   3   -226.1490957  0.124119E-04  0.772E-03    1.23       1.0  T
   4   -226.1491094 -0.136491E-04  0.138E-03    1.23       5.8  T
   5   -226.1491096 -0.199465E-06  0.805E-04    1.23       9.9  T
   6   -226.1491096 -0.570647E-07  0.351E-04    1.23      22.8  T
     SCC iter.                  ...        0 min,  0.353 sec
     gradient                   ...        0 min,  0.078 sec
 * total energy  :  -222.8018282 Eh     change       -0.2029316E-03 Eh
   gradient norm :     0.0053533 Eh/α   predicted    -0.1566844E-03 ( -22.79%)
   displ. norm   :     0.5301552 α      lambda       -0.2152809E-03
   maximum displ.:     0.2970402 α      in ANC's #3, #4, #12, ...

........................................................................
.............................. CYCLE   31 ..............................
........................................................................

 iter      E             dE          RMSdq      gap      omega  full diag
   1   -226.1488431 -0.226149E+03  0.395E-02    1.23       0.0  T
   2   -226.1488446 -0.153613E-05  0.237E-02    1.23       1.0  T
   3   -226.1488388  0.585225E-05  0.571E-03    1.23       1.4  T
   4   -226.1488454 -0.660056E-05  0.117E-03    1.23       6.8  T
   5   -226.1488455 -0.120172E-06  0.680E-04    1.23      11.8  T
   6   -226.1488455 -0.337546E-07  0.316E-04    1.23      25.3  T
     SCC iter.                  ...        0 min,  0.328 sec
     gradient                   ...        0 min,  0.138 sec
 * total energy  :  -222.8020098 Eh     change       -0.1815621E-03 Eh
   gradient norm :     0.0037560 Eh/α   predicted    -0.1378961E-03 ( -24.05%)
   displ. norm   :     0.5276081 α      lambda       -0.2027615E-03
   maximum displ.:     0.3012363 α      in ANC's #3, #4, #12, ...

........................................................................
.............................. CYCLE   32 ..............................
........................................................................

 iter      E             dE          RMSdq      gap      omega  full diag
   1   -226.1488545 -0.226149E+03  0.360E-02    1.22       0.0  T
   2   -226.1488558 -0.134527E-05  0.215E-02    1.22       1.0  T
   3   -226.1488488  0.702071E-05  0.591E-03    1.22       1.4  T
   4   -226.1488565 -0.765321E-05  0.123E-03    1.23       6.5  T
   5   -226.1488567 -0.215344E-06  0.670E-04    1.22      11.9  T
   6   -226.1488567 -0.464902E-07  0.313E-04    1.22      25.6  T
     SCC iter.                  ...        0 min,  0.358 sec
     gradient                   ...        0 min,  0.084 sec
 * total energy  :  -222.8021862 Eh     change       -0.1763939E-03 Eh
   gradient norm :     0.0032585 Eh/α   predicted    -0.1296023E-03 ( -26.53%)
   displ. norm   :     0.5691319 α      lambda       -0.2141696E-03
   maximum displ.:     0.3267143 α      in ANC's #3, #4, #2, ...

........................................................................
.............................. CYCLE   33 ..............................
........................................................................

 iter      E             dE          RMSdq      gap      omega  full diag
   1   -226.1484850 -0.226148E+03  0.372E-02    1.22       0.0  T
   2   -226.1484861 -0.113166E-05  0.223E-02    1.22       1.0  T
   3   -226.1484763  0.975132E-05  0.664E-03    1.22       1.2  T
   4   -226.1484869 -0.105239E-04  0.127E-03    1.22       6.3  T
   5   -226.1484871 -0.264533E-06  0.659E-04    1.22      12.1  T
   6   -226.1484872 -0.403646E-07  0.287E-04    1.22      27.9  T
     SCC iter.                  ...        0 min,  0.346 sec
     gradient                   ...        0 min,  0.082 sec
 * total energy  :  -222.8023768 Eh     change       -0.1905779E-03 Eh
   gradient norm :     0.0041690 Eh/α   predicted    -0.1417723E-03 ( -25.61%)
   displ. norm   :     0.5938782 α      lambda       -0.2404958E-03
   maximum displ.:     0.3464896 α      in ANC's #3, #4, #2, ...

........................................................................
.............................. CYCLE   34 ..............................
........................................................................

 iter      E             dE          RMSdq      gap      omega  full diag
   1   -226.1501573 -0.226150E+03  0.351E-02    1.22       0.0  T
   2   -226.1501584 -0.105794E-05  0.209E-02    1.22       1.0  T
   3   -226.1501481  0.102971E-04  0.694E-03    1.22       1.2  T
   4   -226.1501593 -0.111893E-04  0.119E-03    1.22       6.7  T
   5   -226.1501595 -0.237769E-06  0.610E-04    1.22      13.1  T
   6   -226.1501595 -0.343124E-07  0.277E-04    1.22      28.9  T
     SCC iter.                  ...        0 min,  0.341 sec
     gradient                   ...        0 min,  0.081 sec
 * total energy  :  -222.8025728 Eh     change       -0.1960582E-03 Eh
   gradient norm :     0.0056934 Eh/α   predicted    -0.1626586E-03 ( -17.04%)
   displ. norm   :     0.6902674 α      lambda       -0.2565592E-03
   maximum displ.:     0.3941102 α      in ANC's #3, #4, #2, ...

........................................................................
.............................. CYCLE   35 ..............................
........................................................................

 iter      E             dE          RMSdq      gap      omega  full diag
   1   -226.1472775 -0.226147E+03  0.462E-02    1.22       0.0  T
   2   -226.1472793 -0.181428E-05  0.276E-02    1.22       1.0  T
   3   -226.1472691  0.102215E-04  0.694E-03    1.22       1.2  T
   4   -226.1472802 -0.111419E-04  0.152E-03    1.22       5.3  T
   5   -226.1472805 -0.319151E-06  0.859E-04    1.22       9.3  T
   6   -226.1472806 -0.750703E-07  0.363E-04    1.22      22.0  T
     SCC iter.                  ...        0 min,  0.331 sec
     gradient                   ...        0 min,  0.083 sec
 * total energy  :  -222.8027569 Eh     change       -0.1841188E-03 Eh
   gradient norm :     0.0052909 Eh/α   predicted    -0.1894012E-03 (   2.87%)
   displ. norm   :     0.5285897 α      lambda       -0.1840652E-03
   maximum displ.:     0.3144596 α      in ANC's #3, #4, #2, ...

........................................................................
.............................. CYCLE   36 ..............................
........................................................................

 iter      E             dE          RMSdq      gap      omega  full diag
   1   -226.1483269 -0.226148E+03  0.294E-02    1.22       0.0  T
   2   -226.1483276 -0.654469E-06  0.174E-02    1.22       1.0  T
   3   -226.1483245  0.304446E-05  0.391E-03    1.22       2.1  T
   4   -226.1483279 -0.337552E-05  0.785E-04    1.22      10.2  T
   5   -226.1483280 -0.790862E-07  0.414E-04    1.22      19.4  T
   6   -226.1483280 -0.112891E-07  0.208E-04    1.22      38.5  T
     SCC iter.                  ...        0 min,  0.336 sec
     gradient                   ...        0 min,  0.079 sec
 * total energy  :  -222.8029155 Eh     change       -0.1585624E-03 Eh
   gradient norm :     0.0038571 Eh/α   predicted    -0.1177499E-03 ( -25.74%)
   displ. norm   :     0.5377477 α      lambda       -0.1816561E-03
   maximum displ.:     0.3254661 α      in ANC's #3, #4, #2, ...

........................................................................
.............................. CYCLE   37 ..............................
........................................................................

 iter      E             dE          RMSdq      gap      omega  full diag
   1   -226.1503417 -0.226150E+03  0.288E-02    1.21       0.0  T
   2   -226.1503424 -0.737720E-06  0.171E-02    1.21       1.0  T
   3   -226.1503398  0.257449E-05  0.385E-03    1.21       2.1  T
   4   -226.1503427 -0.290527E-05  0.724E-04    1.21      11.1  T
   5   -226.1503428 -0.546553E-07  0.377E-04    1.21      21.2  T
   6   -226.1503428 -0.921071E-08  0.193E-04    1.21      41.5  T
     SCC iter.                  ...        0 min,  0.282 sec
     gradient                   ...        0 min,  0.086 sec
 * total energy  :  -222.8030727 Eh     change       -0.1571536E-03 Eh
   gradient norm :     0.0028436 Eh/α   predicted    -0.1170961E-03 ( -25.49%)
   displ. norm   :     0.5956027 α      lambda       -0.1775874E-03
   maximum displ.:     0.3610317 α      in ANC's #3, #4, #2, ...

........................................................................
.............................. CYCLE   38 ..............................
........................................................................

 iter      E             dE          RMSdq      gap      omega  full diag
   1   -226.1509159 -0.226151E+03  0.322E-02    1.21       0.0  T
   2   -226.1509166 -0.757603E-06  0.191E-02    1.21       1.0  T
   3   -226.1509133  0.329783E-05  0.438E-03    1.21       1.8  T
   4   -226.1509170 -0.371911E-05  0.765E-04    1.21      10.5  T
   5   -226.1509171 -0.523225E-07  0.431E-04    1.21      18.6  T
   6   -226.1509171 -0.134797E-07  0.204E-04    1.21      39.2  T
     SCC iter.                  ...        0 min,  0.325 sec
     gradient                   ...        0 min,  0.082 sec
 * total energy  :  -222.8032341 Eh     change       -0.1614291E-03 Eh
   gradient norm :     0.0030911 Eh/α   predicted    -0.1202991E-03 ( -25.48%)
   displ. norm   :     0.5848927 α      lambda       -0.1800330E-03
   maximum displ.:     0.3587708 α      in ANC's #3, #4, #2, ...

........................................................................
.............................. CYCLE   39 ..............................
........................................................................

 iter      E             dE          RMSdq      gap      omega  full diag
   1   -226.1518593 -0.226152E+03  0.307E-02    1.21       0.0  T
   2   -226.1518600 -0.701779E-06  0.182E-02    1.21       1.0  T
   3   -226.1518561  0.392082E-05  0.476E-03    1.21       1.7  T
   4   -226.1518605 -0.439500E-05  0.750E-04    1.21      10.7  T
   5   -226.1518605 -0.502417E-07  0.435E-04    1.21      18.4  T
   6   -226.1518605 -0.156548E-07  0.206E-04    1.21      38.8  T
     SCC iter.                  ...        0 min,  0.409 sec
     gradient                   ...        0 min,  0.082 sec
 * total energy  :  -222.8034006 Eh     change       -0.1665424E-03 Eh
   gradient norm :     0.0036691 Eh/α   predicted    -0.1208145E-03 ( -27.46%)
   displ. norm   :     0.6288746 α      lambda       -0.2005352E-03
   maximum displ.:     0.3866315 α      in ANC's #3, #4, #2, ...

........................................................................
.............................. CYCLE   40 ..............................
........................................................................

 iter      E             dE          RMSdq      gap      omega  full diag
   1   -226.1517909 -0.226152E+03  0.325E-02    1.20       0.0  T
   2   -226.1517917 -0.808811E-06  0.193E-02    1.20       1.0  T
   3   -226.1517859  0.575076E-05  0.546E-03    1.20       1.5  T
   4   -226.1517923 -0.636382E-05  0.875E-04    1.20       9.2  T
   5   -226.1517924 -0.888491E-07  0.496E-04    1.20      16.1  T
   6   -226.1517924 -0.217748E-07  0.237E-04    1.20      33.8  T
     SCC iter.                  ...        0 min,  0.353 sec
     gradient                   ...        0 min,  0.081 sec
 * total energy  :  -222.8035875 Eh     change       -0.1868468E-03 Eh
   gradient norm :     0.0038991 Eh/α   predicted    -0.1399257E-03 ( -25.11%)
   displ. norm   :     0.6689952 α      lambda       -0.2270906E-03
   maximum displ.:     0.4135773 α      in ANC's #3, #4, #2, ...

........................................................................
.............................. CYCLE   41 ..............................
........................................................................

 iter      E             dE          RMSdq      gap      omega  full diag
   1   -226.1523638 -0.226152E+03  0.330E-02    1.20       0.0  T
   2   -226.1523648 -0.946914E-06  0.195E-02    1.20       1.0  T
   3   -226.1523554  0.935158E-05  0.671E-03    1.20       1.2  T
   4   -226.1523657 -0.102559E-04  0.963E-04    1.20       8.3  T
   5   -226.1523658 -0.142607E-06  0.498E-04    1.20      16.1  T
   6   -226.1523658 -0.241816E-07  0.253E-04    1.20      31.7  T
     SCC iter.                  ...        0 min,  0.361 sec
     gradient                   ...        0 min,  0.083 sec
 * total energy  :  -222.8037970 Eh     change       -0.2095558E-03 Eh
   gradient norm :     0.0035459 Eh/α   predicted    -0.1643660E-03 ( -21.56%)
   displ. norm   :     0.7255876 α      lambda       -0.2471406E-03
   maximum displ.:     0.4474632 α      in ANC's #3, #4, #2, ...

........................................................................
.............................. CYCLE   42 ..............................
........................................................................

 iter      E             dE          RMSdq      gap      omega  full diag
   1   -226.1516937 -0.226152E+03  0.351E-02    1.20       0.0  T
   2   -226.1516947 -0.103796E-05  0.208E-02    1.20       1.0  T
   3   -226.1516826  0.121757E-04  0.737E-03    1.20       1.1  T
   4   -226.1516959 -0.132995E-04  0.107E-03    1.20       7.5  T
   5   -226.1516960 -0.186789E-06  0.547E-04    1.20      14.6  T
   6   -226.1516961 -0.264100E-07  0.280E-04    1.20      28.6  T
     SCC iter.                  ...        0 min,  0.350 sec
     gradient                   ...        0 min,  0.075 sec
 * total energy  :  -222.8040262 Eh     change       -0.2291842E-03 Eh
   gradient norm :     0.0027154 Eh/α   predicted    -0.1886324E-03 ( -17.69%)
   displ. norm   :     0.7357211 α      lambda       -0.2503497E-03
   maximum displ.:     0.4544813 α      in ANC's #3, #4, #2, ...
 * RMSD in coord.:     0.8220288 α      energy gain  -0.3777439E-02 Eh

generating ANC from model Hessian ...
Using Lindh-Hessian (1995)
 Shifting diagonal of input Hessian by    1.0009760324643104E-002
 Lowest  eigenvalues of input Hessian
    0.010000    0.000000    0.000000    0.000000    0.000000    0.000000
    0.000000    0.010011    0.010027    0.010061    0.010106    0.010168
    0.010184    0.010238    0.010258    0.010276    0.010306    0.010363
 Highest eigenvalues
    2.094355    2.096260    2.189053    2.191953    2.217670    2.220823


........................................................................
.............................. CYCLE   43 ..............................
........................................................................

 iter      E             dE          RMSdq      gap      omega  full diag
   1   -226.1515647 -0.226152E+03  0.337E-02    1.19       0.0  T
   2   -226.1515657 -0.959742E-06  0.199E-02    1.19       1.0  T
   3   -226.1515515  0.141550E-04  0.792E-03    1.19       1.0  T
   4   -226.1515670 -0.154721E-04  0.105E-03    1.19       7.6  T
   5   -226.1515672 -0.213463E-06  0.469E-04    1.19      17.1  T
   6   -226.1515672 -0.201681E-07  0.242E-04    1.19      33.1  T
     SCC iter.                  ...        0 min,  0.420 sec
     gradient                   ...        0 min,  0.083 sec
 * total energy  :  -222.8042611 Eh     change       -0.2349398E-03 Eh
   gradient norm :     0.0026265 Eh/α   predicted     0.0000000E+00 (-100.00%)
   displ. norm   :     0.0567723 α      lambda       -0.5188926E-04
   maximum displ.:     0.0296687 α      in ANC's #3, #9, #12, ...

........................................................................
.............................. CYCLE   44 ..............................
........................................................................

 iter      E             dE          RMSdq      gap      omega  full diag
   1   -226.1519496 -0.226152E+03  0.690E-03    1.19       0.0  T
   2   -226.1519497 -0.133436E-06  0.411E-03    1.19       1.9  T
   3   -226.1519492  0.475664E-06  0.166E-03    1.19       4.8  T
   4   -226.1519497 -0.514629E-06  0.405E-04    1.19      19.8  T
   5   -226.1519498 -0.359744E-07  0.153E-04    1.19      52.4  T
     SCC iter.                  ...        0 min,  0.350 sec
     gradient                   ...        0 min,  0.076 sec
 * total energy  :  -222.8043080 Eh     change       -0.4684715E-04 Eh
   gradient norm :     0.0012911 Eh/α   predicted    -0.2616827E-04 ( -44.14%)
   displ. norm   :     0.3905576 α      lambda       -0.1871338E-03
   maximum displ.:     0.1950778 α      in ANC's #3, #9, #12, ...

........................................................................
.............................. CYCLE   45 ..............................
........................................................................

 iter      E             dE          RMSdq      gap      omega  full diag
   1   -226.1520904 -0.226152E+03  0.425E-02    1.19       0.0  T
   2   -226.1520928 -0.244986E-05  0.254E-02    1.19       1.0  T
   3   -226.1520820  0.108308E-04  0.807E-03    1.19       1.0  T
   4   -226.1520942 -0.121813E-04  0.153E-03    1.19       5.2  T
   5   -226.1520945 -0.253543E-06  0.845E-04    1.19       9.5  T
   6   -226.1520945 -0.535921E-07  0.357E-04    1.19      22.4  T
     SCC iter.                  ...        0 min,  0.501 sec
     gradient                   ...        0 min,  0.085 sec
 * total energy  :  -222.8044645 Eh     change       -0.1565276E-03 Eh
   gradient norm :     0.0054346 Eh/α   predicted    -0.9991217E-04 ( -36.17%)
   displ. norm   :     0.1227440 α      lambda       -0.6570902E-04
   maximum displ.:     0.0689540 α      in ANC's #3, #9, #12, ...

........................................................................
.............................. CYCLE   46 ..............................
........................................................................

 iter      E             dE          RMSdq      gap      omega  full diag
   1   -226.1521914 -0.226152E+03  0.929E-03    1.19       0.0  T
   2   -226.1521916 -0.148434E-06  0.572E-03    1.19       1.4  T
   3   -226.1521890  0.259412E-05  0.331E-03    1.19       2.4  T
   4   -226.1521919 -0.288458E-05  0.481E-04    1.19      16.6  T
   5   -226.1521919 -0.404465E-07  0.222E-04    1.19      36.1  T
   6   -226.1521919 -0.340813E-08  0.126E-04    1.19      63.5  T
     SCC iter.                  ...        0 min,  0.354 sec
     gradient                   ...        0 min,  0.084 sec
 * total energy  :  -222.8045247 Eh     change       -0.6013323E-04 Eh
   gradient norm :     0.0043723 Eh/α   predicted    -0.3335027E-04 ( -44.54%)
   displ. norm   :     0.3200691 α      lambda       -0.1767755E-03
   maximum displ.:     0.1775011 α      in ANC's #3, #9, #12, ...

........................................................................
.............................. CYCLE   47 ..............................
........................................................................

 iter      E             dE          RMSdq      gap      omega  full diag
   1   -226.1521800 -0.226152E+03  0.216E-02    1.18       0.0  T
   2   -226.1521813 -0.126253E-05  0.133E-02    1.18       1.0  T
   3   -226.1521668  0.144888E-04  0.822E-03    1.18       1.0  T
   4   -226.1521832 -0.164047E-04  0.143E-03    1.18       5.6  T
   5   -226.1521837 -0.427524E-06  0.539E-04    1.18      14.8  T
   6   -226.1521837 -0.285532E-07  0.285E-04    1.18      28.1  T
     SCC iter.                  ...        0 min,  0.351 sec
     gradient                   ...        0 min,  0.084 sec
 * total energy  :  -222.8046658 Eh     change       -0.1411835E-03 Eh
   gradient norm :     0.0012672 Eh/α   predicted    -0.9744298E-04 ( -30.98%)
   displ. norm   :     0.6310333 α      lambda       -0.1601400E-03
   maximum displ.:     0.3499671 α      in ANC's #3, #9, #12, ...

........................................................................
.............................. CYCLE   48 ..............................
........................................................................

 iter      E             dE          RMSdq      gap      omega  full diag
   1   -226.1509751 -0.226151E+03  0.418E-02    1.17       0.0  T
   2   -226.1509779 -0.281877E-05  0.254E-02    1.18       1.0  T
   3   -226.1509330  0.449654E-04  0.139E-02    1.17       1.0  T
   4   -226.1509822 -0.492384E-04  0.216E-03    1.18       3.7  T
   5   -226.1509831 -0.934448E-06  0.888E-04    1.17       9.0  T
   6   -226.1509832 -0.694401E-07  0.459E-04    1.17      17.5  T
     SCC iter.                  ...        0 min,  0.492 sec
     gradient                   ...        0 min,  0.079 sec
 * total energy  :  -222.8048496 Eh     change       -0.1837779E-03 Eh
   gradient norm :     0.0044530 Eh/α   predicted    -0.9425051E-04 ( -48.71%)
   displ. norm   :     0.3876775 α      lambda       -0.1376862E-03
   maximum displ.:     0.2161871 α      in ANC's #3, #9, #12, ...

........................................................................
.............................. CYCLE   49 ..............................
........................................................................

 iter      E             dE          RMSdq      gap      omega  full diag
   1   -226.1511497 -0.226151E+03  0.258E-02    1.17       0.0  T
   2   -226.1511501 -0.435908E-06  0.154E-02    1.17       1.0  T
   3   -226.1511444  0.571747E-05  0.492E-03    1.17       1.6  T
   4   -226.1511506 -0.614608E-05  0.853E-04    1.17       9.4  T
   5   -226.1511507 -0.106915E-06  0.451E-04    1.17      17.8  T
   6   -226.1511507 -0.165414E-07  0.188E-04    1.17      42.6  T
     SCC iter.                  ...        0 min,  0.433 sec
     gradient                   ...        0 min,  0.078 sec
 * total energy  :  -222.8049784 Eh     change       -0.1287644E-03 Eh
   gradient norm :     0.0044999 Eh/α   predicted    -0.7919013E-04 ( -38.50%)
   displ. norm   :     0.5489197 α      lambda       -0.2282616E-03
   maximum displ.:     0.3061825 α      in ANC's #3, #9, #12, ...

........................................................................
.............................. CYCLE   50 ..............................
........................................................................

 iter      E             dE          RMSdq      gap      omega  full diag
   1   -226.1521837 -0.226152E+03  0.355E-02    1.17       0.0  T
   2   -226.1521845 -0.838888E-06  0.212E-02    1.17       1.0  T
   3   -226.1521804  0.418953E-05  0.462E-03    1.17       1.7  T
   4   -226.1521850 -0.462198E-05  0.101E-03    1.17       7.9  T
   5   -226.1521851 -0.116212E-06  0.573E-04    1.17      14.0  T
   6   -226.1521851 -0.312488E-07  0.243E-04    1.17      32.9  T
     SCC iter.                  ...        0 min,  0.395 sec
     gradient                   ...        0 min,  0.083 sec
 * total energy  :  -222.8051828 Eh     change       -0.2044426E-03 Eh
   gradient norm :     0.0033187 Eh/α   predicted    -0.1485200E-03 ( -27.35%)
   displ. norm   :     0.6397823 α      lambda       -0.2496366E-03
   maximum displ.:     0.3617512 α      in ANC's #3, #9, #2, ...

........................................................................
.............................. CYCLE   51 ..............................
........................................................................

 iter      E             dE          RMSdq      gap      omega  full diag
   1   -226.1525990 -0.226153E+03  0.395E-02    1.17       0.0  T
   2   -226.1526003 -0.127370E-05  0.236E-02    1.17       1.0  T
   3   -226.1525943  0.599173E-05  0.561E-03    1.17       1.4  T
   4   -226.1526010 -0.667550E-05  0.110E-03    1.16       7.3  T
   5   -226.1526011 -0.133291E-06  0.601E-04    1.16      13.3  T
   6   -226.1526011 -0.267646E-07  0.285E-04    1.16      28.1  T
     SCC iter.                  ...        0 min,  0.361 sec
     gradient                   ...        0 min,  0.083 sec
 * total energy  :  -222.8053992 Eh     change       -0.2164019E-03 Eh
   gradient norm :     0.0021574 Eh/α   predicted    -0.1759174E-03 ( -18.71%)
   displ. norm   :     0.6145247 α      lambda       -0.2167220E-03
   maximum displ.:     0.3545652 α      in ANC's #3, #9, #2, ...

........................................................................
.............................. CYCLE   52 ..............................
........................................................................

 iter      E             dE          RMSdq      gap      omega  full diag
   1   -226.1528415 -0.226153E+03  0.355E-02    1.16       0.0  T
   2   -226.1528427 -0.118150E-05  0.212E-02    1.16       1.0  T
   3   -226.1528357  0.700416E-05  0.604E-03    1.16       1.3  T
   4   -226.1528434 -0.775732E-05  0.102E-03    1.16       7.8  T
   5   -226.1528436 -0.135663E-06  0.541E-04    1.16      14.8  T
   6   -226.1528436 -0.231651E-07  0.265E-04    1.16      30.2  T
     SCC iter.                  ...        0 min,  0.373 sec
     gradient                   ...        0 min,  0.083 sec
 * total energy  :  -222.8055899 Eh     change       -0.1906701E-03 Eh
   gradient norm :     0.0023434 Eh/α   predicted    -0.1492862E-03 ( -21.70%)
   displ. norm   :     0.5794333 α      lambda       -0.2006947E-03
   maximum displ.:     0.3402665 α      in ANC's #3, #9, #2, ...

........................................................................
.............................. CYCLE   53 ..............................
........................................................................

 iter      E             dE          RMSdq      gap      omega  full diag
   1   -226.1526887 -0.226153E+03  0.322E-02    1.16       0.0  T
   2   -226.1526896 -0.945455E-06  0.191E-02    1.16       1.0  T
   3   -226.1526825  0.715999E-05  0.589E-03    1.16       1.4  T
   4   -226.1526903 -0.780995E-05  0.101E-03    1.16       7.9  T
   5   -226.1526905 -0.177316E-06  0.511E-04    1.16      15.7  T
   6   -226.1526905 -0.255080E-07  0.243E-04    1.16      33.0  T
     SCC iter.                  ...        0 min,  0.473 sec
     gradient                   ...        0 min,  0.079 sec
 * total energy  :  -222.8057744 Eh     change       -0.1845257E-03 Eh
   gradient norm :     0.0029630 Eh/α   predicted    -0.1340444E-03 ( -27.36%)
   displ. norm   :     0.5878773 α      lambda       -0.2250099E-03
   maximum displ.:     0.3507320 α      in ANC's #3, #9, #2, ...

........................................................................
.............................. CYCLE   54 ..............................
........................................................................

 iter      E             dE          RMSdq      gap      omega  full diag
   1   -226.1527684 -0.226153E+03  0.320E-02    1.15       0.0  T
   2   -226.1527693 -0.932051E-06  0.190E-02    1.15       1.0  T
   3   -226.1527572  0.120825E-04  0.713E-03    1.15       1.1  T
   4   -226.1527703 -0.130367E-04  0.115E-03    1.15       6.9  T
   5   -226.1527706 -0.281635E-06  0.505E-04    1.15      15.8  T
   6   -226.1527706 -0.217341E-07  0.250E-04    1.15      32.0  T
     SCC iter.                  ...        0 min,  0.433 sec
     gradient                   ...        0 min,  0.082 sec
 * total energy  :  -222.8059829 Eh     change       -0.2084826E-03 Eh
   gradient norm :     0.0032150 Eh/α   predicted    -0.1513891E-03 ( -27.39%)
   displ. norm   :     0.6355530 α      lambda       -0.2538532E-03
   maximum displ.:     0.3829723 α      in ANC's #3, #2, #9, ...

........................................................................
.............................. CYCLE   55 ..............................
........................................................................

 iter      E             dE          RMSdq      gap      omega  full diag
   1   -226.1522682 -0.226152E+03  0.348E-02    1.15       0.0  T
   2   -226.1522694 -0.115283E-05  0.208E-02    1.14       1.0  T
   3   -226.1522419  0.274509E-04  0.104E-02    1.14       1.0  T
   4   -226.1522718 -0.298483E-04  0.144E-03    1.14       5.6  T
   5   -226.1522722 -0.433290E-06  0.581E-04    1.14      13.8  T
   6   -226.1522723 -0.247468E-07  0.310E-04    1.14      25.8  T
     SCC iter.                  ...        0 min,  0.500 sec
     gradient                   ...        0 min,  0.084 sec
 * total energy  :  -222.8062145 Eh     change       -0.2316262E-03 Eh
   gradient norm :     0.0029208 Eh/α   predicted    -0.1781974E-03 ( -23.07%)
   displ. norm   :     0.6396029 α      lambda       -0.2520653E-03
   maximum displ.:     0.3924513 α      in ANC's #3, #2, #4, ...

........................................................................
.............................. CYCLE   56 ..............................
........................................................................

 iter      E             dE          RMSdq      gap      omega  full diag
   1   -226.1532703 -0.226153E+03  0.339E-02    1.14       0.0  T
   2   -226.1532717 -0.138691E-05  0.203E-02    1.14       1.0  T
   3   -226.1532371  0.345385E-04  0.118E-02    1.13       1.0  T
   4   -226.1532753 -0.381853E-04  0.162E-03    1.13       4.9  T
   5   -226.1532759 -0.582103E-06  0.599E-04    1.13      13.4  T
   6   -226.1532759 -0.306214E-07  0.331E-04    1.13      24.2  T
     SCC iter.                  ...        0 min,  0.338 sec
     gradient                   ...        0 min,  0.083 sec
 * total energy  :  -222.8064353 Eh     change       -0.2207999E-03 Eh
   gradient norm :     0.0025005 Eh/α   predicted    -0.1775952E-03 ( -19.57%)
   displ. norm   :     0.6292870 α      lambda       -0.2213640E-03
   maximum displ.:     0.3855013 α      in ANC's #3, #2, #4, ...

........................................................................
.............................. CYCLE   57 ..............................
........................................................................

 iter      E             dE          RMSdq      gap      omega  full diag
   1   -226.1522808 -0.226152E+03  0.338E-02    1.13       0.0  T
   2   -226.1522821 -0.132363E-05  0.205E-02    1.13       1.0  T
   3   -226.1522416  0.404652E-04  0.128E-02    1.12       1.0  T
   4   -226.1522869 -0.452742E-04  0.173E-03    1.12       4.6  T
   5   -226.1522875 -0.613057E-06  0.653E-04    1.12      12.3  T
   6   -226.1522875 -0.309855E-07  0.365E-04    1.13      22.0  T
     SCC iter.                  ...        0 min,  0.356 sec
     gradient                   ...        0 min,  0.083 sec
 * total energy  :  -222.8066264 Eh     change       -0.1910717E-03 Eh
   gradient norm :     0.0021399 Eh/α   predicted    -0.1545132E-03 ( -19.13%)
   displ. norm   :     0.5573773 α      lambda       -0.1924453E-03
   maximum displ.:     0.3483953 α      in ANC's #3, #2, #4, ...

........................................................................
.............................. CYCLE   58 ..............................
........................................................................

 iter      E             dE          RMSdq      gap      omega  full diag
   1   -226.1538571 -0.226154E+03  0.267E-02    1.12       0.0  T
   2   -226.1538581 -0.953475E-06  0.160E-02    1.12       1.0  T
   3   -226.1538339  0.241339E-04  0.101E-02    1.12       1.0  T
   4   -226.1538611 -0.271252E-04  0.142E-03    1.12       5.7  T
   5   -226.1538615 -0.446710E-06  0.494E-04    1.12      16.2  T
   6   -226.1538615 -0.228395E-07  0.267E-04    1.12      30.0  T
     SCC iter.                  ...        0 min,  0.511 sec
     gradient                   ...        0 min,  0.081 sec
 * total energy  :  -222.8068016 Eh     change       -0.1751637E-03 Eh
   gradient norm :     0.0021451 Eh/α   predicted    -0.1261166E-03 ( -28.00%)
   displ. norm   :     0.5373433 α      lambda       -0.1900241E-03
   maximum displ.:     0.3360929 α      in ANC's #3, #2, #4, ...

........................................................................
.............................. CYCLE   59 ..............................
........................................................................

 iter      E             dE          RMSdq      gap      omega  full diag
   1   -226.1549198 -0.226155E+03  0.244E-02    1.11       0.0  T
   2   -226.1549205 -0.669279E-06  0.146E-02    1.11       1.0  T
   3   -226.1549029  0.176442E-04  0.860E-03    1.11       1.0  T
   4   -226.1549224 -0.195551E-04  0.119E-03    1.11       6.7  T
   5   -226.1549227 -0.316204E-06  0.424E-04    1.11      18.9  T
   6   -226.1549228 -0.153737E-07  0.224E-04    1.11      35.8  T
     SCC iter.                  ...        0 min,  0.638 sec
     gradient                   ...        0 min,  0.084 sec
 * total energy  :  -222.8069838 Eh     change       -0.1821922E-03 Eh
   gradient norm :     0.0026592 Eh/α   predicted    -0.1224460E-03 ( -32.79%)
   displ. norm   :     0.5858039 α      lambda       -0.2324205E-03
   maximum displ.:     0.3669946 α      in ANC's #3, #2, #4, ...

........................................................................
.............................. CYCLE   60 ..............................
........................................................................

 iter      E             dE          RMSdq      gap      omega  full diag
   1   -226.1558304 -0.226156E+03  0.254E-02    1.11       0.0  T
   2   -226.1558310 -0.679012E-06  0.151E-02    1.11       1.0  T
   3   -226.1558192  0.118633E-04  0.721E-03    1.10       1.1  T
   4   -226.1558321 -0.129305E-04  0.107E-03    1.11       7.5  T
   5   -226.1558324 -0.261782E-06  0.413E-04    1.11      19.4  T
[...]
    67   1 H    0.998 --    34 C    0.983
    68   1 H    0.999 --    34 C    0.986
    69   1 H    0.999 --    34 C    0.985
    70   1 H    0.999 --    33 C    0.986
    71   1 H    0.999 --    33 C    0.987
    72   1 H    0.999 --    33 C    0.984
    73   1 H    0.998 --    15 C    0.960
    74   1 H    0.997 --    17 C    0.961
    75   1 H    0.997 --     5 C    0.959
    76   1 H    0.999 --     1 C    0.959
    77   1 H    0.999 --    19 C    0.959
    78   1 H    0.998 --    21 C    0.960
    79   6 C    3.971 --    80 C    1.464    84 C    1.317   154 H    0.956
    80   6 C    3.922 --    79 C    1.464    81 C    1.227   101 O    1.039
    81   6 C    3.978 --    82 C    1.302    80 C    1.227    85 C    1.191
    82   6 C    3.974 --    83 C    1.319    81 C    1.302    88 C    1.102
    83   6 C    3.986 --    84 C    1.491    82 C    1.319   153 H    0.961
    84   6 C    3.969 --    83 C    1.491    79 C    1.317   110 C    0.981
    85   6 C    3.976 --    86 C    1.301    89 C    1.193    81 C    1.191
    86   6 C    3.986 --    85 C    1.301    87 C    1.229    92 C    1.224
    87   6 C    3.981 --    95 C    1.404    86 C    1.229    88 C    1.089
    88   6 C    3.941 --   102 O    1.600    82 C    1.102    87 C    1.089
    89   6 C    3.977 --    90 C    1.298    96 C    1.227    85 C    1.193
    90   6 C    3.974 --    99 C    1.321    89 C    1.298    91 C    1.102
    91   6 C    3.941 --   103 O    1.600    90 C    1.102    92 C    1.087
    92   6 C    3.982 --    93 C    1.415    86 C    1.224    91 C    1.087
    93   6 C    3.987 --    92 C    1.415    94 C    1.394   151 H    0.960
    94   6 C    3.970 --    95 C    1.408    93 C    1.394   114 C    0.977
    95   6 C    3.986 --    94 C    1.408    87 C    1.404   152 H    0.961
    96   6 C    3.924 --    97 C    1.462    89 C    1.227   100 O    1.044
    97   6 C    3.972 --    96 C    1.462    98 C    1.318   155 H    0.958
    98   6 C    3.967 --    99 C    1.490    97 C    1.318   106 C    0.980
    99   6 C    3.986 --    98 C    1.490    90 C    1.321   156 H    0.961
   100   8 O    2.218 --    96 C    1.044   104 C    0.989
   101   8 O    2.215 --    80 C    1.039   105 C    0.994
   102   8 O    1.891 --    88 C    1.600
   103   8 O    1.892 --    91 C    1.600
   104   6 C    3.951 --   100 O    0.989   136 H    0.978   138 H    0.974
                           137 H    0.973
   105   6 C    3.954 --   101 O    0.994   139 H    0.981   140 H    0.976
                           141 H    0.968
   106   6 C    3.989 --   107 C    0.999   109 C    0.991   108 C    0.987
                            98 C    0.980
   107   6 C    3.997 --   106 C    0.999   135 H    0.986   133 H    0.986
                           134 H    0.985
   108   6 C    3.996 --   132 H    0.988   106 C    0.987   130 H    0.983
                           131 H    0.980
   109   6 C    3.995 --   106 C    0.991   128 H    0.987   127 H    0.985
                           129 H    0.981
   110   6 C    3.989 --   111 C    0.999   113 C    0.989   112 C    0.989
                            84 C    0.981
   111   6 C    3.997 --   110 C    0.999   148 H    0.986   150 H    0.986
                           149 H    0.985
   112   6 C    3.995 --   110 C    0.989   145 H    0.988   146 H    0.986
                           147 H    0.983
   113   6 C    3.992 --   110 C    0.989   143 H    0.986   142 H    0.986
                           144 H    0.976
   114   6 C    3.988 --   115 C    0.999   116 C    0.990   117 C    0.990
                            94 C    0.977
   115   6 C    3.997 --   114 C    0.999   121 H    0.986   123 H    0.985
                           122 H    0.985
   116   6 C    3.995 --   114 C    0.990   125 H    0.987   124 H    0.986
                           126 H    0.983
   117   6 C    3.995 --   114 C    0.990   120 H    0.987   118 H    0.986
                           119 H    0.984
   118   1 H    0.999 --   117 C    0.986
   119   1 H    0.999 --   117 C    0.984
   120   1 H    0.999 --   117 C    0.987
   121   1 H    0.999 --   115 C    0.986
   122   1 H    0.999 --   115 C    0.985
   123   1 H    0.999 --   115 C    0.985
   124   1 H    0.999 --   116 C    0.986
   125   1 H    0.999 --   116 C    0.987
   126   1 H    0.999 --   116 C    0.983
   127   1 H    0.999 --   109 C    0.985
   128   1 H    0.999 --   109 C    0.987
   129   1 H    0.998 --   109 C    0.981
   130   1 H    0.999 --   108 C    0.983
   131   1 H    0.999 --   108 C    0.980
   132   1 H    1.000 --   108 C    0.988
   133   1 H    0.999 --   107 C    0.986
   134   1 H    0.999 --   107 C    0.985
   135   1 H    0.999 --   107 C    0.986
   136   1 H    0.997 --   104 C    0.978
   137   1 H    0.999 --   104 C    0.973
   138   1 H    0.999 --   104 C    0.974
   139   1 H    0.998 --   105 C    0.981
   140   1 H    0.999 --   105 C    0.976
   141   1 H    0.997 --   105 C    0.968
   142   1 H    0.999 --   113 C    0.986
   143   1 H    0.999 --   113 C    0.986
   144   1 H    0.996 --   113 C    0.976
   145   1 H    1.000 --   112 C    0.988
   146   1 H    0.999 --   112 C    0.986
   147   1 H    0.998 --   112 C    0.983
   148   1 H    0.999 --   111 C    0.986
   149   1 H    0.999 --   111 C    0.985
   150   1 H    0.999 --   111 C    0.986
   151   1 H    0.998 --    93 C    0.960
   152   1 H    0.998 --    95 C    0.961
   153   1 H    0.998 --    83 C    0.961
   154   1 H    0.998 --    79 C    0.956
   155   1 H    0.999 --    97 C    0.958
   156   1 H    0.998 --    99 C    0.961
 ---------------------------------------------------------------------------

Topologies differ in bond orders
Writing corrected topology to xtbtopo.mol

molecular dipole:
                 x           y           z       tot (Debye)
 q only:       -2.011       7.485     -18.424
   full:       -2.679       7.792     -18.808      52.192
molecular quadrupole (traceless):
                xx          xy          yy          xz          yz          zz
 q only:      178.016     -32.347      90.775     -90.055      93.235    -268.791
  q+dip:      193.023     -30.518      92.212     -96.638      95.753    -285.235
   full:      193.929     -35.695      88.658     -98.001      93.086    -282.586

           -------------------------------------------------
          |                Geometry Summary                 |
           -------------------------------------------------

      molecular mass/u    :     1047.3661309
   center of mass at/Å    :       -0.2389285      -1.5595794       3.9951524
  moments of inertia/u·Å² :        0.1560699E+05   0.2624008E+05   0.3060651E+05
rotational constants/cm⁻¹ :        0.1080133E-02   0.6424382E-03   0.5507859E-03

 * 150 selected distances

     #   Z          #   Z                                           value/Å
     1   6 C        2   6 C                                       1.3737331
     2   6 C        3   6 C                                       1.4219122
     3   6 C        4   6 C                                       1.4101488
     4   6 C        5   6 C                                       1.4007452
     1   6 C        6   6 C                                       1.4061348
     5   6 C        6   6 C                                       1.3721291
     3   6 C        7   6 C                                       1.4274081
     7   6 C        8   6 C                                       1.4075817
     8   6 C        9   6 C                                       1.4170222
     7   6 C       11   6 C                                       1.4291188
    11   6 C       12   6 C                                       1.4092794
     8   6 C       14   6 C                                       1.4187797
    14   6 C       15   6 C                                       1.3867173
    15   6 C       16   6 C                                       1.3911964
     9   6 C       17   6 C                                       1.3911627
    16   6 C       17   6 C                                       1.3861484
    11   6 C       18   6 C                                       1.4223083
    18   6 C       19   6 C                                       1.3745775
    19   6 C       20   6 C                                       1.4061241
    12   6 C       21   6 C                                       1.4007692
    20   6 C       21   6 C                                       1.3725446
    18   6 C       22   8 O                                       1.3749191
     2   6 C       23   8 O                                       1.3785909
    10   6 C       24   8 O                                       1.2408454
    13   6 C       25   8 O                                       1.2395049
    22   8 O       26   6 C                                       1.3962424
    23   8 O       27   6 C                                       1.3937188
    28   6 C       29   6 C                                       1.5312600
    28   6 C       30   6 C                                       1.5342804
    28   6 C       31   6 C                                       1.5362209
    32   6 C       33   6 C                                       1.5354648
    32   6 C       34   6 C                                       1.5304782
    32   6 C       35   6 C                                       1.5362394 (max)
    36   6 C       37   6 C                                       1.5310067
    36   6 C       38   6 C                                       1.5355068
    36   6 C       39   6 C                                       1.5349533
    39   6 C       40   1 H                                       1.0900857
    39   6 C       41   1 H                                       1.0864671
    39   6 C       42   1 H                                       1.0879760
    37   6 C       43   1 H                                       1.0901663
    37   6 C       44   1 H                                       1.0870663
    37   6 C       45   1 H                                       1.0876225
    38   6 C       46   1 H                                       1.0901405
    38   6 C       47   1 H                                       1.0885811
    38   6 C       48   1 H                                       1.0864526
    31   6 C       49   1 H                                       1.0901887
    31   6 C       50   1 H                                       1.0882909
    31   6 C       51   1 H                                       1.0867929
    30   6 C       52   1 H                                       1.0902689
    30   6 C       53   1 H                                       1.0867288
    30   6 C       54   1 H                                       1.0876153
    29   6 C       55   1 H                                       1.0904111
    29   6 C       56   1 H                                       1.0867908
    29   6 C       57   1 H                                       1.0872114
    26   6 C       58   1 H                                       1.0908017
    26   6 C       59   1 H                                       1.0977875
    26   6 C       60   1 H                                       1.0978234
    27   6 C       61   1 H                                       1.0910869
    27   6 C       62   1 H                                       1.0991295
    27   6 C       63   1 H                                       1.0978940
    35   6 C       64   1 H                                       1.0899420
    35   6 C       65   1 H                                       1.0873213
    35   6 C       66   1 H                                       1.0882010
    34   6 C       67   1 H                                       1.0861907
    34   6 C       68   1 H                                       1.0900319
    34   6 C       69   1 H                                       1.0869883
    33   6 C       70   1 H                                       1.0899205
    33   6 C       71   1 H                                       1.0874992
    33   6 C       72   1 H                                       1.0872480
    15   6 C       73   1 H                                       1.0814025
    17   6 C       74   1 H                                       1.0793659
     5   6 C       75   1 H                                       1.0779155
     1   6 C       76   1 H                                       1.0799598
    19   6 C       77   1 H                                       1.0797565
    21   6 C       78   1 H                                       1.0782646
    79   6 C       80   6 C                                       1.3743377
    80   6 C       81   6 C                                       1.4226996
    81   6 C       82   6 C                                       1.4085614
    82   6 C       83   6 C                                       1.4038926
    79   6 C       84   6 C                                       1.4052424
    83   6 C       84   6 C                                       1.3732219
    81   6 C       85   6 C                                       1.4289791
    85   6 C       86   6 C                                       1.4025802
    86   6 C       87   6 C                                       1.4199445
    85   6 C       89   6 C                                       1.4290397
    89   6 C       90   6 C                                       1.4095905
    86   6 C       92   6 C                                       1.4205529
    92   6 C       93   6 C                                       1.3864869
    93   6 C       94   6 C                                       1.3912462
    87   6 C       95   6 C                                       1.3895497
    94   6 C       95   6 C                                       1.3880057
    89   6 C       96   6 C                                       1.4230704
    96   6 C       97   6 C                                       1.3750996
    97   6 C       98   6 C                                       1.4051847
    90   6 C       99   6 C                                       1.4033801
    98   6 C       99   6 C                                       1.3733174
    96   6 C      100   8 O                                       1.3688639
    80   6 C      101   8 O                                       1.3721224
    88   6 C      102   8 O                                       1.2432106
    91   6 C      103   8 O                                       1.2431828
   100   8 O      104   6 C                                       1.4024786
   101   8 O      105   6 C                                       1.4008371
   106   6 C      107   6 C                                       1.5317278
   106   6 C      108   6 C                                       1.5348460
   106   6 C      109   6 C                                       1.5348121
   110   6 C      111   6 C                                       1.5317473
   110   6 C      112   6 C                                       1.5351244
   110   6 C      113   6 C                                       1.5352823
   114   6 C      115   6 C                                       1.5313283
   114   6 C      116   6 C                                       1.5354761
   114   6 C      117   6 C                                       1.5353897
   117   6 C      118   1 H                                       1.0907791
   117   6 C      119   1 H                                       1.0863861
   117   6 C      120   1 H                                       1.0883588
   115   6 C      121   1 H                                       1.0909065
   115   6 C      122   1 H                                       1.0872996
   115   6 C      123   1 H                                       1.0874306
   116   6 C      124   1 H                                       1.0907885
   116   6 C      125   1 H                                       1.0883312
   116   6 C      126   1 H                                       1.0862924
   109   6 C      127   1 H                                       1.0895469
   109   6 C      128   1 H                                       1.0879496
   109   6 C      129   1 H                                       1.0860039
   108   6 C      130   1 H                                       1.0887746
   108   6 C      131   1 H                                       1.0859597
   108   6 C      132   1 H                                       1.0892156
   107   6 C      133   1 H                                       1.0903148
   107   6 C      134   1 H                                       1.0875087
   107   6 C      135   1 H                                       1.0871850
   104   6 C      136   1 H                                       1.0897994
   104   6 C      137   1 H                                       1.0955708
   104   6 C      138   1 H                                       1.0934820
   105   6 C      139   1 H                                       1.0905067
   105   6 C      140   1 H                                       1.0986269
   105   6 C      141   1 H                                       1.0921499
   113   6 C      142   1 H                                       1.0905669
   113   6 C      143   1 H                                       1.0886640
   113   6 C      144   1 H                                       1.0866891
   112   6 C      145   1 H                                       1.0890774
   112   6 C      146   1 H                                       1.0902519
   112   6 C      147   1 H                                       1.0858706
   111   6 C      148   1 H                                       1.0906594
   111   6 C      149   1 H                                       1.0877828
   111   6 C      150   1 H                                       1.0872535
    93   6 C      151   1 H                                       1.0819965
    95   6 C      152   1 H                                       1.0799526
    83   6 C      153   1 H                                       1.0788890
    79   6 C      154   1 H                                       1.0776032 (min)
    97   6 C      155   1 H                                       1.0788384
    99   6 C      156   1 H                                       1.0788245

 * 3 distinct bonds (by element types)

   Z      Z             #   av. dist./Å        max./Å        min./Å
   1 H    6 C          78     1.0878907     1.0991295     1.0776032
   6 C    6 C          60     1.4411778     1.5362394     1.3721291
   6 C    8 O          12     1.3378764     1.4024786     1.2395049


optimized geometry written to: xtbopt.mol


           -------------------------------------------------
          | TOTAL ENERGY             -222.828983729545 Eh   |
Note: The following floating-point exceptions are signalling: IEEE_UNDERFLOW_FLAG
normal termination of xtb
          | GRADIENT NORM               0.000184528293 Eh/α |
          | HOMO-LUMO GAP               0.723296256711 eV   |
           -------------------------------------------------
########################################################################
[WARNING] Runtime exception occurred
-2- restart_readRestart: Multiplicity missmatch in restart file.
-1- restart_readRestart: Number of electron missmatch in restart file.
########################################################################

------------------------------------------------------------------------
 * finished run on 2024/11/12 at 09:06:27.098     
------------------------------------------------------------------------
 total:
 * wall-time:     0 d,  0 h,  2 min, 48.849 sec
 *  cpu-time:     0 d,  0 h,  9 min, 19.646 sec
 * ratio c/w:     3.314 speedup
 SCF:
 * wall-time:     0 d,  0 h,  0 min,  1.058 sec
 *  cpu-time:     0 d,  0 h,  0 min,  3.997 sec
 * ratio c/w:     3.776 speedup
 ANC optimizer:
 * wall-time:     0 d,  0 h,  2 min, 47.564 sec
 *  cpu-time:     0 d,  0 h,  9 min, 15.592 sec
 * ratio c/w:     3.316 speedup

