      -----------------------------------------------------------      
     |                   =====================                   |     
     |                           x T B                           |     
     |                   =====================                   |     
     |                         S. Grimme                         |     
     |          Mulliken Center for Theoretical Chemistry        |     
     |                    University of Bonn                     |     
      -----------------------------------------------------------      

   * xtb version 6.6.1 (8d0f1dd) compiled by 'runner@Mac-1690902418499.local' on 2023-08-01

   xtb is free software: you can redistribute it and/or modify it under
   the terms of the GNU Lesser General Public License as published by
   the Free Software Foundation, either version 3 of the License, or
   (at your option) any later version.
   
   xtb is distributed in the hope that it will be useful,
   but WITHOUT ANY WARRANTY; without even the implied warranty of
   MERCHANTABILITY or FITNESS FOR A PARTICULAR PURPOSE.  See the
   GNU Lesser General Public License for more details.
   
   Cite this work as:
   * C. Bannwarth, E. Caldeweyher, S. Ehlert, A. Hansen, P. Pracht,
     J. Seibert, S. Spicher, S. Grimme, WIREs Comput. Mol. Sci., 2020, 11,
     e01493. DOI: 10.1002/wcms.1493
   
   for GFN2-xTB:
   * C. Bannwarth, S. Ehlert and S. Grimme., J. Chem. Theory Comput., 2019,
     15, 1652-1671. DOI: 10.1021/acs.jctc.8b01176
   for GFN1-xTB:
   * S. Grimme, C. Bannwarth, P. Shushkov, J. Chem. Theory Comput., 2017,
     13, 1989-2009. DOI: 10.1021/acs.jctc.7b00118
   for GFN0-xTB:
   * P. Pracht, E. Caldeweyher, S. Ehlert, S. Grimme, ChemRxiv, 2019, preprint.
     DOI: 10.26434/chemrxiv.8326202.v1
   for GFN-FF:
   * S. Spicher and S. Grimme, Angew. Chem. Int. Ed., 2020, 59, 15665-15673.
     DOI: 10.1002/anie.202004239
   
   for ALPB and GBSA implicit solvation:
   * S. Ehlert, M. Stahn, S. Spicher, S. Grimme, J. Chem. Theory Comput.,
     2021, 17, 4250-4261. DOI: 10.1021/acs.jctc.1c00471
   
   for DFT-D4:
   * E. Caldeweyher, C. Bannwarth and S. Grimme, J. Chem. Phys., 2017,
     147, 034112. DOI: 10.1063/1.4993215
   * E. Caldeweyher, S. Ehlert, A. Hansen, H. Neugebauer, S. Spicher,
     C. Bannwarth and S. Grimme, J. Chem. Phys., 2019, 150, 154122.
     DOI: 10.1063/1.5090222
   * E. Caldeweyher, J.-M. Mewes, S. Ehlert and S. Grimme, Phys. Chem. Chem. Phys.
     2020, 22, 8499-8512. DOI: 10.1039/D0CP00502A
   
   for sTDA-xTB:
   * S. Grimme and C. Bannwarth, J. Chem. Phys., 2016, 145, 054103.
     DOI: 10.1063/1.4959605
   
   in the mass-spec context:
   * V. Asgeirsson, C. Bauer and S. Grimme, Chem. Sci., 2017, 8, 4879.
     DOI: 10.1039/c7sc00601b
   * J. Koopman and S. Grimme, ACS Omega 2019, 4, 12, 15120-15133.
     DOI: 10.1021/acsomega.9b02011
   
   for metadynamics refer to:
   * S. Grimme, J. Chem. Theory Comput., 2019, 155, 2847-2862
     DOI: 10.1021/acs.jctc.9b00143
   
   for SPH calculations refer to:
   * S. Spicher and S. Grimme, J. Chem. Theory Comput., 2021, 17, 1701-1714
     DOI: 10.1021/acs.jctc.0c01306
   
   with help from (in alphabetical order)
   P. Atkinson, C. Bannwarth, F. Bohle, G. Brandenburg, E. Caldeweyher
   M. Checinski, S. Dohm, S. Ehlert, S. Ehrlich, I. Gerasimov, C. Hölzer
   A. Katbashev, J. Koopman, C. Lavigne, S. Lehtola, F. März, M. Müller,
   F. Musil, H. Neugebauer, J. Pisarek, C. Plett, P. Pracht, F. Pultar,
   J. Seibert, P. Shushkov, S. Spicher, M. Stahn, M. Steiner, T. Strunk,
   J. Stückrath, T. Rose, and J. Unsleber
   
 * started run on 2024/11/12 at 09:00:03.949     

           -------------------------------------------------
          |                Calculation Setup                |
           -------------------------------------------------

          program call               : xtb opt_anion_Katherine4.mol --gfn2 --sp --chrg -2 --uhf 0
          coordinate file            : opt_anion_Katherine4.mol
          omp threads                :                     8

   ID    Z sym.   atoms
    1    6 C      1-21, 26-39
    2    8 O      22-25
    3    1 H      40-78
########################################################################
[WARNING] Please study the warnings concerning your input carefully
-1- prog_main: Charge in sdf/mol input was overwritten
########################################################################

           -------------------------------------------------
          |                 G F N 2 - x T B                 |
           -------------------------------------------------

        Reference                      10.1021/acs.jctc.8b01176
      * Hamiltonian:
        H0-scaling (s, p, d)           1.850000    2.230000    2.230000
        zeta-weighting                 0.500000
      * Dispersion:
        s8                             2.700000
        a1                             0.520000
        a2                             5.000000
        s9                             5.000000
      * Repulsion:
        kExp                           1.500000    1.000000
        rExp                           1.000000
      * Coulomb:
        alpha                          2.000000
        third order                    shell-resolved
        anisotropic                    true
        a3                             3.000000
        a5                             4.000000
        cn-shift                       1.200000
        cn-exp                         4.000000
        max-rad                        5.000000

q/qsh data taken from xtbrestart
CAMM data taken from xtbrestart

          ...................................................
          :                      SETUP                      :
          :.................................................:
          :  # basis functions                 195          :
          :  # atomic orbitals                 195          :
          :  # shells                          117          :
          :  # electrons                       205          :
          :  max. iterations                   250          :
          :  Hamiltonian                  GFN2-xTB          :
          :  restarted?                       true          :
          :  GBSA solvation                  false          :
          :  PC potential                    false          :
          :  electronic temp.          300.0000000     K    :
          :  accuracy                    1.0000000          :
          :  -> integral cutoff          0.2500000E+02      :
          :  -> integral neglect         0.1000000E-07      :
          :  -> SCF convergence          0.1000000E-05 Eh   :
          :  -> wf. convergence          0.1000000E-03 e    :
          :  Broyden damping             0.4000000          :
          ...................................................

 iter      E             dE          RMSdq      gap      omega  full diag
   1   -113.1377052 -0.113138E+03  0.596E-01    1.04       0.0  T
   2   -113.1537455 -0.160403E-01  0.396E-01    0.67       1.0  T
   3   -113.1602499 -0.650440E-02  0.257E-01    0.82       1.0  T
   4   -113.1615903 -0.134041E-02  0.162E-01    0.74       1.0  T
   5   -113.1616079 -0.176296E-04  0.868E-02    0.76       1.0  T
   6   -113.1619683 -0.360399E-03  0.264E-02    0.75       1.0  T
   7   -113.1620304 -0.621424E-04  0.132E-02    0.76       1.0  T
   8   -113.1620408 -0.103574E-04  0.719E-03    0.76       1.6  T
   9   -113.1620448 -0.399722E-05  0.321E-03    0.76       3.5  T
  10   -113.1620454 -0.626719E-06  0.938E-04    0.76      12.1  T
  11   -113.1620454 -0.243046E-07  0.480E-04    0.76      23.6  T

   *** convergence criteria satisfied after 11 iterations ***

         #    Occupation            Energy/Eh            Energy/eV
      -------------------------------------------------------------
         1        2.0000           -0.4953167             -13.4783
       ...           ...                  ...                  ...
        97        2.0000           -0.1371227              -3.7313
        98        2.0000           -0.1355356              -3.6881
        99        2.0000           -0.1327451              -3.6122
       100        2.0000           -0.1006748              -2.7395
       101        2.0000           -0.0956324              -2.6023
       102        2.0000           -0.0748407              -2.0365
       103        1.0000           -0.0224001              -0.6095 (HOMO)
       104        0.0000            0.0053632               0.1459 (LUMO)
       105                          0.0184835               0.5030
       106                          0.0257795               0.7015
       107                          0.0363757               0.9898
       108                          0.0729401               1.9848
       ...                                ...                  ...
       195                          0.9812901              26.7023
      -------------------------------------------------------------
                  HL-Gap            0.0277633 Eh            0.7555 eV
             Fermi-level           -0.0285694 Eh           -0.7774 eV

 SCC (total)                   0 d,  0 h,  0 min,  0.319 sec
 SCC setup                      ...        0 min,  0.000 sec (  0.056%)
 Dispersion                     ...        0 min,  0.001 sec (  0.200%)
 classical contributions        ...        0 min,  0.000 sec (  0.043%)
 integral evaluation            ...        0 min,  0.003 sec (  0.845%)
 iterations                     ...        0 min,  0.293 sec ( 91.886%)
 molecular gradient             ...        0 min,  0.016 sec (  4.876%)
 printout                       ...        0 min,  0.007 sec (  2.088%)

         :::::::::::::::::::::::::::::::::::::::::::::::::::::
         ::                     SUMMARY                     ::
         :::::::::::::::::::::::::::::::::::::::::::::::::::::
         :: total energy            -111.516633166285 Eh    ::
         :: gradient norm              0.000456255461 Eh/a0 ::
         :: HOMO-LUMO gap              0.755478896621 eV    ::
         ::.................................................::
         :: SCC energy              -113.162045443431 Eh    ::
         :: -> isotropic ES            0.379550693718 Eh    ::
         :: -> anisotropic ES          0.052159809122 Eh    ::
         :: -> anisotropic XC          0.032707109433 Eh    ::
         :: -> dispersion             -0.102970060070 Eh    ::
         :: repulsion energy           1.644613695104 Eh    ::
         :: add. restraining           0.000000000000 Eh    ::
         :: total charge              -2.000095378012 e     ::
         :::::::::::::::::::::::::::::::::::::::::::::::::::::

           -------------------------------------------------
          |                Property Printout                |
           -------------------------------------------------

    * Orbital Energies and Occupations

         #    Occupation            Energy/Eh            Energy/eV
      -------------------------------------------------------------
         1        2.0000           -0.4953167             -13.4783
       ...           ...                  ...                  ...
        91        2.0000           -0.1853963              -5.0449
        92        2.0000           -0.1773544              -4.8261
        93        2.0000           -0.1644701              -4.4755
        94        2.0000           -0.1553264              -4.2266
        95        2.0000           -0.1455116              -3.9596
        96        2.0000           -0.1446505              -3.9361
        97        2.0000           -0.1371227              -3.7313
        98        2.0000           -0.1355356              -3.6881
        99        2.0000           -0.1327451              -3.6122
       100        2.0000           -0.1006748              -2.7395
       101        2.0000           -0.0956324              -2.6023
       102        2.0000           -0.0748407              -2.0365
       103        1.0000           -0.0224001              -0.6095 (HOMO)
       104        0.0000            0.0053632               0.1459 (LUMO)
       105                          0.0184835               0.5030
       106                          0.0257795               0.7015
       107                          0.0363757               0.9898
       108                          0.0729401               1.9848
       109                          0.0878700               2.3911
       110                          0.1056400               2.8746
       111                          0.1527582               4.1568
       112                          0.1700680               4.6278
       113                          0.2215422               6.0285
       114                          0.2416449               6.5755
       ...                                ...                  ...
       195                          0.9812901              26.7023
      -------------------------------------------------------------
                  HL-Gap            0.0277633 Eh            0.7555 eV
             Fermi-level           -0.0285694 Eh           -0.7774 eV

     #   Z          covCN         q      C6AA      α(0)
     1   6 C        2.921    -0.097    30.434     9.047
     2   6 C        2.859     0.122    25.314     8.247
     3   6 C        2.975    -0.022    28.556     8.766
     4   6 C        2.981    -0.050    29.234     8.869
     5   6 C        2.927    -0.056    29.400     8.892
     6   6 C        2.967    -0.040    28.994     8.832
     7   6 C        2.972    -0.039    28.960     8.827
     8   6 C        2.990    -0.012    28.314     8.729
     9   6 C        2.975    -0.047    29.154     8.857
    10   6 C        2.838     0.169    24.347     8.086
    11   6 C        2.976    -0.023    28.575     8.768
    12   6 C        2.981    -0.050    29.239     8.870
    13   6 C        2.838     0.170    24.347     8.086
    14   6 C        2.975    -0.046    29.130     8.853
    15   6 C        2.929    -0.058    29.454     8.900
    16   6 C        2.964    -0.034    28.833     8.808
    17   6 C        2.927    -0.062    29.532     8.912
    18   6 C        2.860     0.123    25.289     8.243
    19   6 C        2.921    -0.096    30.402     9.042
    20   6 C        2.967    -0.040    28.985     8.831
    21   6 C        2.927    -0.056    29.395     8.891
    22   8 O        1.704    -0.290    18.823     5.858
    23   8 O        1.704    -0.290    18.811     5.856
    24   8 O        0.857    -0.581    25.646     6.790
    25   8 O        0.857    -0.581    25.661     6.792
    26   6 C        3.641     0.075    19.674     6.378
    27   6 C        3.640     0.073    19.700     6.383
    28   6 C        3.902     0.026    20.088     6.371
    29   6 C        3.761    -0.097    22.390     6.745
    30   6 C        3.760    -0.092    22.301     6.732
    31   6 C        3.761    -0.092    22.301     6.732
    32   6 C        3.902     0.026    20.088     6.371
    33   6 C        3.761    -0.092    22.298     6.732
    34   6 C        3.761    -0.097    22.392     6.746
    35   6 C        3.760    -0.092    22.299     6.732
    36   6 C        3.902     0.024    20.117     6.376
    37   6 C        3.760    -0.093    22.318     6.735
    38   6 C        3.761    -0.094    22.333     6.737
    39   6 C        3.761    -0.093    22.329     6.736
    40   1 H        0.924    -0.001     3.071     2.740
    41   1 H        0.925     0.035     2.515     2.480
    42   1 H        0.925     0.021     2.713     2.576
    43   1 H        0.924    -0.001     3.076     2.743
    44   1 H        0.925     0.030     2.589     2.516
    45   1 H        0.925     0.028     2.609     2.526
    46   1 H        0.924    -0.001     3.073     2.741
    47   1 H        0.925     0.021     2.722     2.580
    48   1 H        0.925     0.037     2.496     2.471
    49   1 H        0.924     0.002     3.023     2.719
    50   1 H        0.925     0.025     2.665     2.553
    51   1 H        0.925     0.026     2.648     2.545
    52   1 H        0.924     0.003     3.013     2.714
    53   1 H        0.925     0.024     2.676     2.558
    54   1 H        0.925     0.025     2.655     2.548
    55   1 H        0.924     0.002     3.017     2.716
    56   1 H        0.925     0.033     2.542     2.493
    57   1 H        0.925     0.034     2.535     2.490
    58   1 H        0.924     0.027     2.630     2.536
    59   1 H        0.923    -0.003     3.103     2.755
    60   1 H        0.923     0.012     2.854     2.642
    61   1 H        0.924     0.027     2.630     2.536
    62   1 H        0.923     0.006     2.953     2.687
    63   1 H        0.923     0.003     3.013     2.715
    64   1 H        0.924     0.003     3.009     2.713
    65   1 H        0.925     0.023     2.684     2.562
    66   1 H        0.925     0.025     2.660     2.551
    67   1 H        0.925     0.034     2.530     2.487
    68   1 H        0.924     0.002     3.016     2.716
    69   1 H        0.925     0.033     2.540     2.492
    70   1 H        0.924     0.002     3.021     2.718
    71   1 H        0.925     0.025     2.654     2.548
    72   1 H        0.925     0.025     2.663     2.552
    73   1 H        0.925     0.002     3.019     2.717
    74   1 H        0.926     0.010     2.889     2.658
    75   1 H        0.926     0.025     2.658     2.550
    76   1 H        0.925    -0.025     3.523     2.935
    77   1 H        0.925    -0.024     3.510     2.930
    78   1 H        0.926     0.025     2.665     2.553

 Mol. C6AA /au·bohr⁶  :      67780.249970
 Mol. C8AA /au·bohr⁸  :    1586359.892661
 Mol. α(0) /au        :        403.415437


Wiberg/Mayer (AO) data.
largest (>0.10) Wiberg bond orders for each atom

 ---------------------------------------------------------------------------
     #   Z sym  total        # sym  WBO       # sym  WBO       # sym  WBO
 ---------------------------------------------------------------------------
     1   6 C    3.925 --     2 C    1.454     6 C    1.285    76 H    0.958
     2   6 C    3.896 --     1 C    1.454     3 C    1.257    23 O    0.987
     3   6 C    3.971 --     2 C    1.257     4 C    1.229     7 C    1.214
     4   6 C    3.968 --     5 C    1.315     3 C    1.229    10 C    1.143
     5   6 C    3.972 --     6 C    1.498     4 C    1.315    75 H    0.961
     6   6 C    3.950 --     5 C    1.498     1 C    1.285    32 C    0.974
     7   6 C    3.972 --     8 C    1.254     3 C    1.214    11 C    1.210
     8   6 C    3.985 --     7 C    1.254     9 C    1.252    14 C    1.246
     9   6 C    3.979 --    17 C    1.327     8 C    1.252    10 C    1.135
    10   6 C    3.937 --    24 O    1.485     4 C    1.143     9 C    1.135
    11   6 C    3.971 --    18 C    1.258    12 C    1.228     7 C    1.210
    12   6 C    3.968 --    21 C    1.314    11 C    1.228    13 C    1.146
    13   6 C    3.936 --    25 O    1.485    12 C    1.146    14 C    1.132
    14   6 C    3.979 --    15 C    1.340     8 C    1.246    13 C    1.132
    15   6 C    3.947 --    16 C    1.399    14 C    1.340    73 H    0.961
    16   6 C    3.964 --    17 C    1.419    15 C    1.399    36 C    0.970
    17   6 C    3.950 --    16 C    1.419     9 C    1.327    74 H    0.964
    18   6 C    3.898 --    19 C    1.454    11 C    1.258    22 O    0.990
    19   6 C    3.925 --    18 C    1.454    20 C    1.285    77 H    0.959
    20   6 C    3.950 --    21 C    1.498    19 C    1.285    28 C    0.974
    21   6 C    3.972 --    20 C    1.498    12 C    1.314    78 H    0.961
    22   8 O    2.176 --    26 C    1.018    18 C    0.990
    23   8 O    2.178 --    27 C    1.020     2 C    0.987
    24   8 O    1.772 --    10 C    1.485
    25   8 O    1.771 --    13 C    1.485
    26   6 C    3.973 --    22 O    1.018    58 H    0.980    60 H    0.973
                            59 H    0.972
    27   6 C    3.973 --    23 O    1.020    61 H    0.980    62 H    0.973
                            63 H    0.971
    28   6 C    3.983 --    29 C    0.999    31 C    0.989    30 C    0.989
                            20 C    0.974
    29   6 C    3.997 --    28 C    0.999    55 H    0.986    57 H    0.986
                            56 H    0.985
    30   6 C    3.995 --    28 C    0.989    54 H    0.988    52 H    0.986
                            53 H    0.984
    31   6 C    3.995 --    28 C    0.989    50 H    0.988    49 H    0.986
                            51 H    0.984
    32   6 C    3.983 --    34 C    0.999    33 C    0.989    35 C    0.988
                             6 C    0.974
    33   6 C    3.995 --    32 C    0.989    71 H    0.988    70 H    0.986
                            72 H    0.984
    34   6 C    3.997 --    32 C    0.999    68 H    0.986    67 H    0.986
                            69 H    0.985
    35   6 C    3.995 --    32 C    0.988    66 H    0.988    64 H    0.986
                            65 H    0.984
    36   6 C    3.981 --    37 C    0.998    38 C    0.990    39 C    0.990
                            16 C    0.970
    37   6 C    3.997 --    36 C    0.998    43 H    0.986    45 H    0.986
                            44 H    0.986
    38   6 C    3.995 --    36 C    0.990    47 H    0.988    46 H    0.986
                            48 H    0.983
    39   6 C    3.995 --    36 C    0.990    42 H    0.988    40 H    0.986
                            41 H    0.984
    40   1 H    0.999 --    39 C    0.986
    41   1 H    0.999 --    39 C    0.984
    42   1 H    1.000 --    39 C    0.988
    43   1 H    1.000 --    37 C    0.986
    44   1 H    0.999 --    37 C    0.986
    45   1 H    0.999 --    37 C    0.986
    46   1 H    0.999 --    38 C    0.986
    47   1 H    1.000 --    38 C    0.988
    48   1 H    0.999 --    38 C    0.983
    49   1 H    0.999 --    31 C    0.986
    50   1 H    0.999 --    31 C    0.988
    51   1 H    0.999 --    31 C    0.984
    52   1 H    0.999 --    30 C    0.986
    53   1 H    0.999 --    30 C    0.984
    54   1 H    0.999 --    30 C    0.988
    55   1 H    1.000 --    29 C    0.986
    56   1 H    0.999 --    29 C    0.985
    57   1 H    0.999 --    29 C    0.986
    58   1 H    0.999 --    26 C    0.980
    59   1 H    1.000 --    26 C    0.972
    60   1 H    1.000 --    26 C    0.973
    61   1 H    0.999 --    27 C    0.980
    62   1 H    1.000 --    27 C    0.973
    63   1 H    1.000 --    27 C    0.971
    64   1 H    0.999 --    35 C    0.986
    65   1 H    0.999 --    35 C    0.984
    66   1 H    0.999 --    35 C    0.988
    67   1 H    0.999 --    34 C    0.986
    68   1 H    1.000 --    34 C    0.986
    69   1 H    0.999 --    34 C    0.985
    70   1 H    0.999 --    33 C    0.986
    71   1 H    0.999 --    33 C    0.988
    72   1 H    0.999 --    33 C    0.984
    73   1 H    0.999 --    15 C    0.961
    74   1 H    0.999 --    17 C    0.964
    75   1 H    0.999 --     5 C    0.961
    76   1 H    0.999 --     1 C    0.958
    77   1 H    0.999 --    19 C    0.959
    78   1 H    0.999 --    21 C    0.961
 ---------------------------------------------------------------------------

Topologies differ in bond orders
Writing corrected topology to xtbtopo.mol

molecular dipole:
                 x           y           z       tot (Debye)
 q only:       -2.312       7.694      -4.346
   full:       -2.997       8.078      -4.520      24.731
molecular quadrupole (traceless):
                xx          xy          yy          xz          yz          zz
 q only:        1.130      -5.328     -66.819     -20.383      20.253      65.689
  q+dip:       10.567      -6.564     -67.699     -21.081      18.121      57.132
   full:        8.006      -6.888     -70.855     -22.496      17.787      62.849


           -------------------------------------------------
          | TOTAL ENERGY             -111.516633166285 Eh   |
          | GRADIENT NORM               0.000456255461 Eh/α |
          | HOMO-LUMO GAP               0.755478896621 eV   |
           -------------------------------------------------
########################################################################
[WARNING] Runtime exception occurred
-1- restart_readRestart: Number of electron missmatch in restart file.
########################################################################

------------------------------------------------------------------------
 * finished run on 2024/11/12 at 09:00:04.281     
------------------------------------------------------------------------
 total:
 * wall-time:     0 d,  0 h,  0 min,  0.331 sec
Note: The following floating-point exceptions are signalling: IEEE_UNDERFLOW_FLAG
normal termination of xtb
 *  cpu-time:     0 d,  0 h,  0 min,  1.019 sec
 * ratio c/w:     3.079 speedup
 SCF:
 * wall-time:     0 d,  0 h,  0 min,  0.320 sec
 *  cpu-time:     0 d,  0 h,  0 min,  1.003 sec
 * ratio c/w:     3.138 speedup

