      -----------------------------------------------------------      
     |                   =====================                   |     
     |                           x T B                           |     
     |                   =====================                   |     
     |                         S. Grimme                         |     
     |          Mulliken Center for Theoretical Chemistry        |     
     |                    University of Bonn                     |     
      -----------------------------------------------------------      

   * xtb version 6.6.1 (8d0f1dd) compiled by 'runner@Mac-1690902418499.local' on 2023-08-01

   xtb is free software: you can redistribute it and/or modify it under
   the terms of the GNU Lesser General Public License as published by
   the Free Software Foundation, either version 3 of the License, or
   (at your option) any later version.
   
   xtb is distributed in the hope that it will be useful,
   but WITHOUT ANY WARRANTY; without even the implied warranty of
   MERCHANTABILITY or FITNESS FOR A PARTICULAR PURPOSE.  See the
   GNU Lesser General Public License for more details.
   
   Cite this work as:
   * C. Bannwarth, E. Caldeweyher, S. Ehlert, A. Hansen, P. Pracht,
     J. Seibert, S. Spicher, S. Grimme, WIREs Comput. Mol. Sci., 2020, 11,
     e01493. DOI: 10.1002/wcms.1493
   
   for GFN2-xTB:
   * C. Bannwarth, S. Ehlert and S. Grimme., J. Chem. Theory Comput., 2019,
     15, 1652-1671. DOI: 10.1021/acs.jctc.8b01176
   for GFN1-xTB:
   * S. Grimme, C. Bannwarth, P. Shushkov, J. Chem. Theory Comput., 2017,
     13, 1989-2009. DOI: 10.1021/acs.jctc.7b00118
   for GFN0-xTB:
   * P. Pracht, E. Caldeweyher, S. Ehlert, S. Grimme, ChemRxiv, 2019, preprint.
     DOI: 10.26434/chemrxiv.8326202.v1
   for GFN-FF:
   * S. Spicher and S. Grimme, Angew. Chem. Int. Ed., 2020, 59, 15665-15673.
     DOI: 10.1002/anie.202004239
   
   for ALPB and GBSA implicit solvation:
   * S. Ehlert, M. Stahn, S. Spicher, S. Grimme, J. Chem. Theory Comput.,
     2021, 17, 4250-4261. DOI: 10.1021/acs.jctc.1c00471
   
   for DFT-D4:
   * E. Caldeweyher, C. Bannwarth and S. Grimme, J. Chem. Phys., 2017,
     147, 034112. DOI: 10.1063/1.4993215
   * E. Caldeweyher, S. Ehlert, A. Hansen, H. Neugebauer, S. Spicher,
     C. Bannwarth and S. Grimme, J. Chem. Phys., 2019, 150, 154122.
     DOI: 10.1063/1.5090222
   * E. Caldeweyher, J.-M. Mewes, S. Ehlert and S. Grimme, Phys. Chem. Chem. Phys.
     2020, 22, 8499-8512. DOI: 10.1039/D0CP00502A
   
   for sTDA-xTB:
   * S. Grimme and C. Bannwarth, J. Chem. Phys., 2016, 145, 054103.
     DOI: 10.1063/1.4959605
   
   in the mass-spec context:
   * V. Asgeirsson, C. Bauer and S. Grimme, Chem. Sci., 2017, 8, 4879.
     DOI: 10.1039/c7sc00601b
   * J. Koopman and S. Grimme, ACS Omega 2019, 4, 12, 15120-15133.
     DOI: 10.1021/acsomega.9b02011
   
   for metadynamics refer to:
   * S. Grimme, J. Chem. Theory Comput., 2019, 155, 2847-2862
     DOI: 10.1021/acs.jctc.9b00143
   
   for SPH calculations refer to:
   * S. Spicher and S. Grimme, J. Chem. Theory Comput., 2021, 17, 1701-1714
     DOI: 10.1021/acs.jctc.0c01306
   
   with help from (in alphabetical order)
   P. Atkinson, C. Bannwarth, F. Bohle, G. Brandenburg, E. Caldeweyher
   M. Checinski, S. Dohm, S. Ehlert, S. Ehrlich, I. Gerasimov, C. Hölzer
   A. Katbashev, J. Koopman, C. Lavigne, S. Lehtola, F. März, M. Müller,
   F. Musil, H. Neugebauer, J. Pisarek, C. Plett, P. Pracht, F. Pultar,
   J. Seibert, P. Shushkov, S. Spicher, M. Stahn, M. Steiner, T. Strunk,
   J. Stückrath, T. Rose, and J. Unsleber
   
 * started run on 2024/11/12 at 09:00:04.684     

           -------------------------------------------------
          |                Calculation Setup                |
           -------------------------------------------------

          program call               : xtb opt_radical_Katherine4.mol --gfn2 --sp --chrg -2 --uhf 0
          coordinate file            : opt_radical_Katherine4.mol
          omp threads                :                     8

   ID    Z sym.   atoms
    1    6 C      1-21, 26-39
    2    8 O      22-25
    3    1 H      40-78
########################################################################
[WARNING] Please study the warnings concerning your input carefully
-1- prog_main: Charge in sdf/mol input was overwritten
########################################################################

           -------------------------------------------------
          |                 G F N 2 - x T B                 |
           -------------------------------------------------

        Reference                      10.1021/acs.jctc.8b01176
      * Hamiltonian:
        H0-scaling (s, p, d)           1.850000    2.230000    2.230000
        zeta-weighting                 0.500000
      * Dispersion:
        s8                             2.700000
        a1                             0.520000
        a2                             5.000000
        s9                             5.000000
      * Repulsion:
        kExp                           1.500000    1.000000
        rExp                           1.000000
      * Coulomb:
        alpha                          2.000000
        third order                    shell-resolved
        anisotropic                    true
        a3                             3.000000
        a5                             4.000000
        cn-shift                       1.200000
        cn-exp                         4.000000
        max-rad                        5.000000

q/qsh data taken from xtbrestart
CAMM data taken from xtbrestart

          ...................................................
          :                      SETUP                      :
          :.................................................:
          :  # basis functions                 195          :
          :  # atomic orbitals                 195          :
          :  # shells                          117          :
          :  # electrons                       205          :
          :  max. iterations                   250          :
          :  Hamiltonian                  GFN2-xTB          :
          :  restarted?                       true          :
          :  GBSA solvation                  false          :
          :  PC potential                    false          :
          :  electronic temp.          300.0000000     K    :
          :  accuracy                    1.0000000          :
          :  -> integral cutoff          0.2500000E+02      :
          :  -> integral neglect         0.1000000E-07      :
          :  -> SCF convergence          0.1000000E-05 Eh   :
          :  -> wf. convergence          0.1000000E-03 e    :
          :  Broyden damping             0.4000000          :
          ...................................................

 iter      E             dE          RMSdq      gap      omega  full diag
   1   -113.1620284 -0.113162E+03  0.604E-01    0.96       0.0  T
   2   -113.1778166 -0.157882E-01  0.424E-01    0.62       1.0  T
   3   -113.1824599 -0.464323E-02  0.283E-01    0.77       1.0  T
   4   -113.1833552 -0.895375E-03  0.169E-01    0.67       1.0  T
   5   -113.1838208 -0.465602E-03  0.837E-02    0.70       1.0  T
   6   -113.1840721 -0.251223E-03  0.384E-02    0.71       1.0  T
   7   -113.1842462 -0.174157E-03  0.154E-02    0.71       1.0  T
   8   -113.1842658 -0.195843E-04  0.720E-03    0.70       1.6  T
   9   -113.1842677 -0.184398E-05  0.376E-03    0.70       3.0  T
  10   -113.1842687 -0.996958E-06  0.110E-03    0.70      10.3  T
  11   -113.1842687 -0.359341E-07  0.448E-04    0.70      25.3  T
  12   -113.1842687 -0.449405E-08  0.239E-04    0.70      47.3  T

   *** convergence criteria satisfied after 12 iterations ***

         #    Occupation            Energy/Eh            Energy/eV
      -------------------------------------------------------------
         1        2.0000           -0.4939483             -13.4410
       ...           ...                  ...                  ...
        97        2.0000           -0.1335233              -3.6334
        98        2.0000           -0.1327991              -3.6136
        99        2.0000           -0.1316640              -3.5828
       100        2.0000           -0.0997512              -2.7144
       101        2.0000           -0.0939496              -2.5565
       102        2.0000           -0.0706740              -1.9231
       103        1.0000           -0.0154357              -0.4200 (HOMO)
       104        0.0000            0.0104465               0.2843 (LUMO)
       105                          0.0222693               0.6060
       106                          0.0295380               0.8038
       107                          0.0414832               1.1288
       108                          0.0766515               2.0858
       ...                                ...                  ...
       195                          1.0009407              27.2370
      -------------------------------------------------------------
                  HL-Gap            0.0258822 Eh            0.7043 eV
             Fermi-level           -0.0227747 Eh           -0.6197 eV

 SCC (total)                   0 d,  0 h,  0 min,  0.677 sec
 SCC setup                      ...        0 min,  0.000 sec (  0.024%)
 Dispersion                     ...        0 min,  0.001 sec (  0.091%)
 classical contributions        ...        0 min,  0.000 sec (  0.023%)
 integral evaluation            ...        0 min,  0.003 sec (  0.445%)
 iterations                     ...        0 min,  0.654 sec ( 96.679%)
 molecular gradient             ...        0 min,  0.016 sec (  2.366%)
 printout                       ...        0 min,  0.003 sec (  0.370%)

         :::::::::::::::::::::::::::::::::::::::::::::::::::::
         ::                     SUMMARY                     ::
         :::::::::::::::::::::::::::::::::::::::::::::::::::::
         :: total energy            -111.513283888908 Eh    ::
         :: gradient norm              0.078890590234 Eh/a0 ::
         :: HOMO-LUMO gap              0.704289500790 eV    ::
         ::.................................................::
         :: SCC energy              -113.184268694871 Eh    ::
         :: -> isotropic ES            0.375007577404 Eh    ::
         :: -> anisotropic ES          0.052805050900 Eh    ::
         :: -> anisotropic XC          0.031856881509 Eh    ::
         :: -> dispersion             -0.103121830161 Eh    ::
         :: repulsion energy           1.670156981535 Eh    ::
         :: add. restraining           0.000000000000 Eh    ::
         :: total charge              -2.000002951550 e     ::
         :::::::::::::::::::::::::::::::::::::::::::::::::::::

           -------------------------------------------------
          |                Property Printout                |
           -------------------------------------------------

    * Orbital Energies and Occupations

         #    Occupation            Energy/Eh            Energy/eV
      -------------------------------------------------------------
         1        2.0000           -0.4939483             -13.4410
       ...           ...                  ...                  ...
        91        2.0000           -0.1832802              -4.9873
        92        2.0000           -0.1746063              -4.7513
        93        2.0000           -0.1634648              -4.4481
        94        2.0000           -0.1528241              -4.1586
        95        2.0000           -0.1440208              -3.9190
        96        2.0000           -0.1437457              -3.9115
        97        2.0000           -0.1335233              -3.6334
        98        2.0000           -0.1327991              -3.6136
        99        2.0000           -0.1316640              -3.5828
       100        2.0000           -0.0997512              -2.7144
       101        2.0000           -0.0939496              -2.5565
       102        2.0000           -0.0706740              -1.9231
       103        1.0000           -0.0154357              -0.4200 (HOMO)
       104        0.0000            0.0104465               0.2843 (LUMO)
       105                          0.0222693               0.6060
       106                          0.0295380               0.8038
       107                          0.0414832               1.1288
       108                          0.0766515               2.0858
       109                          0.0905263               2.4633
       110                          0.1105846               3.0092
       111                          0.1584651               4.3121
       112                          0.1742049               4.7404
       113                          0.2252372               6.1290
       114                          0.2464301               6.7057
       ...                                ...                  ...
       195                          1.0009407              27.2370
      -------------------------------------------------------------
                  HL-Gap            0.0258822 Eh            0.7043 eV
             Fermi-level           -0.0227747 Eh           -0.6197 eV

     #   Z          covCN         q      C6AA      α(0)
     1   6 C        2.923    -0.098    30.476     9.053
     2   6 C        2.863     0.124    25.283     8.242
     3   6 C        2.979    -0.023    28.580     8.769
     4   6 C        2.982    -0.054    29.328     8.883
     5   6 C        2.929    -0.058    29.432     8.897
     6   6 C        2.970    -0.041    29.022     8.837
     7   6 C        2.974    -0.043    29.058     8.842
     8   6 C        2.994    -0.012    28.309     8.728
     9   6 C        2.977    -0.052    29.278     8.876
    10   6 C        2.837     0.174    24.263     8.072
    11   6 C        2.978    -0.024    28.589     8.771
    12   6 C        2.982    -0.054    29.335     8.884
    13   6 C        2.837     0.174    24.259     8.071
    14   6 C        2.976    -0.051    29.257     8.872
    15   6 C        2.932    -0.058    29.448     8.900
    16   6 C        2.968    -0.037    28.926     8.822
    17   6 C        2.930    -0.062    29.532     8.912
    18   6 C        2.862     0.123    25.300     8.245
    19   6 C        2.924    -0.099    30.480     9.054
    20   6 C        2.969    -0.041    29.024     8.837
    21   6 C        2.929    -0.058    29.431     8.897
    22   8 O        1.705    -0.284    18.707     5.840
    23   8 O        1.705    -0.284    18.709     5.840
    24   8 O        0.857    -0.565    25.268     6.739
    25   8 O        0.857    -0.565    25.274     6.740
    26   6 C        3.642     0.070    19.755     6.390
    27   6 C        3.642     0.069    19.761     6.391
    28   6 C        3.902     0.026    20.088     6.371
    29   6 C        3.762    -0.096    22.381     6.744
    30   6 C        3.761    -0.092    22.293     6.731
    31   6 C        3.761    -0.092    22.293     6.731
    32   6 C        3.902     0.026    20.087     6.371
    33   6 C        3.761    -0.091    22.292     6.731
    34   6 C        3.762    -0.096    22.382     6.744
    35   6 C        3.761    -0.091    22.293     6.731
    36   6 C        3.903     0.024    20.107     6.374
    37   6 C        3.761    -0.092    22.309     6.733
    38   6 C        3.761    -0.093    22.322     6.735
    39   6 C        3.761    -0.093    22.319     6.735
    40   1 H        0.925    -0.001     3.074     2.742
    41   1 H        0.925     0.034     2.531     2.488
    42   1 H        0.925     0.021     2.712     2.575
    43   1 H        0.925    -0.002     3.084     2.746
    44   1 H        0.925     0.029     2.594     2.519
    45   1 H        0.925     0.028     2.611     2.527
    46   1 H        0.925    -0.001     3.078     2.744
    47   1 H        0.925     0.021     2.718     2.578
    48   1 H        0.925     0.035     2.514     2.480
    49   1 H        0.925     0.002     3.025     2.720
    50   1 H        0.925     0.025     2.662     2.551
    51   1 H        0.925     0.025     2.663     2.552
    52   1 H        0.925     0.002     3.015     2.715
    53   1 H        0.925     0.023     2.687     2.563
    54   1 H        0.925     0.025     2.656     2.549
    55   1 H        0.925     0.002     3.023     2.719
    56   1 H        0.925     0.033     2.547     2.496
    57   1 H        0.925     0.033     2.538     2.491
    58   1 H        0.924     0.030     2.591     2.517
    59   1 H        0.923     0.006     2.960     2.690
    60   1 H        0.923     0.009     2.903     2.665
    61   1 H        0.924     0.029     2.598     2.521
    62   1 H        0.923     0.007     2.946     2.684
    63   1 H        0.923     0.009     2.909     2.667
    64   1 H        0.925     0.003     3.013     2.715
    65   1 H        0.925     0.023     2.688     2.564
    66   1 H        0.925     0.025     2.662     2.552
    67   1 H        0.925     0.034     2.530     2.487
    68   1 H        0.925     0.002     3.022     2.719
    69   1 H        0.925     0.032     2.552     2.498
    70   1 H        0.925     0.002     3.025     2.720
    71   1 H        0.925     0.025     2.656     2.549
    72   1 H        0.925     0.025     2.665     2.553
    73   1 H        0.925    -0.002     3.092     2.750
    74   1 H        0.926     0.006     2.957     2.689
    75   1 H        0.926     0.022     2.710     2.574
    76   1 H        0.926    -0.027     3.566     2.953
    77   1 H        0.926    -0.027     3.563     2.952
    78   1 H        0.926     0.021     2.715     2.577

 Mol. C6AA /au·bohr⁶  :      67795.385691
 Mol. C8AA /au·bohr⁸  :    1586702.455314
 Mol. α(0) /au        :        403.484289


Wiberg/Mayer (AO) data.
largest (>0.10) Wiberg bond orders for each atom

 ---------------------------------------------------------------------------
     #   Z sym  total        # sym  WBO       # sym  WBO       # sym  WBO
 ---------------------------------------------------------------------------
     1   6 C    3.925 --     2 C    1.454     6 C    1.286    76 H    0.958
     2   6 C    3.898 --     1 C    1.454     3 C    1.244    23 O    1.002
     3   6 C    3.971 --     4 C    1.246     2 C    1.244     7 C    1.206
     4   6 C    3.968 --     5 C    1.318     3 C    1.246    10 C    1.120
     5   6 C    3.972 --     6 C    1.493     4 C    1.318    75 H    0.962
     6   6 C    3.952 --     5 C    1.493     1 C    1.286    32 C    0.974
     7   6 C    3.970 --     8 C    1.263    11 C    1.206     3 C    1.206
     8   6 C    3.985 --     7 C    1.263     9 C    1.248    14 C    1.243
     9   6 C    3.978 --    17 C    1.341     8 C    1.248    10 C    1.119
    10   6 C    3.933 --    24 O    1.516     4 C    1.120     9 C    1.119
    11   6 C    3.971 --    18 C    1.245    12 C    1.244     7 C    1.206
    12   6 C    3.968 --    21 C    1.318    11 C    1.244    13 C    1.121
    13   6 C    3.933 --    25 O    1.517    12 C    1.121    14 C    1.116
    14   6 C    3.979 --    15 C    1.352     8 C    1.243    13 C    1.116
    15   6 C    3.948 --    16 C    1.394    14 C    1.352    73 H    0.961
    16   6 C    3.962 --    17 C    1.412    15 C    1.394    36 C    0.972
    17   6 C    3.951 --    16 C    1.412     9 C    1.341    74 H    0.963
    18   6 C    3.900 --    19 C    1.453    11 C    1.245    22 O    1.002
    19   6 C    3.924 --    18 C    1.453    20 C    1.287    77 H    0.958
    20   6 C    3.949 --    21 C    1.493    19 C    1.287    28 C    0.974
    21   6 C    3.972 --    20 C    1.493    12 C    1.318    78 H    0.962
    22   8 O    2.189 --    26 C    1.013    18 C    1.002
    23   8 O    2.188 --    27 C    1.014     2 C    1.002
    24   8 O    1.803 --    10 C    1.516
    25   8 O    1.804 --    13 C    1.517
    26   6 C    3.973 --    22 O    1.013    58 H    0.981    60 H    0.974
                            59 H    0.974
    27   6 C    3.973 --    23 O    1.014    61 H    0.981    62 H    0.974
                            63 H    0.973
    28   6 C    3.983 --    29 C    0.999    31 C    0.990    30 C    0.989
                            20 C    0.974
    29   6 C    3.997 --    28 C    0.999    55 H    0.986    57 H    0.986
                            56 H    0.985
    30   6 C    3.995 --    28 C    0.989    54 H    0.988    52 H    0.986
                            53 H    0.984
    31   6 C    3.995 --    28 C    0.990    50 H    0.988    49 H    0.986
                            51 H    0.984
    32   6 C    3.983 --    34 C    0.999    33 C    0.989    35 C    0.989
                             6 C    0.974
    33   6 C    3.995 --    32 C    0.989    71 H    0.988    70 H    0.986
                            72 H    0.984
    34   6 C    3.997 --    32 C    0.999    68 H    0.986    67 H    0.986
                            69 H    0.985
    35   6 C    3.995 --    32 C    0.989    66 H    0.988    64 H    0.986
                            65 H    0.985
    36   6 C    3.981 --    37 C    0.998    38 C    0.990    39 C    0.990
                            16 C    0.972
    37   6 C    3.997 --    36 C    0.998    45 H    0.986    43 H    0.986
                            44 H    0.986
    38   6 C    3.995 --    36 C    0.990    47 H    0.988    46 H    0.986
                            48 H    0.984
    39   6 C    3.995 --    36 C    0.990    42 H    0.988    40 H    0.986
                            41 H    0.984
    40   1 H    0.999 --    39 C    0.986
    41   1 H    0.999 --    39 C    0.984
    42   1 H    1.000 --    39 C    0.988
    43   1 H    1.000 --    37 C    0.986
    44   1 H    0.999 --    37 C    0.986
    45   1 H    0.999 --    37 C    0.986
    46   1 H    0.999 --    38 C    0.986
    47   1 H    1.000 --    38 C    0.988
    48   1 H    0.999 --    38 C    0.984
    49   1 H    0.999 --    31 C    0.986
    50   1 H    0.999 --    31 C    0.988
    51   1 H    0.999 --    31 C    0.984
    52   1 H    0.999 --    30 C    0.986
    53   1 H    0.999 --    30 C    0.984
    54   1 H    0.999 --    30 C    0.988
    55   1 H    1.000 --    29 C    0.986
    56   1 H    0.999 --    29 C    0.985
    57   1 H    0.999 --    29 C    0.986
    58   1 H    0.999 --    26 C    0.981
    59   1 H    1.000 --    26 C    0.974
    60   1 H    1.000 --    26 C    0.974
    61   1 H    0.999 --    27 C    0.981
    62   1 H    1.000 --    27 C    0.974
    63   1 H    1.000 --    27 C    0.973
    64   1 H    0.999 --    35 C    0.986
    65   1 H    0.999 --    35 C    0.985
    66   1 H    0.999 --    35 C    0.988
    67   1 H    0.999 --    34 C    0.986
    68   1 H    1.000 --    34 C    0.986
    69   1 H    0.999 --    34 C    0.985
    70   1 H    0.999 --    33 C    0.986
    71   1 H    0.999 --    33 C    0.988
    72   1 H    0.999 --    33 C    0.984
    73   1 H    0.999 --    15 C    0.961
    74   1 H    0.999 --    17 C    0.963
    75   1 H    0.999 --     5 C    0.962
    76   1 H    0.999 --     1 C    0.958
    77   1 H    0.999 --    19 C    0.958
    78   1 H    0.999 --    21 C    0.962
 ---------------------------------------------------------------------------

Topologies differ in bond orders
Writing corrected topology to xtbtopo.mol

molecular dipole:
                 x           y           z       tot (Debye)
 q only:       -2.335       7.684      -4.144
   full:       -3.018       8.051      -4.270      24.401
molecular quadrupole (traceless):
                xx          xy          yy          xz          yz          zz
 q only:        1.840      -4.719     -66.805     -21.881      18.613      64.966
  q+dip:       10.959      -5.723     -67.487     -22.559      15.860      56.529
   full:        8.698      -6.037     -70.622     -24.179      15.536      61.923


           -------------------------------------------------
          | TOTAL ENERGY             -111.513283888908 Eh   |
          | GRADIENT NORM               0.078890590234 Eh/α |
          | HOMO-LUMO GAP               0.704289500790 eV   |
           -------------------------------------------------
########################################################################
[WARNING] Runtime exception occurred
-1- restart_readRestart: Number of electron missmatch in restart file.
########################################################################

------------------------------------------------------------------------
 * finished run on 2024/11/12 at 09:00:05.373     
------------------------------------------------------------------------
 total:
 * wall-time:     0 d,  0 h,  0 min,  0.688 sec
Note: The following floating-point exceptions are signalling: IEEE_UNDERFLOW_FLAG
normal termination of xtb
 *  cpu-time:     0 d,  0 h,  0 min,  2.514 sec
 * ratio c/w:     3.656 speedup
 SCF:
 * wall-time:     0 d,  0 h,  0 min,  0.677 sec
 *  cpu-time:     0 d,  0 h,  0 min,  2.498 sec
 * ratio c/w:     3.689 speedup

