      -----------------------------------------------------------      
     |                   =====================                   |     
     |                           x T B                           |     
     |                   =====================                   |     
     |                         S. Grimme                         |     
     |          Mulliken Center for Theoretical Chemistry        |     
     |                    University of Bonn                     |     
      -----------------------------------------------------------      

   * xtb version 6.6.1 (8d0f1dd) compiled by 'runner@Mac-1690902418499.local' on 2023-08-01

   xtb is free software: you can redistribute it and/or modify it under
   the terms of the GNU Lesser General Public License as published by
   the Free Software Foundation, either version 3 of the License, or
   (at your option) any later version.
   
   xtb is distributed in the hope that it will be useful,
   but WITHOUT ANY WARRANTY; without even the implied warranty of
   MERCHANTABILITY or FITNESS FOR A PARTICULAR PURPOSE.  See the
   GNU Lesser General Public License for more details.
   
   Cite this work as:
   * C. Bannwarth, E. Caldeweyher, S. Ehlert, A. Hansen, P. Pracht,
     J. Seibert, S. Spicher, S. Grimme, WIREs Comput. Mol. Sci., 2020, 11,
     e01493. DOI: 10.1002/wcms.1493
   
   for GFN2-xTB:
   * C. Bannwarth, S. Ehlert and S. Grimme., J. Chem. Theory Comput., 2019,
     15, 1652-1671. DOI: 10.1021/acs.jctc.8b01176
   for GFN1-xTB:
   * S. Grimme, C. Bannwarth, P. Shushkov, J. Chem. Theory Comput., 2017,
     13, 1989-2009. DOI: 10.1021/acs.jctc.7b00118
   for GFN0-xTB:
   * P. Pracht, E. Caldeweyher, S. Ehlert, S. Grimme, ChemRxiv, 2019, preprint.
     DOI: 10.26434/chemrxiv.8326202.v1
   for GFN-FF:
   * S. Spicher and S. Grimme, Angew. Chem. Int. Ed., 2020, 59, 15665-15673.
     DOI: 10.1002/anie.202004239
   
   for ALPB and GBSA implicit solvation:
   * S. Ehlert, M. Stahn, S. Spicher, S. Grimme, J. Chem. Theory Comput.,
     2021, 17, 4250-4261. DOI: 10.1021/acs.jctc.1c00471
   
   for DFT-D4:
   * E. Caldeweyher, C. Bannwarth and S. Grimme, J. Chem. Phys., 2017,
     147, 034112. DOI: 10.1063/1.4993215
   * E. Caldeweyher, S. Ehlert, A. Hansen, H. Neugebauer, S. Spicher,
     C. Bannwarth and S. Grimme, J. Chem. Phys., 2019, 150, 154122.
     DOI: 10.1063/1.5090222
   * E. Caldeweyher, J.-M. Mewes, S. Ehlert and S. Grimme, Phys. Chem. Chem. Phys.
     2020, 22, 8499-8512. DOI: 10.1039/D0CP00502A
   
   for sTDA-xTB:
   * S. Grimme and C. Bannwarth, J. Chem. Phys., 2016, 145, 054103.
     DOI: 10.1063/1.4959605
   
   in the mass-spec context:
   * V. Asgeirsson, C. Bauer and S. Grimme, Chem. Sci., 2017, 8, 4879.
     DOI: 10.1039/c7sc00601b
   * J. Koopman and S. Grimme, ACS Omega 2019, 4, 12, 15120-15133.
     DOI: 10.1021/acsomega.9b02011
   
   for metadynamics refer to:
   * S. Grimme, J. Chem. Theory Comput., 2019, 155, 2847-2862
     DOI: 10.1021/acs.jctc.9b00143
   
   for SPH calculations refer to:
   * S. Spicher and S. Grimme, J. Chem. Theory Comput., 2021, 17, 1701-1714
     DOI: 10.1021/acs.jctc.0c01306
   
   with help from (in alphabetical order)
   P. Atkinson, C. Bannwarth, F. Bohle, G. Brandenburg, E. Caldeweyher
   M. Checinski, S. Dohm, S. Ehlert, S. Ehrlich, I. Gerasimov, C. Hölzer
   A. Katbashev, J. Koopman, C. Lavigne, S. Lehtola, F. März, M. Müller,
   F. Musil, H. Neugebauer, J. Pisarek, C. Plett, P. Pracht, F. Pultar,
   J. Seibert, P. Shushkov, S. Spicher, M. Stahn, M. Steiner, T. Strunk,
   J. Stückrath, T. Rose, and J. Unsleber
   
 * started run on 2024/11/12 at 08:58:07.478     

           -------------------------------------------------
          |                Calculation Setup                |
           -------------------------------------------------

          program call               : xtb Katherine4.mol --opt --gfn2 --chrg 0 --uhf 0 --tight
          coordinate file            : Katherine4.mol
          omp threads                :                     8

   ID    Z sym.   atoms
    1    6 C      1-21, 26-39
    2    8 O      22-25
    3    1 H      40-78
########################################################################
[WARNING] Please study the warnings concerning your input carefully
-2- prog_main: Charge in sdf/mol input was overwritten
-1- prog_main_parseArguments: Unknown option '--tight' provided
########################################################################

           -------------------------------------------------
          |                 G F N 2 - x T B                 |
           -------------------------------------------------

        Reference                      10.1021/acs.jctc.8b01176
      * Hamiltonian:
        H0-scaling (s, p, d)           1.850000    2.230000    2.230000
        zeta-weighting                 0.500000
      * Dispersion:
        s8                             2.700000
        a1                             0.520000
        a2                             5.000000
        s9                             5.000000
      * Repulsion:
        kExp                           1.500000    1.000000
        rExp                           1.000000
      * Coulomb:
        alpha                          2.000000
        third order                    shell-resolved
        anisotropic                    true
        a3                             3.000000
        a5                             4.000000
        cn-shift                       1.200000
        cn-exp                         4.000000
        max-rad                        5.000000

q/qsh data taken from xtbrestart
CAMM data taken from xtbrestart

          ...................................................
          :                      SETUP                      :
          :.................................................:
          :  # basis functions                 195          :
          :  # atomic orbitals                 195          :
          :  # shells                          117          :
          :  # electrons                       203          :
          :  max. iterations                   250          :
          :  Hamiltonian                  GFN2-xTB          :
          :  restarted?                       true          :
          :  GBSA solvation                  false          :
          :  PC potential                    false          :
          :  electronic temp.          300.0000000     K    :
          :  accuracy                    1.0000000          :
          :  -> integral cutoff          0.2500000E+02      :
          :  -> integral neglect         0.1000000E-07      :
          :  -> SCF convergence          0.1000000E-05 Eh   :
          :  -> wf. convergence          0.1000000E-03 e    :
          :  Broyden damping             0.4000000          :
          ...................................................

 iter      E             dE          RMSdq      gap      omega  full diag
   1   -112.5836045 -0.112584E+03  0.121E+00    1.57       0.0  T
   2   -112.6314400 -0.478355E-01  0.816E-01    1.53       1.0  T
   3   -112.6354269 -0.398694E-02  0.579E-01    1.28       1.0  T
   4   -112.6489604 -0.135335E-01  0.326E-01    1.48       1.0  T
   5   -112.6494397 -0.479248E-03  0.188E-01    1.28       1.0  T
   6   -112.6525087 -0.306902E-02  0.314E-02    1.39       1.0  T
   7   -112.6525352 -0.264909E-04  0.180E-02    1.39       1.0  T
   8   -112.6525442 -0.902857E-05  0.761E-03    1.39       1.5  T
   9   -112.6525450 -0.756057E-06  0.310E-03    1.39       3.7  T
  10   -112.6525454 -0.454436E-06  0.117E-03    1.39       9.7  T
  11   -112.6525455 -0.183512E-07  0.647E-04    1.39      17.5  T
  12   -112.6525455 -0.101000E-07  0.275E-04    1.39      41.1  T

   *** convergence criteria satisfied after 12 iterations ***

         #    Occupation            Energy/Eh            Energy/eV
      -------------------------------------------------------------
         1        2.0000           -0.7278221             -19.8050
       ...           ...                  ...                  ...
        96        2.0000           -0.4005182             -10.8987
        97        2.0000           -0.3960727             -10.7777
        98        2.0000           -0.3881355             -10.5617
        99        2.0000           -0.3819790             -10.3942
       100        2.0000           -0.3760806             -10.2337
       101        2.0000           -0.3724810             -10.1357
       102        1.0000           -0.3358641              -9.1393 (HOMO)
       103                         -0.2848355              -7.7508 (LUMO)
       104                         -0.2576093              -7.0099
       105                         -0.2325687              -6.3285
       106                         -0.2292120              -6.2372
       107                         -0.2194297              -5.9710
       ...                                ...                  ...
       195                          0.7060256              19.2119
      -------------------------------------------------------------
                  HL-Gap            0.0510286 Eh            1.3886 eV
             Fermi-level           -0.3322559 Eh           -9.0411 eV

 SCC (total)                   0 d,  0 h,  0 min,  0.414 sec
 SCC setup                      ...        0 min,  0.000 sec (  0.036%)
 Dispersion                     ...        0 min,  0.001 sec (  0.132%)
 classical contributions        ...        0 min,  0.000 sec (  0.034%)
 integral evaluation            ...        0 min,  0.003 sec (  0.623%)
 iterations                     ...        0 min,  0.392 sec ( 94.768%)
 molecular gradient             ...        0 min,  0.015 sec (  3.514%)
 printout                       ...        0 min,  0.004 sec (  0.890%)

         :::::::::::::::::::::::::::::::::::::::::::::::::::::
         ::                     SUMMARY                     ::
         :::::::::::::::::::::::::::::::::::::::::::::::::::::
         :: total energy            -111.096799203478 Eh    ::
         :: gradient norm              0.206389861128 Eh/a0 ::
         :: HOMO-LUMO gap              1.388559450881 eV    ::
         ::.................................................::
         :: SCC energy              -112.652545464854 Eh    ::
         :: -> isotropic ES            0.091772368878 Eh    ::
         :: -> anisotropic ES          0.018101083851 Eh    ::
         :: -> anisotropic XC          0.043405439571 Eh    ::
         :: -> dispersion             -0.095902528704 Eh    ::
         :: repulsion energy           1.554803538172 Eh    ::
         :: add. restraining           0.000000000000 Eh    ::
         :: total charge               0.000000799437 e     ::
         :::::::::::::::::::::::::::::::::::::::::::::::::::::

      ----------------------------------------------------------- 
     |                   =====================                   |
     |                        A N C O P T                        |
     |                   =====================                   |
     |               Approximate Normal Coordinate               |
     |                Rational Function Optimizer                |
      ----------------------------------------------------------- 

          ...................................................
          :                      SETUP                      :
          :.................................................:
          :   optimization level            normal          :
          :   max. optcycles                   234          :
          :   ANC micro-cycles                  20          :
          :   degrees of freedom               228          :
          :.................................................:
          :   RF solver                   davidson          :
          :   write xtbopt.log                true          :
          :   linear?                        false          :
          :   energy convergence         0.5000000E-05 Eh   :
          :   grad. convergence          0.1000000E-02 Eh/α :
          :   maxmium RF displ.          1.0000000          :
          :   Hlow (freq-cutoff)         0.1000000E-01      :
          :   Hmax (freq-cutoff)         5.0000000          :
          :   S6 in model hess.         20.0000000          :
          ...................................................

generating ANC from model Hessian ...
Using Lindh-Hessian (1995)
 Shifting diagonal of input Hessian by    9.8972815909836830E-003
 Lowest  eigenvalues of input Hessian
    0.000000    0.000000    0.000000    0.000000    0.000000    0.000000
    0.010000    0.010079    0.010107    0.010284    0.010356    0.010470
    0.010880    0.011015    0.011255    0.011371    0.012162    0.012440
 Highest eigenvalues
    1.975689    1.998336    2.048022    2.051655    2.166543    2.194574


........................................................................
.............................. CYCLE    1 ..............................
........................................................................

 iter      E             dE          RMSdq      gap      omega  full diag
   1   -112.6525455 -0.112653E+03  0.106E-04    1.39       0.0  T
   2   -112.6525455 -0.173245E-09  0.736E-05    1.39     153.8  T
   3   -112.6525455 -0.218549E-09  0.457E-05    1.39     247.7  T
     SCC iter.                  ...        0 min,  0.079 sec
     gradient                   ...        0 min,  0.015 sec
 * total energy  :  -111.0967992 Eh     change       -0.4147353E-08 Eh
   gradient norm :     0.2063908 Eh/α   predicted     0.0000000E+00 (-100.00%)
   displ. norm   :     0.4188103 α      lambda       -0.6245112E-01
   maximum displ.:     0.1187915 α      in ANC's #129, #132, #89, ...

........................................................................
.............................. CYCLE    2 ..............................
........................................................................

 iter      E             dE          RMSdq      gap      omega  full diag
   1   -112.7449126 -0.112745E+03  0.258E-01    1.34       0.0  T
   2   -112.7451599 -0.247279E-03  0.171E-01    1.43       1.0  T
   3   -112.7450129  0.147028E-03  0.112E-01    1.35       1.0  T
   4   -112.7457915 -0.778637E-03  0.300E-02    1.40       1.0  T
   5   -112.7458783 -0.868128E-04  0.863E-03    1.39       1.3  T
   6   -112.7458836 -0.528858E-05  0.402E-03    1.39       2.8  T
   7   -112.7458838 -0.148775E-06  0.141E-03    1.39       8.1  T
   8   -112.7458839 -0.100708E-06  0.470E-04    1.39      24.1  T
   9   -112.7458839 -0.103782E-07  0.213E-04    1.39      53.2  T
     SCC iter.                  ...        0 min,  0.265 sec
     gradient                   ...        0 min,  0.015 sec
 * total energy  :  -111.1399135 Eh     change       -0.4311433E-01 Eh
   gradient norm :     0.0855777 Eh/α   predicted    -0.3671141E-01 ( -14.85%)
   displ. norm   :     0.4073343 α      lambda       -0.1980174E-01
   maximum displ.:     0.1963524 α      in ANC's #49, #19, #84, ...

........................................................................
.............................. CYCLE    3 ..............................
........................................................................

 iter      E             dE          RMSdq      gap      omega  full diag
   1   -112.8050351 -0.112805E+03  0.165E-01    1.40       0.0  T
   2   -112.8051610 -0.125933E-03  0.116E-01    1.45       1.0  T
   3   -112.8050638  0.971835E-04  0.615E-02    1.41       1.0  T
   4   -112.8053301 -0.266237E-03  0.192E-02    1.43       1.0  T
   5   -112.8053699 -0.398360E-04  0.436E-03    1.43       2.6  T
   6   -112.8053710 -0.105736E-05  0.220E-03    1.43       5.2  T
   7   -112.8053710 -0.323880E-07  0.941E-04    1.43      12.0  T
   8   -112.8053710 -0.471590E-07  0.282E-04    1.43      40.2  T
     SCC iter.                  ...        0 min,  0.230 sec
     gradient                   ...        0 min,  0.015 sec
 * total energy  :  -111.1516612 Eh     change       -0.1174771E-01 Eh
   gradient norm :     0.0189761 Eh/α   predicted    -0.1154364E-01 (  -1.74%)
   displ. norm   :     0.3409766 α      lambda       -0.3424855E-02
   maximum displ.:     0.1648140 α      in ANC's #19, #49, #21, ...

........................................................................
.............................. CYCLE    4 ..............................
........................................................................

 iter      E             dE          RMSdq      gap      omega  full diag
   1   -112.8203543 -0.112820E+03  0.103E-01    1.44       0.0  T
   2   -112.8203624 -0.811833E-05  0.614E-02    1.45       1.0  T
   3   -112.8203388  0.236470E-04  0.185E-02    1.44       1.0  T
   4   -112.8203658 -0.270428E-04  0.264E-03    1.44       4.3  T
   5   -112.8203664 -0.627598E-06  0.123E-03    1.44       9.2  T
   6   -112.8203666 -0.106871E-06  0.607E-04    1.44      18.6  T
   7   -112.8203666 -0.671402E-08  0.229E-04    1.44      49.3  T
     SCC iter.                  ...        0 min,  0.213 sec
     gradient                   ...        0 min,  0.015 sec
 * total energy  :  -111.1540339 Eh     change       -0.2372658E-02 Eh
   gradient norm :     0.0128063 Eh/α   predicted    -0.1913170E-02 ( -19.37%)
   displ. norm   :     0.3707122 α      lambda       -0.1708510E-02
   maximum displ.:     0.1988777 α      in ANC's #19, #21, #8, ...

........................................................................
.............................. CYCLE    5 ..............................
........................................................................

 iter      E             dE          RMSdq      gap      omega  full diag
   1   -112.8320332 -0.112832E+03  0.959E-02    1.45       0.0  T
   2   -112.8320389 -0.572651E-05  0.570E-02    1.45       1.0  T
   3   -112.8320133  0.256296E-04  0.186E-02    1.45       1.0  T
   4   -112.8320428 -0.294725E-04  0.207E-03    1.45       5.5  T
   5   -112.8320431 -0.292253E-06  0.976E-04    1.45      11.6  T
   6   -112.8320431 -0.402015E-07  0.501E-04    1.45      22.6  T
     SCC iter.                  ...        0 min,  0.176 sec
     gradient                   ...        0 min,  0.015 sec
 * total energy  :  -111.1551954 Eh     change       -0.1161503E-02 Eh
   gradient norm :     0.0084709 Eh/α   predicted    -0.9716930E-03 ( -16.34%)
   displ. norm   :     0.3209984 α      lambda       -0.7312405E-03
   maximum displ.:     0.1495484 α      in ANC's #19, #8, #13, ...

........................................................................
.............................. CYCLE    6 ..............................
........................................................................

 iter      E             dE          RMSdq      gap      omega  full diag
   1   -112.8354369 -0.112835E+03  0.737E-02    1.45       0.0  T
   2   -112.8354395 -0.262276E-05  0.435E-02    1.45       1.0  T
   3   -112.8354290  0.104810E-04  0.118E-02    1.45       1.0  T
   4   -112.8354410 -0.119745E-04  0.145E-03    1.45       7.8  T
   5   -112.8354411 -0.113726E-06  0.849E-04    1.45      13.3  T
   6   -112.8354411 -0.462303E-07  0.413E-04    1.45      27.4  T
     SCC iter.                  ...        0 min,  0.171 sec
     gradient                   ...        0 min,  0.016 sec
 * total energy  :  -111.1556977 Eh     change       -0.5022676E-03 Eh
   gradient norm :     0.0055910 Eh/α   predicted    -0.4032949E-03 ( -19.71%)
   displ. norm   :     0.2772301 α      lambda       -0.3727613E-03
   maximum displ.:     0.1276361 α      in ANC's #8, #13, #11, ...

........................................................................
.............................. CYCLE    7 ..............................
........................................................................

 iter      E             dE          RMSdq      gap      omega  full diag
   1   -112.8367312 -0.112837E+03  0.545E-02    1.46       0.0  T
   2   -112.8367334 -0.214974E-05  0.325E-02    1.45       1.0  T
   3   -112.8367242  0.912869E-05  0.866E-03    1.46       1.3  T
   4   -112.8367342 -0.997899E-05  0.171E-03    1.45       6.6  T
   5   -112.8367345 -0.277114E-06  0.667E-04    1.45      17.0  T
   6   -112.8367345 -0.110351E-07  0.406E-04    1.45      27.9  T
     SCC iter.                  ...        0 min,  0.141 sec
     gradient                   ...        0 min,  0.015 sec
 * total energy  :  -111.1559575 Eh     change       -0.2597891E-03 Eh
   gradient norm :     0.0042670 Eh/α   predicted    -0.2007119E-03 ( -22.74%)
   displ. norm   :     0.2422855 α      lambda       -0.2240001E-03
   maximum displ.:     0.1200401 α      in ANC's #8, #1, #13, ...

........................................................................
.............................. CYCLE    8 ..............................
........................................................................

 iter      E             dE          RMSdq      gap      omega  full diag
   1   -112.8360143 -0.112836E+03  0.418E-02    1.45       0.0  T
   2   -112.8360149 -0.591216E-06  0.247E-02    1.45       1.0  T
   3   -112.8360140  0.901720E-06  0.370E-03    1.45       3.1  T
   4   -112.8360151 -0.109493E-05  0.897E-04    1.45      12.6  T
   5   -112.8360152 -0.266401E-07  0.563E-04    1.45      20.1  T
   6   -112.8360152 -0.202609E-07  0.242E-04    1.45      46.9  T
     SCC iter.                  ...        0 min,  0.135 sec
     gradient                   ...        0 min,  0.015 sec
 * total energy  :  -111.1561211 Eh     change       -0.1636015E-03 Eh
   gradient norm :     0.0040761 Eh/α   predicted    -0.1185751E-03 ( -27.52%)
   displ. norm   :     0.2300665 α      lambda       -0.1695380E-03
   maximum displ.:     0.1142375 α      in ANC's #1, #8, #13, ...

........................................................................
.............................. CYCLE    9 ..............................
........................................................................

 iter      E             dE          RMSdq      gap      omega  full diag
   1   -112.8352738 -0.112835E+03  0.339E-02    1.46       0.0  T
   2   -112.8352748 -0.962473E-06  0.202E-02    1.45       1.0  T
   3   -112.8352714  0.333550E-05  0.588E-03    1.46       1.9  T
   4   -112.8352751 -0.367133E-05  0.124E-03    1.45       9.2  T
   5   -112.8352752 -0.140027E-06  0.560E-04    1.45      20.2  T
   6   -112.8352753 -0.154683E-07  0.281E-04    1.45      40.3  T
     SCC iter.                  ...        0 min,  0.176 sec
     gradient                   ...        0 min,  0.016 sec
 * total energy  :  -111.1562449 Eh     change       -0.1238651E-03 Eh
   gradient norm :     0.0034991 Eh/α   predicted    -0.8925808E-04 ( -27.94%)
   displ. norm   :     0.2040237 α      lambda       -0.1166314E-03
   maximum displ.:     0.1165021 α      in ANC's #1, #8, #2, ...

........................................................................
.............................. CYCLE   10 ..............................
........................................................................

 iter      E             dE          RMSdq      gap      omega  full diag
   1   -112.8346657 -0.112835E+03  0.276E-02    1.45       0.0  T
   2   -112.8346662 -0.499664E-06  0.163E-02    1.45       1.0  T
   3   -112.8346653  0.854927E-06  0.352E-03    1.45       3.2  T
   4   -112.8346663 -0.998143E-06  0.783E-04    1.45      14.5  T
   5   -112.8346664 -0.352096E-07  0.401E-04    1.45      28.2  T
     SCC iter.                  ...        0 min,  0.076 sec
     gradient                   ...        0 min,  0.016 sec
 * total energy  :  -111.1563302 Eh     change       -0.8525703E-04 Eh
   gradient norm :     0.0023732 Eh/α   predicted    -0.6074490E-04 ( -28.75%)
   displ. norm   :     0.1620204 α      lambda       -0.7642152E-04
   maximum displ.:     0.1041332 α      in ANC's #1, #8, #2, ...

........................................................................
.............................. CYCLE   11 ..............................
........................................................................

 iter      E             dE          RMSdq      gap      omega  full diag
   1   -112.8346593 -0.112835E+03  0.192E-02    1.45       0.0  T
   2   -112.8346594 -0.152952E-06  0.114E-02    1.45       1.0  T
   3   -112.8346591  0.392017E-06  0.210E-03    1.45       5.4  T
   4   -112.8346595 -0.449129E-06  0.570E-04    1.45      19.9  T
   5   -112.8346595 -0.185231E-07  0.304E-04    1.45      37.2  T
     SCC iter.                  ...        0 min,  0.086 sec
     gradient                   ...        0 min,  0.015 sec
 * total energy  :  -111.1563900 Eh     change       -0.5984103E-04 Eh
   gradient norm :     0.0023380 Eh/α   predicted    -0.3921866E-04 ( -34.46%)
   displ. norm   :     0.1562315 α      lambda       -0.6962674E-04
   maximum displ.:     0.1052417 α      in ANC's #1, #2, #3, ...

........................................................................
.............................. CYCLE   12 ..............................
........................................................................

 iter      E             dE          RMSdq      gap      omega  full diag
   1   -112.8350076 -0.112835E+03  0.168E-02    1.45       0.0  T
   2   -112.8350079 -0.263555E-06  0.100E-02    1.45       1.1  T
   3   -112.8350071  0.854387E-06  0.291E-03    1.45       3.9  T
   4   -112.8350080 -0.959069E-06  0.580E-04    1.45      19.5  T
   5   -112.8350080 -0.260381E-07  0.276E-04    1.45      41.0  T
     SCC iter.                  ...        0 min,  0.073 sec
     gradient                   ...        0 min,  0.016 sec
 * total energy  :  -111.1564485 Eh     change       -0.5842860E-04 Eh
   gradient norm :     0.0024347 Eh/α   predicted    -0.3567044E-04 ( -38.95%)
   displ. norm   :     0.1934489 α      lambda       -0.8302326E-04
   maximum displ.:     0.1290766 α      in ANC's #1, #2, #3, ...

........................................................................
.............................. CYCLE   13 ..............................
........................................................................

 iter      E             dE          RMSdq      gap      omega  full diag
   1   -112.8353695 -0.112835E+03  0.200E-02    1.45       0.0  T
   2   -112.8353699 -0.324258E-06  0.120E-02    1.45       1.0  T
   3   -112.8353688  0.111208E-05  0.346E-03    1.45       3.3  T
   4   -112.8353700 -0.126612E-05  0.617E-04    1.45      18.3  T
   5   -112.8353700 -0.245089E-07  0.332E-04    1.45      34.1  T
   6   -112.8353700 -0.296633E-08  0.173E-04    1.45      65.3  T
     SCC iter.                  ...        0 min,  0.090 sec
     gradient                   ...        0 min,  0.016 sec
 * total energy  :  -111.1565197 Eh     change       -0.7123811E-04 Eh
   gradient norm :     0.0026290 Eh/α   predicted    -0.4307115E-04 ( -39.54%)
   displ. norm   :     0.2448955 α      lambda       -0.9647619E-04
   maximum displ.:     0.1629511 α      in ANC's #1, #2, #3, ...

........................................................................
.............................. CYCLE   14 ..............................
........................................................................

 iter      E             dE          RMSdq      gap      omega  full diag
   1   -112.8355791 -0.112836E+03  0.250E-02    1.45       0.0  T
   2   -112.8355796 -0.463942E-06  0.149E-02    1.45       1.0  T
   3   -112.8355780  0.154976E-05  0.403E-03    1.45       2.8  T
   4   -112.8355798 -0.176776E-05  0.725E-04    1.45      15.6  T
   5   -112.8355798 -0.321705E-07  0.390E-04    1.45      29.0  T
   6   -112.8355798 -0.359533E-08  0.197E-04    1.45      57.4  T
     SCC iter.                  ...        0 min,  0.108 sec
     gradient                   ...        0 min,  0.016 sec
 * total energy  :  -111.1566020 Eh     change       -0.8232408E-04 Eh
   gradient norm :     0.0024603 Eh/α   predicted    -0.5113316E-04 ( -37.89%)
   displ. norm   :     0.2636080 α      lambda       -0.9201036E-04
   maximum displ.:     0.1777625 α      in ANC's #1, #2, #3, ...

........................................................................
.............................. CYCLE   15 ..............................
........................................................................

 iter      E             dE          RMSdq      gap      omega  full diag
   1   -112.8355982 -0.112836E+03  0.266E-02    1.45       0.0  T
   2   -112.8355985 -0.350979E-06  0.158E-02    1.45       1.0  T
   3   -112.8355974  0.110991E-05  0.345E-03    1.45       3.3  T
   4   -112.8355987 -0.127870E-05  0.682E-04    1.45      16.6  T
   5   -112.8355987 -0.222577E-07  0.397E-04    1.45      28.5  T
   6   -112.8355987 -0.389555E-08  0.188E-04    1.45      60.4  T
     SCC iter.                  ...        0 min,  0.148 sec
     gradient                   ...        0 min,  0.015 sec
 * total energy  :  -111.1566805 Eh     change       -0.7849942E-04 Eh
   gradient norm :     0.0020148 Eh/α   predicted    -0.4920380E-04 ( -37.32%)
   displ. norm   :     0.2478075 α      lambda       -0.7795003E-04
   maximum displ.:     0.1698969 α      in ANC's #1, #2, #3, ...

........................................................................
.............................. CYCLE   16 ..............................
........................................................................

 iter      E             dE          RMSdq      gap      omega  full diag
   1   -112.8357094 -0.112836E+03  0.251E-02    1.45       0.0  T
   2   -112.8357096 -0.216748E-06  0.148E-02    1.45       1.0  T
   3   -112.8357091  0.515659E-06  0.248E-03    1.45       4.6  T
   4   -112.8357097 -0.613285E-06  0.570E-04    1.45      19.9  T
   5   -112.8357097 -0.114280E-07  0.353E-04    1.45      32.1  T
     SCC iter.                  ...        0 min,  0.154 sec
     gradient                   ...        0 min,  0.018 sec
 * total energy  :  -111.1567486 Eh     change       -0.6804433E-04 Eh
   gradient norm :     0.0017694 Eh/α   predicted    -0.4137158E-04 ( -39.20%)
   displ. norm   :     0.3503016 α      lambda       -0.7050062E-04
   maximum displ.:     0.2425248 α      in ANC's #1, #2, #3, ...

........................................................................
.............................. CYCLE   17 ..............................
........................................................................

 iter      E             dE          RMSdq      gap      omega  full diag
   1   -112.8357842 -0.112836E+03  0.356E-02    1.45       0.0  T
   2   -112.8357845 -0.346617E-06  0.210E-02    1.45       1.0  T
   3   -112.8357839  0.592022E-06  0.279E-03    1.45       4.1  T
   4   -112.8357846 -0.731654E-06  0.750E-04    1.45      15.1  T
   5   -112.8357847 -0.179538E-07  0.474E-04    1.45      23.9  T
     SCC iter.                  ...        0 min,  0.092 sec
     gradient                   ...        0 min,  0.014 sec
 * total energy  :  -111.1568378 Eh     change       -0.8923479E-04 Eh
   gradient norm :     0.0021072 Eh/α   predicted    -0.3717636E-04 ( -58.34%)
   displ. norm   :     0.2055027 α      lambda       -0.5923134E-04
   maximum displ.:     0.1433785 α      in ANC's #1, #2, #3, ...

........................................................................
.............................. CYCLE   18 ..............................
........................................................................

 iter      E             dE          RMSdq      gap      omega  full diag
   1   -112.8358765 -0.112836E+03  0.205E-02    1.45       0.0  T
   2   -112.8358766 -0.101239E-06  0.121E-02    1.45       1.0  T
   3   -112.8358765  0.117666E-06  0.133E-03    1.45       8.5  T
   4   -112.8358767 -0.158961E-06  0.378E-04    1.45      30.0  T
   5   -112.8358767 -0.236334E-08  0.234E-04    1.45      48.5  T
     SCC iter.                  ...        0 min,  0.135 sec
     gradient                   ...        0 min,  0.015 sec
 * total energy  :  -111.1568926 Eh     change       -0.5478767E-04 Eh
   gradient norm :     0.0019822 Eh/α   predicted    -0.3086771E-04 ( -43.66%)
   displ. norm   :     0.3891433 α      lambda       -0.7673384E-04
   maximum displ.:     0.2699645 α      in ANC's #1, #2, #3, ...

........................................................................
.............................. CYCLE   19 ..............................
........................................................................

 iter      E             dE          RMSdq      gap      omega  full diag
   1   -112.8358771 -0.112836E+03  0.383E-02    1.45       0.0  T
   2   -112.8358775 -0.333583E-06  0.226E-02    1.45       1.0  T
   3   -112.8358768  0.639968E-06  0.271E-03    1.45       4.2  T
   4   -112.8358776 -0.767563E-06  0.778E-04    1.45      14.5  T
   5   -112.8358776 -0.304069E-07  0.444E-04    1.45      25.5  T
     SCC iter.                  ...        0 min,  0.089 sec
     gradient                   ...        0 min,  0.015 sec
 * total energy  :  -111.1569881 Eh     change       -0.9553587E-04 Eh
   gradient norm :     0.0014612 Eh/α   predicted    -0.4094959E-04 ( -57.14%)
   displ. norm   :     0.3608027 α      lambda       -0.5492225E-04
   maximum displ.:     0.2531207 α      in ANC's #1, #2, #3, ...

........................................................................
.............................. CYCLE   20 ..............................
........................................................................

 iter      E             dE          RMSdq      gap      omega  full diag
   1   -112.8355734 -0.112836E+03  0.335E-02    1.45       0.0  T
   2   -112.8355737 -0.257904E-06  0.198E-02    1.45       1.0  T
   3   -112.8355732  0.512172E-06  0.233E-03    1.45       4.9  T
   4   -112.8355738 -0.620257E-06  0.642E-04    1.45      17.6  T
   5   -112.8355738 -0.174423E-07  0.346E-04    1.45      32.7  T
     SCC iter.                  ...        0 min,  0.075 sec
     gradient                   ...        0 min,  0.016 sec
 * total energy  :  -111.1570539 Eh     change       -0.6578786E-04 Eh
   gradient norm :     0.0012422 Eh/α   predicted    -0.2905087E-04 ( -55.84%)
   displ. norm   :     0.2618535 α      lambda       -0.3350614E-04
   maximum displ.:     0.1874937 α      in ANC's #1, #2, #3, ...
 * RMSD in coord.:     0.4532319 α      energy gain  -0.6025470E-01 Eh

generating ANC from model Hessian ...
Using Lindh-Hessian (1995)
 Shifting diagonal of input Hessian by    9.8612936070245748E-003
 Lowest  eigenvalues of input Hessian
    0.000000    0.000000    0.000000    0.000000    0.000000    0.000000
    0.010000    0.010094    0.010138    0.010316    0.010406    0.010519
    0.010831    0.011124    0.011405    0.011478    0.012504    0.012656
 Highest eigenvalues
    2.021574    2.064105    2.088604    2.106409    2.220582    2.244401


........................................................................
.............................. CYCLE   21 ..............................
........................................................................

 iter      E             dE          RMSdq      gap      omega  full diag
   1   -112.8357890 -0.112836E+03  0.238E-02    1.45       0.0  T
   2   -112.8357891 -0.955219E-07  0.140E-02    1.45       1.0  T
   3   -112.8357885  0.559428E-06  0.220E-03    1.45       5.1  T
   4   -112.8357892 -0.629619E-06  0.458E-04    1.45      24.7  T
   5   -112.8357892 -0.862920E-08  0.259E-04    1.45      43.7  T
     SCC iter.                  ...        0 min,  0.112 sec
     gradient                   ...        0 min,  0.014 sec
 * total energy  :  -111.1570922 Eh     change       -0.3830322E-04 Eh
   gradient norm :     0.0012831 Eh/α   predicted     0.0000000E+00 (-100.00%)
   displ. norm   :     0.0426267 α      lambda       -0.1465053E-04
   maximum displ.:     0.0300002 α      in ANC's #1, #4, #8, ...

........................................................................
.............................. CYCLE   22 ..............................
........................................................................

 iter      E             dE          RMSdq      gap      omega  full diag
   1   -112.8360714 -0.112836E+03  0.888E-03    1.45       0.0  T
   2   -112.8360714 -0.445509E-07  0.531E-03    1.45       2.1  T
   3   -112.8360713  0.147269E-06  0.123E-03    1.45       9.2  T
   4   -112.8360714 -0.161540E-06  0.287E-04    1.45      39.4  T
   5   -112.8360715 -0.727495E-08  0.135E-04    1.45      83.8  T
     SCC iter.                  ...        0 min,  0.092 sec
     gradient                   ...        0 min,  0.016 sec
 * total energy  :  -111.1571065 Eh     change       -0.1426467E-04 Eh
   gradient norm :     0.0009180 Eh/α   predicted    -0.7351825E-05 ( -48.46%)
   displ. norm   :     0.0810575 α      lambda       -0.1710305E-04
   maximum displ.:     0.0544995 α      in ANC's #1, #4, #8, ...

........................................................................
.............................. CYCLE   23 ..............................
........................................................................

 iter      E             dE          RMSdq      gap      omega  full diag
   1   -112.8363326 -0.112836E+03  0.114E-02    1.45       0.0  T
   2   -112.8363327 -0.830511E-07  0.682E-03    1.45       1.7  T
   3   -112.8363325  0.138706E-06  0.136E-03    1.45       8.3  T
   4   -112.8363327 -0.164005E-06  0.283E-04    1.45      40.0  T
   5   -112.8363327 -0.398482E-08  0.147E-04    1.45      76.8  T
     SCC iter.                  ...        0 min,  0.143 sec
     gradient                   ...        0 min,  0.015 sec
 * total energy  :  -111.1571275 Eh     change       -0.2104055E-04 Eh
   gradient norm :     0.0011079 Eh/α   predicted    -0.8577130E-05 ( -59.24%)
   displ. norm   :     0.1303727 α      lambda       -0.2131950E-04
   maximum displ.:     0.0873244 α      in ANC's #1, #4, #8, ...

........................................................................
.............................. CYCLE   24 ..............................
........................................................................

 iter      E             dE          RMSdq      gap      omega  full diag
   1   -112.8363425 -0.112836E+03  0.170E-02    1.45       0.0  T
   2   -112.8363426 -0.784841E-07  0.102E-02    1.45       1.1  T
   3   -112.8363425  0.105078E-06  0.129E-03    1.45       8.8  T
   4   -112.8363426 -0.134007E-06  0.310E-04    1.45      36.6  T
   5   -112.8363426 -0.204206E-08  0.166E-04    1.45      68.4  T
     SCC iter.                  ...        0 min,  0.159 sec
     gradient                   ...        0 min,  0.014 sec
 * total energy  :  -111.1571528 Eh     change       -0.2525917E-04 Eh
   gradient norm :     0.0009834 Eh/α   predicted    -0.1074166E-04 ( -57.47%)
   displ. norm   :     0.1281689 α      lambda       -0.1608137E-04
   maximum displ.:     0.0890658 α      in ANC's #1, #4, #7, ...

........................................................................
.............................. CYCLE   25 ..............................
........................................................................

 iter      E             dE          RMSdq      gap      omega  full diag
   1   -112.8363482 -0.112836E+03  0.155E-02    1.45       0.0  T
   2   -112.8363483 -0.444562E-07  0.931E-03    1.45       1.2  T
   3   -112.8363482  0.495525E-07  0.884E-04    1.45      12.8  T
   4   -112.8363483 -0.645719E-07  0.259E-04    1.45      43.7  T
     SCC iter.                  ...        0 min,  0.099 sec
     gradient                   ...        0 min,  0.014 sec
 * total energy  :  -111.1571731 Eh     change       -0.2032859E-04 Eh
   gradient norm :     0.0007983 Eh/α   predicted    -0.8099601E-05 ( -60.16%)
   displ. norm   :     0.1203581 α      lambda       -0.1463786E-04
   maximum displ.:     0.0851953 α      in ANC's #1, #4, #7, ...

........................................................................
.............................. CYCLE   26 ..............................
........................................................................

 iter      E             dE          RMSdq      gap      omega  full diag
   1   -112.8362031 -0.112836E+03  0.141E-02    1.45       0.0  T
   2   -112.8362031 -0.333471E-07  0.841E-03    1.45       1.3  T
   3   -112.8362030  0.136331E-06  0.108E-03    1.45      10.5  T
   4   -112.8362031 -0.151974E-06  0.259E-04    1.45      43.7  T
   5   -112.8362031 -0.348992E-08  0.136E-04    1.45      83.0  T
     SCC iter.                  ...        0 min,  0.124 sec
     gradient                   ...        0 min,  0.014 sec
 * total energy  :  -111.1571926 Eh     change       -0.1946403E-04 Eh
   gradient norm :     0.0005377 Eh/α   predicted    -0.7377464E-05 ( -62.10%)
   displ. norm   :     0.1340316 α      lambda       -0.1620556E-04
   maximum displ.:     0.0952775 α      in ANC's #1, #4, #6, ...

........................................................................
.............................. CYCLE   27 ..............................
........................................................................

 iter      E             dE          RMSdq      gap      omega  full diag
   1   -112.8360958 -0.112836E+03  0.155E-02    1.45       0.0  T
   2   -112.8360958 -0.420986E-07  0.927E-03    1.45       1.2  T
   3   -112.8360957  0.102277E-06  0.104E-03    1.45      10.9  T
   4   -112.8360958 -0.119580E-06  0.268E-04    1.45      42.3  T
   5   -112.8360958 -0.274611E-08  0.147E-04    1.45      77.2  T
     SCC iter.                  ...        0 min,  0.093 sec
     gradient                   ...        0 min,  0.014 sec
 * total energy  :  -111.1572136 Eh     change       -0.2106147E-04 Eh
   gradient norm :     0.0004701 Eh/α   predicted    -0.8167668E-05 ( -61.22%)
   displ. norm   :     0.1432675 α      lambda       -0.1525450E-04
   maximum displ.:     0.1029945 α      in ANC's #1, #4, #6, ...

........................................................................
.............................. CYCLE   28 ..............................
........................................................................

 iter      E             dE          RMSdq      gap      omega  full diag
   1   -112.8359223 -0.112836E+03  0.162E-02    1.45       0.0  T
   2   -112.8359223 -0.400439E-07  0.963E-03    1.45       1.2  T
   3   -112.8359223  0.583458E-07  0.903E-04    1.45      12.5  T
   4   -112.8359223 -0.746072E-07  0.249E-04    1.45      45.5  T
     SCC iter.                  ...        0 min,  0.084 sec
     gradient                   ...        0 min,  0.019 sec
 * total energy  :  -111.1572328 Eh     change       -0.1918495E-04 Eh
   gradient norm :     0.0005139 Eh/α   predicted    -0.7697607E-05 ( -59.88%)
   displ. norm   :     0.1213837 α      lambda       -0.1115967E-04
   maximum displ.:     0.0891045 α      in ANC's #1, #4, #6, ...

........................................................................
.............................. CYCLE   29 ..............................
........................................................................

 iter      E             dE          RMSdq      gap      omega  full diag
   1   -112.8359588 -0.112836E+03  0.128E-02    1.45       0.0  T
   2   -112.8359589 -0.210328E-07  0.763E-03    1.45       1.5  T
   3   -112.8359588  0.829882E-07  0.905E-04    1.45      12.5  T
   4   -112.8359589 -0.949769E-07  0.224E-04    1.45      50.6  T
     SCC iter.                  ...        0 min,  0.117 sec
     gradient                   ...        0 min,  0.014 sec
 * total energy  :  -111.1572469 Eh     change       -0.1409852E-04 Eh
   gradient norm :     0.0004939 Eh/α   predicted    -0.5618460E-05 ( -60.15%)
   displ. norm   :     0.0938745 α      lambda       -0.8262276E-05
   maximum displ.:     0.0707336 α      in ANC's #1, #4, #6, ...

........................................................................
.............................. CYCLE   30 ..............................
........................................................................

 iter      E             dE          RMSdq      gap      omega  full diag
   1   -112.8360703 -0.112836E+03  0.910E-03    1.45       0.0  T
   2   -112.8360703 -0.113256E-07  0.541E-03    1.45       2.1  T
   3   -112.8360703  0.239551E-07  0.524E-04    1.45      21.6  T
   4   -112.8360703 -0.291373E-07  0.144E-04    1.45      78.7  T
     SCC iter.                  ...        0 min,  0.112 sec
     gradient                   ...        0 min,  0.015 sec
 * total energy  :  -111.1572578 Eh     change       -0.1088211E-04 Eh
   gradient norm :     0.0004026 Eh/α   predicted    -0.4151318E-05 ( -61.85%)
   displ. norm   :     0.0785556 α      lambda       -0.7242049E-05
   maximum displ.:     0.0598406 α      in ANC's #1, #4, #8, ...

........................................................................
.............................. CYCLE   31 ..............................
........................................................................

 iter      E             dE          RMSdq      gap      omega  full diag
   1   -112.8361005 -0.112836E+03  0.708E-03    1.45       0.0  T
   2   -112.8361005 -0.906208E-08  0.420E-03    1.45       2.7  T
   3   -112.8361005  0.265473E-07  0.509E-04    1.45      22.2  T
   4   -112.8361005 -0.303048E-07  0.125E-04    1.45      90.3  T
     SCC iter.                  ...        0 min,  0.127 sec
     gradient                   ...        0 min,  0.024 sec
 * total energy  :  -111.1572676 Eh     change       -0.9836273E-05 Eh
   gradient norm :     0.0002982 Eh/α   predicted    -0.3635423E-05 ( -63.04%)
   displ. norm   :     0.0789502 α      lambda       -0.7425323E-05
   maximum displ.:     0.0602438 α      in ANC's #1, #4, #8, ...

........................................................................
.............................. CYCLE   32 ..............................
........................................................................

 iter      E             dE          RMSdq      gap      omega  full diag
   1   -112.8361685 -0.112836E+03  0.717E-03    1.45       0.0  T
   2   -112.8361685 -0.970353E-08  0.424E-03    1.45       2.7  T
   3   -112.8361685  0.192677E-07  0.480E-04    1.45      23.6  T
   4   -112.8361685 -0.233137E-07  0.110E-04    1.45     103.4  T
     SCC iter.                  ...        0 min,  0.108 sec
     gradient                   ...        0 min,  0.026 sec
 * total energy  :  -111.1572777 Eh     change       -0.1003085E-04 Eh
   gradient norm :     0.0002621 Eh/α   predicted    -0.3726802E-05 ( -62.85%)
   displ. norm   :     0.0810156 α      lambda       -0.7153394E-05
   maximum displ.:     0.0617491 α      in ANC's #1, #4, #7, ...

........................................................................
.............................. CYCLE   33 ..............................
........................................................................

 iter      E             dE          RMSdq      gap      omega  full diag
   1   -112.8361725 -0.112836E+03  0.754E-03    1.45       0.0  T
   2   -112.8361725 -0.997566E-08  0.446E-03    1.45       2.5  T
   3   -112.8361725  0.173215E-07  0.462E-04    1.45      24.5  T
   4   -112.8361725 -0.213704E-07  0.122E-04    1.45      92.8  T
     SCC iter.                  ...        0 min,  0.144 sec
     gradient                   ...        0 min,  0.016 sec
 * total energy  :  -111.1572873 Eh     change       -0.9620629E-05 Eh
   gradient norm :     0.0002639 Eh/α   predicted    -0.3588884E-05 ( -62.70%)
   displ. norm   :     0.0782463 α      lambda       -0.6415921E-05
   maximum displ.:     0.0597699 α      in ANC's #1, #7, #3, ...

........................................................................
.............................. CYCLE   34 ..............................
........................................................................

 iter      E             dE          RMSdq      gap      omega  full diag
   1   -112.8361632 -0.112836E+03  0.751E-03    1.45       0.0  T
   2   -112.8361633 -0.923828E-08  0.445E-03    1.45       2.5  T
   3   -112.8361632  0.205680E-07  0.493E-04    1.45      23.0  T
   4   -112.8361633 -0.249945E-07  0.135E-04    1.45      83.8  T
     SCC iter.                  ...        0 min,  0.114 sec
     gradient                   ...        0 min,  0.014 sec
 * total energy  :  -111.1572960 Eh     change       -0.8712630E-05 Eh
   gradient norm :     0.0002517 Eh/α   predicted    -0.3217760E-05 ( -63.07%)
   displ. norm   :     0.0749509 α      lambda       -0.5893468E-05
   maximum displ.:     0.0570566 α      in ANC's #1, #7, #3, ...

........................................................................
.............................. CYCLE   35 ..............................
........................................................................

 iter      E             dE          RMSdq      gap      omega  full diag
   1   -112.8361596 -0.112836E+03  0.745E-03    1.45       0.0  T
   2   -112.8361596 -0.104862E-07  0.442E-03    1.45       2.6  T
   3   -112.8361596  0.191969E-07  0.502E-04    1.45      22.6  T
   4   -112.8361596 -0.239546E-07  0.147E-04    1.45      77.0  T
     SCC iter.                  ...        0 min,  0.094 sec
     gradient                   ...        0 min,  0.014 sec
 * total energy  :  -111.1573041 Eh     change       -0.8105470E-05 Eh
   gradient norm :     0.0002255 Eh/α   predicted    -0.2954757E-05 ( -63.55%)
   displ. norm   :     0.0752168 α      lambda       -0.5754324E-05
   maximum displ.:     0.0567496 α      in ANC's #1, #7, #3, ...

........................................................................
.............................. CYCLE   36 ..............................
........................................................................

 iter      E             dE          RMSdq      gap      omega  full diag
   1   -112.8361533 -0.112836E+03  0.781E-03    1.45       0.0  T
   2   -112.8361533 -0.123024E-07  0.464E-03    1.45       2.4  T
   3   -112.8361533  0.218044E-07  0.543E-04    1.45      20.8  T
   4   -112.8361534 -0.276040E-07  0.161E-04    1.45      70.4  T
     SCC iter.                  ...        0 min,  0.095 sec
     gradient                   ...        0 min,  0.015 sec
 * total energy  :  -111.1573120 Eh     change       -0.7899745E-05 Eh
   gradient norm :     0.0001926 Eh/α   predicted    -0.2888893E-05 ( -63.43%)
   displ. norm   :     0.0781724 α      lambda       -0.5640733E-05
   maximum displ.:     0.0587960 α      in ANC's #1, #7, #3, ...

........................................................................
.............................. CYCLE   37 ..............................
........................................................................

 iter      E             dE          RMSdq      gap      omega  full diag
   1   -112.8361707 -0.112836E+03  0.825E-03    1.45       0.0  T
   2   -112.8361707 -0.154567E-07  0.491E-03    1.45       2.3  T
   3   -112.8361707  0.328109E-07  0.667E-04    1.45      17.0  T
   4   -112.8361707 -0.406788E-07  0.172E-04    1.45      65.9  T
     SCC iter.                  ...        0 min,  0.075 sec
     gradient                   ...        0 min,  0.016 sec
 * total energy  :  -111.1573196 Eh     change       -0.7618346E-05 Eh
   gradient norm :     0.0001719 Eh/α   predicted    -0.2830402E-05 ( -62.85%)
   displ. norm   :     0.0748148 α      lambda       -0.4844127E-05
   maximum displ.:     0.0567934 α      in ANC's #1, #7, #3, ...

........................................................................
.............................. CYCLE   38 ..............................
........................................................................

 iter      E             dE          RMSdq      gap      omega  full diag
   1   -112.8361747 -0.112836E+03  0.797E-03    1.45       0.0  T
   2   -112.8361748 -0.140011E-07  0.473E-03    1.45       2.4  T
   3   -112.8361747  0.328661E-07  0.652E-04    1.45      17.4  T
   4   -112.8361748 -0.403582E-07  0.162E-04    1.45      69.9  T
     SCC iter.                  ...        0 min,  0.075 sec
     gradient                   ...        0 min,  0.016 sec
 * total energy  :  -111.1573261 Eh     change       -0.6505395E-05 Eh
   gradient norm :     0.0001586 Eh/α   predicted    -0.2429279E-05 ( -62.66%)
   displ. norm   :     0.0612606 α      lambda       -0.3615146E-05
   maximum displ.:     0.0475542 α      in ANC's #1, #7, #3, ...

........................................................................
.............................. CYCLE   39 ..............................
........................................................................

 iter      E             dE          RMSdq      gap      omega  full diag
   1   -112.8362159 -0.112836E+03  0.628E-03    1.45       0.0  T
   2   -112.8362159 -0.847463E-08  0.373E-03    1.45       3.0  T
   3   -112.8362159  0.262241E-07  0.560E-04    1.45      20.2  T
   4   -112.8362159 -0.313229E-07  0.124E-04    1.45      91.6  T
     SCC iter.                  ...        0 min,  0.082 sec
     gradient                   ...        0 min,  0.014 sec
 * total energy  :  -111.1573310 Eh     change       -0.4927676E-05 Eh
   gradient norm :     0.0001624 Eh/α   predicted    -0.1814218E-05 ( -63.18%)
   displ. norm   :     0.0488708 α      lambda       -0.2857429E-05
   maximum displ.:     0.0389875 α      in ANC's #1, #7, #3, ...

   *** GEOMETRY OPTIMIZATION CONVERGED AFTER 39 ITERATIONS ***

------------------------------------------------------------------------
 total energy gain   :        -0.0605318 Eh      -37.9843 kcal/mol
 total RMSD          :         0.5489075 a0        0.2905 Å
 total power (kW/mol):        -4.0750343 (step)  -27.5235 (real)
------------------------------------------------------------------------

 ANCopt (total)                0 d,  0 h,  0 min,  5.774 sec
 optimizer setup                ...        0 min,  0.000 sec (  0.002%)
 model hessian                  ...        0 min,  0.058 sec (  1.008%)
 ANC generation                 ...        0 min,  0.028 sec (  0.491%)
 coordinate transformation      ...        0 min,  0.001 sec (  0.016%)
 single point calculation       ...        0 min,  5.674 sec ( 98.263%)
 optimization log               ...        0 min,  0.005 sec (  0.093%)
 hessian update                 ...        0 min,  0.002 sec (  0.040%)
 rational function              ...        0 min,  0.004 sec (  0.066%)

================
 final structure:
================
 xtb: 6.6.1 (8d0f1dd)
          11122408583D

 78 82  0     0  0            999 V2000
   -0.9196    1.8557   -0.2176 C   0  0  0  0  0  0  0  0  0  0  0  0
   -0.9802    0.4781   -0.1197 C   0  0  0  0  0  0  0  0  0  0  0  0
   -0.0273   -0.2218    0.6689 C   0  0  0  0  0  0  0  0  0  0  0  0
    1.0703    0.5218    1.1470 C   0  0  0  0  0  0  0  0  0  0  0  0
    1.1013    1.9084    1.0348 C   0  0  0  0  0  0  0  0  0  0  0  0
    0.0881    2.6031    0.3984 C   0  0  0  0  0  0  0  0  0  0  0  0
   -0.0905   -1.6280    0.9119 C   0  0  0  0  0  0  0  0  0  0  0  0
    1.1378   -2.3036    1.1529 C   0  0  0  0  0  0  0  0  0  0  0  0
    2.2936   -1.6008    1.5459 C   0  0  0  0  0  0  0  0  0  0  0  0
    2.2435   -0.1444    1.7363 C   0  0  0  0  0  0  0  0  0  0  0  0
   -1.2871   -2.4089    0.9498 C   0  0  0  0  0  0  0  0  0  0  0  0
   -1.2218   -3.7997    0.7291 C   0  0  0  0  0  0  0  0  0  0  0  0
    0.0711   -4.4911    0.5959 C   0  0  0  0  0  0  0  0  0  0  0  0
    1.2403   -3.7022    1.0079 C   0  0  0  0  0  0  0  0  0  0  0  0
    2.4512   -4.3417    1.2252 C   0  0  0  0  0  0  0  0  0  0  0  0
    3.5912   -3.6542    1.6358 C   0  0  0  0  0  0  0  0  0  0  0  0
    3.4804   -2.2788    1.7998 C   0  0  0  0  0  0  0  0  0  0  0  0
   -2.5554   -1.8774    1.3092 C   0  0  0  0  0  0  0  0  0  0  0  0
   -3.6813   -2.6791    1.2665 C   0  0  0  0  0  0  0  0  0  0  0  0
   -3.6230   -4.0318    0.9210 C   0  0  0  0  0  0  0  0  0  0  0  0
   -2.3737   -4.5787    0.6890 C   0  0  0  0  0  0  0  0  0  0  0  0
   -2.5696   -0.5954    1.7581 O   0  0  0  0  0  0  0  0  0  0  0  0
   -1.8747   -0.2840   -0.8007 O   0  0  0  0  0  0  0  0  0  0  0  0
    3.1444    0.4773    2.2847 O   0  0  0  0  0  0  0  0  0  0  0  0
    0.1591   -5.6589    0.2401 O   0  0  0  0  0  0  0  0  0  0  0  0
   -3.7783   -0.0244    2.1874 C   0  0  0  0  0  0  0  0  0  0  0  0
   -2.7880    0.3350   -1.6693 C   0  0  0  0  0  0  0  0  0  0  0  0
   -4.9072   -4.8403    0.8639 C   0  0  0  0  0  0  0  0  0  0  0  0
   -4.6578   -6.2980    0.4697 C   0  0  0  0  0  0  0  0  0  0  0  0
   -5.5763   -4.8242    2.2462 C   0  0  0  0  0  0  0  0  0  0  0  0
   -5.8465   -4.2146   -0.1773 C   0  0  0  0  0  0  0  0  0  0  0  0
    0.0491    4.1186    0.3097 C   0  0  0  0  0  0  0  0  0  0  0  0
   -1.2718    4.6179    0.9136 C   0  0  0  0  0  0  0  0  0  0  0  0
    1.2014    4.7736    1.0751 C   0  0  0  0  0  0  0  0  0  0  0  0
    0.1433    4.5448   -1.1624 C   0  0  0  0  0  0  0  0  0  0  0  0
    4.8772   -4.4203    1.8882 C   0  0  0  0  0  0  0  0  0  0  0  0
    6.0244   -3.5093    2.3314 C   0  0  0  0  0  0  0  0  0  0  0  0
    5.2947   -5.1324    0.5937 C   0  0  0  0  0  0  0  0  0  0  0  0
    4.6252   -5.4566    2.9930 C   0  0  0  0  0  0  0  0  0  0  0  0
    5.5389   -6.0086    3.2021 H   0  0  0  0  0  0  0  0  0  0  0  0
    3.8566   -6.1669    2.7016 H   0  0  0  0  0  0  0  0  0  0  0  0
    4.3044   -4.9611    3.9071 H   0  0  0  0  0  0  0  0  0  0  0  0
    6.9188   -4.1068    2.4957 H   0  0  0  0  0  0  0  0  0  0  0  0
    5.7837   -3.0013    3.2622 H   0  0  0  0  0  0  0  0  0  0  0  0
    6.2511   -2.7669    1.5699 H   0  0  0  0  0  0  0  0  0  0  0  0
    6.2190   -5.6834    0.7530 H   0  0  0  0  0  0  0  0  0  0  0  0
    5.4584   -4.4057   -0.1994 H   0  0  0  0  0  0  0  0  0  0  0  0
    4.5330   -5.8326    0.2628 H   0  0  0  0  0  0  0  0  0  0  0  0
   -6.7713   -4.7844   -0.2355 H   0  0  0  0  0  0  0  0  0  0  0  0
   -5.3750   -4.2205   -1.1576 H   0  0  0  0  0  0  0  0  0  0  0  0
   -6.0963   -3.1876    0.0757 H   0  0  0  0  0  0  0  0  0  0  0  0
   -6.4706   -5.4434    2.2344 H   0  0  0  0  0  0  0  0  0  0  0  0
   -5.8656   -3.8186    2.5397 H   0  0  0  0  0  0  0  0  0  0  0  0
   -4.8945   -5.2170    2.9974 H   0  0  0  0  0  0  0  0  0  0  0  0
   -5.6070   -6.8272    0.4154 H   0  0  0  0  0  0  0  0  0  0  0  0
   -4.0345   -6.7999    1.2053 H   0  0  0  0  0  0  0  0  0  0  0  0
   -4.1787   -6.3622   -0.5039 H   0  0  0  0  0  0  0  0  0  0  0  0
   -3.5258    0.9880    2.5007 H   0  0  0  0  0  0  0  0  0  0  0  0
   -4.2046   -0.5682    3.0370 H   0  0  0  0  0  0  0  0  0  0  0  0
   -4.5161    0.0217    1.3788 H   0  0  0  0  0  0  0  0  0  0  0  0
   -3.3632   -0.4766   -2.1137 H   0  0  0  0  0  0  0  0  0  0  0  0
   -2.2780    0.8914   -2.4628 H   0  0  0  0  0  0  0  0  0  0  0  0
   -3.4674    1.0073   -1.1340 H   0  0  0  0  0  0  0  0  0  0  0  0
    0.1501    5.6301   -1.2362 H   0  0  0  0  0  0  0  0  0  0  0  0
   -0.6971    4.1712   -1.7415 H   0  0  0  0  0  0  0  0  0  0  0  0
    1.0605    4.1629   -1.6052 H   0  0  0  0  0  0  0  0  0  0  0  0
    1.1822    4.4899    2.1244 H   0  0  0  0  0  0  0  0  0  0  0  0
    1.1089    5.8562    1.0149 H   0  0  0  0  0  0  0  0  0  0  0  0
    2.1620    4.4945    0.6502 H   0  0  0  0  0  0  0  0  0  0  0  0
   -1.3077    5.7048    0.8854 H   0  0  0  0  0  0  0  0  0  0  0  0
   -1.3541    4.2966    1.9497 H   0  0  0  0  0  0  0  0  0  0  0  0
   -2.1310    4.2370    0.3680 H   0  0  0  0  0  0  0  0  0  0  0  0
    2.4677   -5.4102    1.0689 H   0  0  0  0  0  0  0  0  0  0  0  0
    4.3137   -1.6775    2.1274 H   0  0  0  0  0  0  0  0  0  0  0  0
    1.9561    2.4046    1.4638 H   0  0  0  0  0  0  0  0  0  0  0  0
   -1.6706    2.3731   -0.7922 H   0  0  0  0  0  0  0  0  0  0  0  0
   -4.6372   -2.2509    1.5208 H   0  0  0  0  0  0  0  0  0  0  0  0
   -2.2356   -5.6271    0.4819 H   0  0  0  0  0  0  0  0  0  0  0  0
  1  2  2  0  0  0  0
  1 76  1  0  0  0  0
  2  3  1  0  0  0  0
  2 23  1  0  0  0  0
  3  4  2  0  0  0  0
  3  7  1  0  0  0  0
  4  5  1  0  0  0  0
  5  6  2  0  0  0  0
  5 75  1  0  0  0  0
  6 32  1  0  0  0  0
  6  1  1  0  0  0  0
  7  8  1  0  0  0  0
  8  9  2  0  0  0  0
  9 10  1  0  0  0  0
 10  4  1  0  0  0  0
 10 24  2  0  0  0  0
 11 12  2  0  0  0  0
 11 18  1  0  0  0  0
 11  7  1  0  0  0  0
 12 13  1  0  0  0  0
 13 14  1  0  0  0  0
 13 25  2  0  0  0  0
 14  8  1  0  0  0  0
 14 15  2  0  0  0  0
 15 16  1  0  0  0  0
 15 73  1  0  0  0  0
 16 36  1  0  0  0  0
 16 17  2  0  0  0  0
 17  9  1  0  0  0  0
 17 74  1  0  0  0  0
 18 19  2  0  0  0  0
 19 20  1  0  0  0  0
 19 77  1  0  0  0  0
 20 28  1  0  0  0  0
 20 21  2  0  0  0  0
 21 12  1  0  0  0  0
 21 78  1  0  0  0  0
 22 26  1  0  0  0  0
 22 18  1  0  0  0  0
 23 27  1  0  0  0  0
 26 58  1  0  0  0  0
 26 59  1  0  0  0  0
 26 60  1  0  0  0  0
 27 61  1  0  0  0  0
 27 62  1  0  0  0  0
 27 63  1  0  0  0  0
 28 29  1  0  0  0  0
 28 30  1  0  0  0  0
 28 31  1  0  0  0  0
 29 55  1  0  0  0  0
 29 56  1  0  0  0  0
 29 57  1  0  0  0  0
 30 52  1  0  0  0  0
 30 53  1  0  0  0  0
 30 54  1  0  0  0  0
 31 49  1  0  0  0  0
 31 50  1  0  0  0  0
 31 51  1  0  0  0  0
 32 33  1  0  0  0  0
 32 34  1  0  0  0  0
 32 35  1  0  0  0  0
 33 70  1  0  0  0  0
 33 71  1  0  0  0  0
 33 72  1  0  0  0  0
 34 67  1  0  0  0  0
 34 68  1  0  0  0  0
 34 69  1  0  0  0  0
 35 64  1  0  0  0  0
 35 65  1  0  0  0  0
 35 66  1  0  0  0  0
 36 37  1  0  0  0  0
 36 38  1  0  0  0  0
 36 39  1  0  0  0  0
 37 43  1  0  0  0  0
 37 44  1  0  0  0  0
 37 45  1  0  0  0  0
 38 46  1  0  0  0  0
 38 47  1  0  0  0  0
 38 48  1  0  0  0  0
 39 40  1  0  0  0  0
 39 41  1  0  0  0  0
 39 42  1  0  0  0  0
M  CHG  1   1   0
M  END

 Bond Distances (Angstroems)
 ---------------------------
C1-C2=1.3824         C1-C6=1.3977         C1-H76=1.0780        C2-C1=1.3824         C2-C3=1.4211         C2-O23=1.3582        
C3-C2=1.4211         C3-C4=1.4094         C3-C7=1.4285         C4-C3=1.4094         C4-C5=1.3914         C4-C10=1.4723        
C5-C4=1.3914         C5-C6=1.3836         C5-H75=1.0775        C6-C1=1.3977         C6-C5=1.3836         C6-C32=1.5186        
C7-C3=1.4285         C7-C8=1.4224         C7-C11=1.4294        C8-C7=1.4224         C8-C9=1.4086         C8-C14=1.4099        
C9-C8=1.4086         C9-C10=1.4696        C9-C17=1.3903        C10-C4=1.4723        C10-C9=1.4696        C10-O24=1.2242       
C11-C7=1.4294        C11-C12=1.4096       C11-C18=1.4214       C12-C11=1.4096       C12-C13=1.4722       C12-C21=1.3913       
C13-C12=1.4722       C13-C14=1.4693       C13-O25=1.2240       C14-C8=1.4099        C14-C13=1.4693       C14-C15=1.3866       
C15-C14=1.3866       C15-C16=1.3932       C15-H73=1.0800       C16-C15=1.3932       C16-C17=1.3896       C16-C36=1.5180       
C17-C9=1.3903        C17-C16=1.3896       C17-H74=1.0785       C18-C11=1.4214       C18-C19=1.3828       C18-O22=1.3584       
C19-C18=1.3828       C19-C20=1.3973       C19-H77=1.0779       C20-C19=1.3973       C20-C21=1.3834       C20-C28=1.5186       
C21-C12=1.3913       C21-C20=1.3834       C21-H78=1.0775       O22-C18=1.3584       O22-C26=1.4040       O23-C2=1.3582        
O23-C27=1.4042       O24-C10=1.2242       O25-C13=1.2240       C26-O22=1.4040       C26-H58=1.0895       C26-H59=1.0951       
C26-H60=1.0955       C27-O23=1.4042       C27-H61=1.0894       C27-H62=1.0951       C27-H63=1.0956       C28-C20=1.5186       
C28-C29=1.5305       C28-C30=1.5359       C28-C31=1.5354       C29-C28=1.5305       C29-H55=1.0882       C29-H56=1.0870       
C29-H57=1.0870       C30-C28=1.5359       C30-H52=1.0878       C30-H53=1.0867       C30-H54=1.0878       C31-C28=1.5354       
C31-H49=1.0879       C31-H50=1.0879       C31-H51=1.0867       C32-C6=1.5186        C32-C33=1.5358       C32-C34=1.5306       
C32-C35=1.5355       C33-C32=1.5358       C33-H70=1.0878       C33-H71=1.0879       C33-H72=1.0867       C34-C32=1.5306       
C34-H67=1.0871       C34-H68=1.0882       C34-H69=1.0869       C35-C32=1.5355       C35-H64=1.0878       C35-H65=1.0868       
C35-H66=1.0878       C36-C16=1.5180       C36-C37=1.5305       C36-C38=1.5353       C36-C39=1.5355       C37-C36=1.5305       
C37-H43=1.0881       C37-H44=1.0873       C37-H45=1.0874       C38-C36=1.5353       C38-H46=1.0879       C38-H47=1.0881       
C38-H48=1.0863       C39-C36=1.5355       C39-H40=1.0879       C39-H41=1.0864       C39-H42=1.0881       H40-C39=1.0879       
H41-C39=1.0864       H42-C39=1.0881       H43-C37=1.0881       H44-C37=1.0873       H45-C37=1.0874       H46-C38=1.0879       
H47-C38=1.0881       H48-C38=1.0863       H49-C31=1.0879       H50-C31=1.0879       H51-C31=1.0867       H52-C30=1.0878       
H53-C30=1.0867       H54-C30=1.0878       H55-C29=1.0882       H56-C29=1.0870       H57-C29=1.0870       H58-C26=1.0895       
H59-C26=1.0951       H60-C26=1.0955       H61-C27=1.0894       H62-C27=1.0951       H63-C27=1.0956       H64-C35=1.0878       
H65-C35=1.0868       H66-C35=1.0878       H67-C34=1.0871       H68-C34=1.0882       H69-C34=1.0869       H70-C33=1.0878       
H71-C33=1.0879       H72-C33=1.0867       H73-C15=1.0800       H74-C17=1.0785       H75-C5=1.0775        H76-C1=1.0780        
H77-C19=1.0779       H78-C21=1.0775       
 C  H  Rav=1.0869 sigma=0.0044  Rmin=1.0775  Rmax=1.0956    39
 C  C  Rav=1.4506 sigma=0.0602  Rmin=1.3824  Rmax=1.5359    37
 O  C  Rav=1.3288 sigma=0.0764  Rmin=1.2240  Rmax=1.4042     6

 selected bond angles (degree)
 --------------------
C6-C1-C2=122.23                H76-C1-C2=119.05               H76-C1-C6=118.72               C3-C2-C1=120.04                
O23-C2-C1=123.54               O23-C2-C3=116.33               C4-C3-C2=116.78                C7-C3-C2=123.34                
C7-C3-C4=119.74                C5-C4-C3=121.05                C10-C4-C3=121.17               C10-C4-C5=117.74               
C6-C5-C4=121.41                H75-C5-C4=116.39               H75-C5-C6=122.20               C5-C6-C1=117.53                
C32-C6-C1=119.30               C32-C6-C5=123.15               C8-C7-C3=117.27                C11-C7-C3=125.40               
C11-C7-C8=117.32               C9-C8-C7=121.25                C14-C8-C7=121.10               C14-C8-C9=117.65               
C10-C9-C8=120.18               C17-C9-C8=120.53               C17-C9-C10=119.26              C9-C10-C4=115.07               
O24-C10-C4=122.40              O24-C10-C9=122.43              

 selected dihedral angles (degree)
 ---------------------------------
C3-C2-C1-C6=  2.45            C3-C2-C1-H76=182.10           O23-C2-C1-C6=186.01           O23-C2-C1-H76=  5.66          
C4-C3-C2-C1=350.18            C4-C3-C2-O23=166.88           C7-C3-C2-C1=174.48            C7-C3-C2-O23=351.17           
C5-C4-C3-C2= 10.12            C5-C4-C3-C7=185.99            C10-C4-C3-C2=192.40           C10-C4-C3-C7=  8.27           
C6-C5-C4-C3=357.06            C6-C5-C4-C10=174.85           H75-C5-C4-C3=177.40           H75-C5-C4-C10=355.20          
C5-C6-C1-C2=  4.96            C5-C6-C1-H76=185.31           C32-C6-C1-C2=183.25           C32-C6-C1-H76=  3.60          
C1-C6-C5-C4=355.28            C1-C6-C5-H75=174.91           C32-C6-C5-C4=177.06           C32-C6-C5-H75=356.70          
C8-C7-C3-C2=151.90            C8-C7-C3-C4=336.32            C11-C7-C3-C2=331.05           C11-C7-C3-C4=155.47           
C9-C8-C7-C3= 19.17            C9-C8-C7-C11=199.95           C14-C8-C7-C3=199.10           C14-C8-C7-C11= 19.88          
C10-C9-C8-C7=  0.99           C10-C9-C8-C14=181.05          C17-C9-C8-C7=178.89           C17-C9-C8-C14=358.96          
C9-C10-C4-C3= 11.43           C9-C10-C4-C5=193.64           O24-C10-C4-C3=187.87          O24-C10-C4-C5= 10.08          
C4-C10-C9-C8=344.00           C4-C10-C9-C17=166.07          O24-C10-C9-C8=167.56          O24-C10-C9-C17=349.63         
           -------------------------------------------------
          |                Final Singlepoint                |
           -------------------------------------------------

          ...................................................
          :                      SETUP                      :
          :.................................................:
          :  # basis functions                 195          :
          :  # atomic orbitals                 195          :
          :  # shells                          117          :
          :  # electrons                       203          :
          :  max. iterations                   250          :
          :  Hamiltonian                  GFN2-xTB          :
          :  restarted?                      false          :
          :  GBSA solvation                  false          :
          :  PC potential                    false          :
          :  electronic temp.          300.0000000     K    :
          :  accuracy                    1.0000000          :
          :  -> integral cutoff          0.2500000E+02      :
          :  -> integral neglect         0.1000000E-07      :
          :  -> SCF convergence          0.1000000E-05 Eh   :
          :  -> wf. convergence          0.1000000E-03 e    :
          :  Broyden damping             0.4000000          :
          ...................................................

 iter      E             dE          RMSdq      gap      omega  full diag
   1   -112.8362159 -0.112836E+03  0.799E-05    1.45       0.0  T
   2   -112.8362159 -0.106297E-10  0.621E-05    1.45     182.4  T
   3   -112.8362159 -0.299082E-09  0.335E-05    1.45     338.3  T

   *** convergence criteria satisfied after 3 iterations ***

         #    Occupation            Energy/Eh            Energy/eV
      -------------------------------------------------------------
         1        2.0000           -0.7267827             -19.7768
       ...           ...                  ...                  ...
        96        2.0000           -0.4011276             -10.9152
        97        2.0000           -0.3973625             -10.8128
        98        2.0000           -0.3911475             -10.6437
        99        2.0000           -0.3811587             -10.3719
       100        2.0000           -0.3745402             -10.1918
       101        2.0000           -0.3710079             -10.0956
       102        1.0000           -0.3366909              -9.1618 (HOMO)
       103                         -0.2832492              -7.7076 (LUMO)
       104                         -0.2488067              -6.7704
       105                         -0.2314687              -6.2986
       106                         -0.2286336              -6.2214
       107                         -0.2149997              -5.8504
       ...                                ...                  ...
       195                          0.7410051              20.1638
      -------------------------------------------------------------
                  HL-Gap            0.0534417 Eh            1.4542 eV
             Fermi-level           -0.3319040 Eh           -9.0316 eV

 SCC (total)                   0 d,  0 h,  0 min,  0.091 sec
 SCC setup                      ...        0 min,  0.000 sec (  0.180%)
 Dispersion                     ...        0 min,  0.001 sec (  0.559%)
 classical contributions        ...        0 min,  0.000 sec (  0.163%)
 integral evaluation            ...        0 min,  0.003 sec (  2.839%)
 iterations                     ...        0 min,  0.072 sec ( 78.438%)
 molecular gradient             ...        0 min,  0.015 sec ( 16.042%)
 printout                       ...        0 min,  0.002 sec (  1.776%)

         :::::::::::::::::::::::::::::::::::::::::::::::::::::
         ::                     SUMMARY                     ::
         :::::::::::::::::::::::::::::::::::::::::::::::::::::
         :: total energy            -111.157331049817 Eh    ::
         :: gradient norm              0.000162465453 Eh/a0 ::
         :: HOMO-LUMO gap              1.454223009358 eV    ::
         ::.................................................::
         :: SCC energy              -112.836215903651 Eh    ::
         :: -> isotropic ES            0.094098590396 Eh    ::
         :: -> anisotropic ES          0.015403032798 Eh    ::
         :: -> anisotropic XC          0.041031187479 Eh    ::
         :: -> dispersion             -0.097584420610 Eh    ::
         :: repulsion energy           1.677999471626 Eh    ::
         :: add. restraining           0.000000000000 Eh    ::
         :: total charge               0.000000000348 e     ::
         :::::::::::::::::::::::::::::::::::::::::::::::::::::

           -------------------------------------------------
          |                Property Printout                |
           -------------------------------------------------

    * Orbital Energies and Occupations

         #    Occupation            Energy/Eh            Energy/eV
      -------------------------------------------------------------
         1        2.0000           -0.7267827             -19.7768
       ...           ...                  ...                  ...
        90        2.0000           -0.4253408             -11.5741
        91        2.0000           -0.4250880             -11.5672
        92        2.0000           -0.4215537             -11.4711
        93        2.0000           -0.4195954             -11.4178
        94        2.0000           -0.4134151             -11.2496
        95        2.0000           -0.4060665             -11.0496
        96        2.0000           -0.4011276             -10.9152
        97        2.0000           -0.3973625             -10.8128
        98        2.0000           -0.3911475             -10.6437
        99        2.0000           -0.3811587             -10.3719
       100        2.0000           -0.3745402             -10.1918
       101        2.0000           -0.3710079             -10.0956
       102        1.0000           -0.3366909              -9.1618 (HOMO)
       103                         -0.2832492              -7.7076 (LUMO)
       104                         -0.2488067              -6.7704
       105                         -0.2314687              -6.2986
       106                         -0.2286336              -6.2214
       107                         -0.2149997              -5.8504
       108                         -0.1836264              -4.9967
       109                         -0.1774501              -4.8287
       110                         -0.1537621              -4.1841
       111                         -0.0989658              -2.6930
       112                         -0.0869220              -2.3653
       113                         -0.0451666              -1.2290
       ...                                ...                  ...
       195                          0.7410051              20.1638
      -------------------------------------------------------------
                  HL-Gap            0.0534417 Eh            1.4542 eV
             Fermi-level           -0.3319040 Eh           -9.0316 eV

     #   Z          covCN         q      C6AA      α(0)
     1   6 C        2.923    -0.072    29.794     8.951
     2   6 C        2.862     0.151    24.715     8.149
     3   6 C        2.978    -0.004    28.126     8.699
     4   6 C        2.980    -0.022    28.549     8.765
     5   6 C        2.928    -0.040    29.006     8.832
     6   6 C        2.971     0.013    27.729     8.638
     7   6 C        2.975     0.019    27.571     8.613
     8   6 C        2.992     0.002    27.967     8.675
     9   6 C        2.977    -0.020    28.503     8.757
    10   6 C        2.834     0.217    23.426     7.931
    11   6 C        2.977    -0.004    28.128     8.700
    12   6 C        2.980    -0.022    28.550     8.765
    13   6 C        2.835     0.218    23.412     7.929
    14   6 C        2.977    -0.020    28.505     8.758
    15   6 C        2.930    -0.020    28.508     8.756
    16   6 C        2.970     0.013    27.711     8.635
    17   6 C        2.928    -0.025    28.616     8.773
    18   6 C        2.861     0.150    24.733     8.152
    19   6 C        2.923    -0.072    29.789     8.950
    20   6 C        2.971     0.013    27.728     8.637
    21   6 C        2.928    -0.040    29.006     8.832
    22   8 O        1.705    -0.257    18.260     5.769
    23   8 O        1.705    -0.256    18.246     5.767
    24   8 O        0.858    -0.399    21.655     6.239
    25   8 O        0.858    -0.399    21.661     6.240
    26   6 C        3.642     0.042    20.219     6.465
    27   6 C        3.643     0.041    20.223     6.465
    28   6 C        3.903     0.027    20.060     6.366
    29   6 C        3.761    -0.112    22.685     6.790
    30   6 C        3.761    -0.105    22.562     6.771
    31   6 C        3.762    -0.105    22.560     6.771
    32   6 C        3.903     0.027    20.059     6.366
    33   6 C        3.762    -0.105    22.558     6.770
    34   6 C        3.761    -0.112    22.685     6.790
    35   6 C        3.761    -0.105    22.562     6.771
    36   6 C        3.903     0.027    20.068     6.368
    37   6 C        3.761    -0.111    22.662     6.786
    38   6 C        3.762    -0.108    22.603     6.777
    39   6 C        3.762    -0.107    22.598     6.776
    40   1 H        0.925     0.041     2.441     2.443
    41   1 H        0.925     0.041     2.435     2.440
    42   1 H        0.925     0.035     2.513     2.479
    43   1 H        0.925     0.039     2.466     2.456
    44   1 H        0.925     0.041     2.441     2.443
    45   1 H        0.925     0.039     2.457     2.451
    46   1 H        0.925     0.040     2.444     2.445
    47   1 H        0.925     0.035     2.513     2.479
    48   1 H        0.925     0.042     2.419     2.432
    49   1 H        0.925     0.040     2.446     2.446
    50   1 H        0.925     0.036     2.498     2.472
    51   1 H        0.925     0.033     2.540     2.492
    52   1 H        0.925     0.041     2.440     2.443
    53   1 H        0.925     0.034     2.536     2.490
    54   1 H        0.925     0.037     2.494     2.470
    55   1 H        0.925     0.039     2.469     2.457
    56   1 H        0.925     0.042     2.422     2.434
    57   1 H        0.925     0.042     2.416     2.431
    58   1 H        0.925     0.062     2.178     2.308
    59   1 H        0.924     0.042     2.419     2.432
    60   1 H        0.924     0.039     2.463     2.454
    61   1 H        0.925     0.062     2.174     2.306
    62   1 H        0.924     0.042     2.417     2.431
    63   1 H        0.924     0.039     2.464     2.455
    64   1 H        0.925     0.041     2.440     2.443
    65   1 H        0.925     0.034     2.537     2.491
    66   1 H        0.925     0.037     2.489     2.467
    67   1 H        0.925     0.042     2.418     2.432
    68   1 H        0.925     0.038     2.469     2.457
    69   1 H        0.925     0.042     2.419     2.432
    70   1 H        0.925     0.040     2.446     2.446
    71   1 H        0.925     0.036     2.507     2.476
    72   1 H        0.925     0.033     2.541     2.493
    73   1 H        0.926     0.064     2.154     2.295
    74   1 H        0.926     0.071     2.077     2.254
    75   1 H        0.926     0.072     2.063     2.246
    76   1 H        0.926     0.039     2.463     2.454
    77   1 H        0.926     0.039     2.461     2.453
    78   1 H        0.926     0.072     2.066     2.248

 Mol. C6AA /au·bohr⁶  :      64228.582076
 Mol. C8AA /au·bohr⁸  :    1518749.832410
 Mol. α(0) /au        :        392.620864


Wiberg/Mayer (AO) data.
largest (>0.10) Wiberg bond orders for each atom

 ---------------------------------------------------------------------------
     #   Z sym  total        # sym  WBO       # sym  WBO       # sym  WBO
 ---------------------------------------------------------------------------
     1   6 C    3.979 --     2 C    1.417     6 C    1.365    76 H    0.957
     2   6 C    3.918 --     1 C    1.417     3 C    1.232    23 O    1.076
     3   6 C    3.980 --     4 C    1.289     2 C    1.232     7 C    1.201
     4   6 C    3.974 --     5 C    1.384     3 C    1.289    10 C    1.052
     5   6 C    3.978 --     6 C    1.419     4 C    1.384    75 H    0.957
     6   6 C    3.960 --     5 C    1.419     1 C    1.365    32 C    0.987
     7   6 C    3.928 --     8 C    1.213     3 C    1.201    11 C    1.199
     8   6 C    3.987 --     9 C    1.276    14 C    1.267     7 C    1.213
     9   6 C    3.978 --    17 C    1.398     8 C    1.276    10 C    1.052
    10   6 C    3.938 --    24 O    1.715     9 C    1.052     4 C    1.052
    11   6 C    3.980 --    12 C    1.290    18 C    1.234     7 C    1.199
    12   6 C    3.974 --    21 C    1.384    11 C    1.290    13 C    1.051
    13   6 C    3.938 --    25 O    1.717    12 C    1.051    14 C    1.051
    14   6 C    3.979 --    15 C    1.414     8 C    1.267    13 C    1.051
    15   6 C    3.982 --    14 C    1.414    16 C    1.388    73 H    0.958
    16   6 C    3.963 --    17 C    1.404    15 C    1.388    36 C    0.986
    17   6 C    3.981 --    16 C    1.404     9 C    1.398    74 H    0.958
    18   6 C    3.922 --    19 C    1.416    11 C    1.234    22 O    1.075
    19   6 C    3.979 --    18 C    1.416    20 C    1.366    77 H    0.957
    20   6 C    3.957 --    21 C    1.418    19 C    1.366    28 C    0.987
    21   6 C    3.977 --    20 C    1.418    12 C    1.384    78 H    0.957
    22   8 O    2.254 --    18 C    1.075    26 C    0.985
    23   8 O    2.254 --     2 C    1.076    27 C    0.986
    24   8 O    1.997 --    10 C    1.715
    25   8 O    1.998 --    13 C    1.717
    26   6 C    3.946 --    22 O    0.985    58 H    0.979    59 H    0.975
                            60 H    0.975
    27   6 C    3.946 --    23 O    0.986    61 H    0.979    62 H    0.975
                            63 H    0.974
    28   6 C    3.990 --    29 C    1.000    20 C    0.987    31 C    0.985
                            30 C    0.985
    29   6 C    3.995 --    28 C    1.000    55 H    0.984    57 H    0.984
                            56 H    0.984
    30   6 C    3.993 --    54 H    0.987    28 C    0.985    52 H    0.984
                            53 H    0.984
    31   6 C    3.993 --    50 H    0.987    28 C    0.985    49 H    0.984
                            51 H    0.984
    32   6 C    3.990 --    34 C    1.000     6 C    0.987    33 C    0.985
                            35 C    0.985
    33   6 C    3.993 --    71 H    0.987    32 C    0.985    70 H    0.984
                            72 H    0.984
    34   6 C    3.995 --    32 C    1.000    67 H    0.985    68 H    0.984
                            69 H    0.984
    35   6 C    3.993 --    66 H    0.987    32 C    0.985    64 H    0.984
                            65 H    0.984
    36   6 C    3.990 --    37 C    1.000    16 C    0.986    38 C    0.985
                            39 C    0.984
    37   6 C    3.995 --    36 C    1.000    45 H    0.984    43 H    0.984
                            44 H    0.984
    38   6 C    3.992 --    47 H    0.987    36 C    0.985    46 H    0.984
                            48 H    0.983
    39   6 C    3.992 --    42 H    0.987    36 C    0.984    40 H    0.984
                            41 H    0.983
    40   1 H    0.997 --    39 C    0.984
    41   1 H    0.998 --    39 C    0.983
    42   1 H    0.999 --    39 C    0.987
    43   1 H    0.998 --    37 C    0.984
    44   1 H    0.998 --    37 C    0.984
    45   1 H    0.998 --    37 C    0.984
    46   1 H    0.997 --    38 C    0.984
    47   1 H    0.999 --    38 C    0.987
    48   1 H    0.998 --    38 C    0.983
    49   1 H    0.997 --    31 C    0.984
    50   1 H    0.999 --    31 C    0.987
    51   1 H    0.999 --    31 C    0.984
    52   1 H    0.997 --    30 C    0.984
    53   1 H    0.999 --    30 C    0.984
    54   1 H    0.999 --    30 C    0.987
    55   1 H    0.998 --    29 C    0.984
    56   1 H    0.998 --    29 C    0.984
    57   1 H    0.998 --    29 C    0.984
    58   1 H    0.996 --    26 C    0.979
    59   1 H    0.997 --    26 C    0.975
    60   1 H    0.998 --    26 C    0.975
    61   1 H    0.996 --    27 C    0.979
    62   1 H    0.997 --    27 C    0.975
    63   1 H    0.998 --    27 C    0.974
    64   1 H    0.997 --    35 C    0.984
    65   1 H    0.999 --    35 C    0.984
    66   1 H    0.999 --    35 C    0.987
    67   1 H    0.998 --    34 C    0.985
    68   1 H    0.998 --    34 C    0.984
    69   1 H    0.998 --    34 C    0.984
    70   1 H    0.997 --    33 C    0.984
    71   1 H    0.999 --    33 C    0.987
    72   1 H    0.999 --    33 C    0.984
    73   1 H    0.995 --    15 C    0.958
    74   1 H    0.994 --    17 C    0.958
    75   1 H    0.994 --     5 C    0.957
    76   1 H    0.998 --     1 C    0.957
    77   1 H    0.998 --    19 C    0.957
    78   1 H    0.994 --    21 C    0.957
 ---------------------------------------------------------------------------

Topologies differ in bond orders
Writing corrected topology to xtbtopo.mol

molecular dipole:
                 x           y           z       tot (Debye)
 q only:       -1.981       1.081      -0.359
   full:       -2.448       1.330      -0.445       7.170
molecular quadrupole (traceless):
                xx          xy          yy          xz          yz          zz
 q only:       19.580      -5.069     -12.515      -6.242      -8.494      -7.065
  q+dip:       24.639      -5.549     -13.774      -7.203     -10.174     -10.865
   full:       21.879      -5.988     -18.019      -9.552     -11.083      -3.860

           -------------------------------------------------
          |                Geometry Summary                 |
           -------------------------------------------------

      molecular mass/u    :      523.6830654
   center of mass at/Å    :       -0.1816194      -1.5913347       0.9363843
  moments of inertia/u·Å² :        0.5546966E+04   0.5717915E+04   0.1040595E+05
rotational constants/cm⁻¹ :        0.3039073E-02   0.2948213E-02   0.1619999E-02

 * 75 selected distances

     #   Z          #   Z                                           value/Å
     1   6 C        2   6 C                                       1.3824422
     2   6 C        3   6 C                                       1.4211479
     3   6 C        4   6 C                                       1.4093520
     4   6 C        5   6 C                                       1.3914218
     1   6 C        6   6 C                                       1.3976933
     5   6 C        6   6 C                                       1.3835839
     3   6 C        7   6 C                                       1.4284639
     7   6 C        8   6 C                                       1.4223641
     8   6 C        9   6 C                                       1.4086141
     7   6 C       11   6 C                                       1.4293734
    11   6 C       12   6 C                                       1.4096378
     8   6 C       14   6 C                                       1.4098508
    14   6 C       15   6 C                                       1.3865543
    15   6 C       16   6 C                                       1.3931563
     9   6 C       17   6 C                                       1.3902907
    16   6 C       17   6 C                                       1.3895533
    11   6 C       18   6 C                                       1.4214250
    18   6 C       19   6 C                                       1.3827568
    19   6 C       20   6 C                                       1.3972875
    12   6 C       21   6 C                                       1.3912504
    20   6 C       21   6 C                                       1.3833592
    18   6 C       22   8 O                                       1.3583655
     2   6 C       23   8 O                                       1.3581674
    10   6 C       24   8 O                                       1.2242208
    13   6 C       25   8 O                                       1.2239642
    22   8 O       26   6 C                                       1.4040159
    23   8 O       27   6 C                                       1.4041791
    28   6 C       29   6 C                                       1.5305059
    28   6 C       30   6 C                                       1.5358817 (max)
    28   6 C       31   6 C                                       1.5354318
    32   6 C       33   6 C                                       1.5358384
    32   6 C       34   6 C                                       1.5305560
    32   6 C       35   6 C                                       1.5354608
    36   6 C       37   6 C                                       1.5305097
    36   6 C       38   6 C                                       1.5353056
    36   6 C       39   6 C                                       1.5354850
    39   6 C       40   1 H                                       1.0878528
    39   6 C       41   1 H                                       1.0863711
    39   6 C       42   1 H                                       1.0881163
    37   6 C       43   1 H                                       1.0881419
    37   6 C       44   1 H                                       1.0873240
    37   6 C       45   1 H                                       1.0873859
    38   6 C       46   1 H                                       1.0878889
    38   6 C       47   1 H                                       1.0880697
    38   6 C       48   1 H                                       1.0862504
    31   6 C       49   1 H                                       1.0878574
    31   6 C       50   1 H                                       1.0878617
    31   6 C       51   1 H                                       1.0867430
    30   6 C       52   1 H                                       1.0877826
    30   6 C       53   1 H                                       1.0867089
    30   6 C       54   1 H                                       1.0878498
    29   6 C       55   1 H                                       1.0881656
    29   6 C       56   1 H                                       1.0870034
    29   6 C       57   1 H                                       1.0870050
    26   6 C       58   1 H                                       1.0895038
    26   6 C       59   1 H                                       1.0950888
    26   6 C       60   1 H                                       1.0955272
Note: The following floating-point exceptions are signalling: IEEE_UNDERFLOW_FLAG
normal termination of xtb
    27   6 C       61   1 H                                       1.0894222
    27   6 C       62   1 H                                       1.0951368
    27   6 C       63   1 H                                       1.0955659
    35   6 C       64   1 H                                       1.0878211
    35   6 C       65   1 H                                       1.0868068
    35   6 C       66   1 H                                       1.0877949
    34   6 C       67   1 H                                       1.0870797
    34   6 C       68   1 H                                       1.0881689
    34   6 C       69   1 H                                       1.0868919
    33   6 C       70   1 H                                       1.0878075
    33   6 C       71   1 H                                       1.0879178
    33   6 C       72   1 H                                       1.0867346
    15   6 C       73   1 H                                       1.0799845
    17   6 C       74   1 H                                       1.0785411
     5   6 C       75   1 H                                       1.0774946
     1   6 C       76   1 H                                       1.0779514
    19   6 C       77   1 H                                       1.0778967
    21   6 C       78   1 H                                       1.0774751 (min)

 * 3 distinct bonds (by element types)

   Z      Z             #   av. dist./Å        max./Å        min./Å
   1 H    6 C          39     1.0869485     1.0955659     1.0774751
   6 C    6 C          30     1.4411518     1.5358817     1.3824422
   6 C    8 O           6     1.3288188     1.4041791     1.2239642


optimized geometry written to: xtbopt.mol


           -------------------------------------------------
          | TOTAL ENERGY             -111.157331049817 Eh   |
          | GRADIENT NORM               0.000162465453 Eh/α |
          | HOMO-LUMO GAP               1.454223009358 eV   |
           -------------------------------------------------
########################################################################
[WARNING] Runtime exception occurred
-1- restart_readRestart: Number of electron missmatch in restart file.
########################################################################

------------------------------------------------------------------------
 * finished run on 2024/11/12 at 08:58:13.769     
------------------------------------------------------------------------
 total:
 * wall-time:     0 d,  0 h,  0 min,  6.291 sec
 *  cpu-time:     0 d,  0 h,  0 min, 19.877 sec
 * ratio c/w:     3.160 speedup
 SCF:
 * wall-time:     0 d,  0 h,  0 min,  0.414 sec
 *  cpu-time:     0 d,  0 h,  0 min,  1.427 sec
 * ratio c/w:     3.449 speedup
 ANC optimizer:
 * wall-time:     0 d,  0 h,  0 min,  5.868 sec
 *  cpu-time:     0 d,  0 h,  0 min, 18.433 sec
 * ratio c/w:     3.142 speedup

