      -----------------------------------------------------------      
     |                   =====================                   |     
     |                           x T B                           |     
     |                   =====================                   |     
     |                         S. Grimme                         |     
     |          Mulliken Center for Theoretical Chemistry        |     
     |                    University of Bonn                     |     
      -----------------------------------------------------------      

   * xtb version 6.7.1 (43a0e4e5b5d943adc66b4aa6563d39c792f6153b) compiled by 'joseph@Linux' on 2024/10/21

   xtb is free software: you can redistribute it and/or modify it under
   the terms of the GNU Lesser General Public License as published by
   the Free Software Foundation, either version 3 of the License, or
   (at your option) any later version.
   
   xtb is distributed in the hope that it will be useful,
   but WITHOUT ANY WARRANTY; without even the implied warranty of
   MERCHANTABILITY or FITNESS FOR A PARTICULAR PURPOSE.  See the
   GNU Lesser General Public License for more details.
   
   Cite this work as:
   * C. Bannwarth, E. Caldeweyher, S. Ehlert, A. Hansen, P. Pracht,
     J. Seibert, S. Spicher, S. Grimme, WIREs Comput. Mol. Sci., 2020, 11,
     e01493. DOI: 10.1002/wcms.1493
   
   for GFN2-xTB:
   * C. Bannwarth, S. Ehlert and S. Grimme., J. Chem. Theory Comput., 2019,
     15, 1652-1671. DOI: 10.1021/acs.jctc.8b01176
   for GFN1-xTB:
   * S. Grimme, C. Bannwarth, P. Shushkov, J. Chem. Theory Comput., 2017,
     13, 1989-2009. DOI: 10.1021/acs.jctc.7b00118
   for GFN0-xTB:
   * P. Pracht, E. Caldeweyher, S. Ehlert, S. Grimme, ChemRxiv, 2019, preprint.
     DOI: 10.26434/chemrxiv.8326202.v1
   for GFN-FF:
   * S. Spicher and S. Grimme, Angew. Chem. Int. Ed., 2020, 59, 15665-15673.
     DOI: 10.1002/anie.202004239
   
   for ALPB and GBSA implicit solvation:
   * S. Ehlert, M. Stahn, S. Spicher, S. Grimme, J. Chem. Theory Comput.,
     2021, 17, 4250-4261. DOI: 10.1021/acs.jctc.1c00471
   
   for ddCOSMO and CPCM-X implicit solvation:
   * M. Stahn, S. Ehlert, S. Grimme, J. Phys. Chem. A,
     2023, XX, XXXX-XXXX. DOI: 10.1021/acs.jpca.3c04382
   
   for DFT-D4:
   * E. Caldeweyher, C. Bannwarth and S. Grimme, J. Chem. Phys., 2017,
     147, 034112. DOI: 10.1063/1.4993215
   * E. Caldeweyher, S. Ehlert, A. Hansen, H. Neugebauer, S. Spicher,
     C. Bannwarth and S. Grimme, J. Chem. Phys., 2019, 150, 154122.
     DOI: 10.1063/1.5090222
   * E. Caldeweyher, J.-M. Mewes, S. Ehlert and S. Grimme, Phys. Chem. Chem. Phys.
     2020, 22, 8499-8512. DOI: 10.1039/D0CP00502A
   
   for sTDA-xTB:
   * S. Grimme and C. Bannwarth, J. Chem. Phys., 2016, 145, 054103.
     DOI: 10.1063/1.4959605
   
   in the mass-spec context:
   * V. Asgeirsson, C. Bauer and S. Grimme, Chem. Sci., 2017, 8, 4879.
     DOI: 10.1039/c7sc00601b
   * J. Koopman and S. Grimme, ACS Omega 2019, 4, 12, 15120-15133.
     DOI: 10.1021/acsomega.9b02011
   
   for metadynamics refer to:
   * S. Grimme, J. Chem. Theory Comput., 2019, 155, 2847-2862
     DOI: 10.1021/acs.jctc.9b00143
   
   for SPH calculations refer to:
   * S. Spicher and S. Grimme, J. Chem. Theory Comput., 2021, 17, 1701-1714
     DOI: 10.1021/acs.jctc.0c01306
   
   for ONIOM refer to:
   * C. Plett, A. Katbashev, S. Ehlert, S. Grimme, M. Bursch,
     Phys. Chem. Chem. Phys., 2023, 25, 17860-17868. DOI: 10.1039/D3CP02178E
   
   for DIPRO refer to:
   * J. Kohn, N. Gildemeister, S. Grimme, D. Fazzi, A. Hansen,
     J. Chem. Phys., 2023, just accepted.
   
   for PTB refer to:
   * S. Grimme, M. Mueller, A. Hansen, J. Chem. Phys., 2023, 158, 124111.
     DOI: 10.1063/5.0137838
   
   with help from (in alphabetical order)
   P. Atkinson, C. Bannwarth, F. Bohle, G. Brandenburg, E. Caldeweyher
   M. Checinski, S. Dohm, S. Ehlert, S. Ehrlich, I. Gerasimov, C. Hölzer
   A. Katbashev, J. Kohn, J. Koopman, C. Lavigne, S. Lehtola, F. März, M. Müller,
   F. Musil, H. Neugebauer, J. Pisarek, C. Plett, P. Pracht, F. Pultar,
   J. Seibert, P. Shushkov, S. Spicher, M. Stahn, M. Steiner, T. Strunk,
   J. Stückrath, T. Rose, and J. Unsleber
   
 * started run on 2024/11/01 at 11:53:39.911     
   ID    Z sym.   atoms
    1    6 C      1-21, 24-26, 31, 34, 37-39, 61-81, 84-86, 91, 94, 97-99
    2    8 O      22, 23, 27-30, 32, 33, 35, 36, 82, 83, 87-90, 92, 93, 95, 96
    3    1 H      40-60, 100-120

           -------------------------------------------------
          |                Calculation Setup                |
           -------------------------------------------------

          program call               : xtb opt_radical_stacked_dimer_Katherine4.mol --dipro --chrg -2 --uhf 0
          coordinate file            : opt_radical_stacked_dimer_Katherine4.mol
          omp threads                :                     4


molecular fragmentation (1/2 indicates fragments):
111111111111111111111111111111111111111111111111111111111111222222222222
222222222222222222222222222222222222222222222222
# atoms in fragment 1/2:    60    60
 fragment masses (1/2) :      529.47      529.47
CMA distance (Bohr)    :   8.701
constraining FC (au)   :  0.0500
########################################################################
[WARNING] Please study the warnings concerning your input carefully
-1- prog_main: Charge in sdf/mol input was overwritten
########################################################################

           -------------------------------------------------
          |                 G F N 2 - x T B                 |
           -------------------------------------------------

        Reference                      10.1021/acs.jctc.8b01176
      * Hamiltonian:
        H0-scaling (s, p, d)           1.850000    2.230000    2.230000
        zeta-weighting                 0.500000
      * Dispersion:
        s8                             2.700000
        a1                             0.520000
        a2                             5.000000
        s9                             5.000000
      * Repulsion:
        kExp                           1.500000    1.000000
        rExp                           1.000000
      * Coulomb:
        alpha                          2.000000
        third order                    shell-resolved
        anisotropic                    true
        a3                             3.000000
        a5                             4.000000
        cn-shift                       1.200000
        cn-exp                         4.000000
        max-rad                        5.000000

           -------------------------------------------------
          |                    D I P R O                    |
           -------------------------------------------------
Calculation for dimer 
--------------------- 
  
charge of dimer :  -2.
unpaired e- of dimer :  0
repulsion energy          2.8539201901749E+00 Eh
dispersion energy         1.2432363686590E-02 Eh
number of electrons       3.9600000000000E+02 e
integral cutoff           1.7347787504999E+01 bohr

------------------------------------------------------------
  cycle        total energy    energy error   density error
------------------------------------------------------------
      1     -225.8821160175  -2.2874847E+02   2.0914666E-01
      2     -227.4367876166  -1.5546716E+00   8.8278902E-02
      3     -227.4994226337  -6.2635017E-02   4.6047106E-02
      4     -227.5407448856  -4.1322252E-02   2.0542782E-02
      5     -227.5711757607  -3.0430875E-02   9.4945441E-03
      6     -227.5810237922  -9.8480315E-03   4.6907416E-03
      7     -227.5829182428  -1.8944506E-03   2.2415057E-03
      8     -227.5834856829  -5.6744009E-04   6.2192122E-04
      9     -227.5834981126  -1.2429708E-05   3.9067913E-04
     10     -227.5835114945  -1.3381875E-05   1.6781205E-04
     11     -227.5835131913  -1.6967920E-06   7.3653724E-05
     12     -227.5835138617  -6.7039619E-07   3.3913622E-05
     13     -227.5835139271  -6.5404890E-08   1.7337216E-05
------------------------------------------------------------

electronic energy        -2.3044986648094E+02 Eh
total energy             -2.2758351392708E+02 Eh

 total:                                   1.611 sec
 - repulsion                              0.000 sec (  0%)
 - dispersion                             0.014 sec (  0%)
 - coulomb                                0.009 sec (  0%)
 - hamiltonian                            0.013 sec (  0%)
 - scc                                    1.575 sec ( 97%)

Found 2 fragments!
Fragment 1:  1-60
Fragment 2:  61-120

Calculation for fragment 1
 ------------------------------
   
charge of fragment :  -1.
unpaired e- of fragment :  0
------------------------------------------------------------
  cycle        total energy    energy error   density error
------------------------------------------------------------
      1     -112.9487795648  -1.1437561E+02   2.0670710E-01
      2     -113.7372380667  -7.8845850E-01   8.5818407E-02
      3     -113.7726307442  -3.5392678E-02   4.4869624E-02
      4     -113.7952885101  -2.2657766E-02   1.8348985E-02
      5     -113.8049755378  -9.6870277E-03   7.5278328E-03
      6     -113.8064422621  -1.4667243E-03   3.9016571E-03
      7     -113.8068125786  -3.7031648E-04   2.0224988E-03
      8     -113.8071028469  -2.9026827E-04   5.3375242E-04
      9     -113.8071039601  -1.1132236E-06   3.2012239E-04
     10     -113.8071077345  -3.7743831E-06   1.2176200E-04
     11     -113.8071080855  -3.5101731E-07   4.7657471E-05
     12     -113.8071081458  -6.0362112E-08   2.4566576E-05
     13     -113.8071081508  -4.9805635E-09   1.1307877E-05
------------------------------------------------------------

 total:                                   0.374 sec
Calculation for fragment 2
 ------------------------------
   
charge of fragment :   0.
unpaired e- of fragment :  0
------------------------------------------------------------
  cycle        total energy    energy error   density error
------------------------------------------------------------
      1     -112.5830414881  -1.1401031E+02   2.1536472E-01
      2     -113.4413713347  -8.5832985E-01   9.0553826E-02
      3     -113.4725285027  -3.1157168E-02   4.9086109E-02
      4     -113.4859916436  -1.3463141E-02   1.9928875E-02
      5     -113.5021035666  -1.6111923E-02   7.2062582E-03
      6     -113.5044077992  -2.3042326E-03   3.5741963E-03
      7     -113.5048247718  -4.1697261E-04   1.6530596E-03
      8     -113.5049766201  -1.5184830E-04   4.8593886E-04
      9     -113.5049794873  -2.8671177E-06   2.8825757E-04
     10     -113.5049826869  -3.1996650E-06   1.1473129E-04
     11     -113.5049829676  -2.8063604E-07   4.1065067E-05
     12     -113.5049830169  -4.9389428E-08   2.0769388E-05
     13     -113.5049830204  -3.4296335E-09   9.9596176E-06
------------------------------------------------------------

 total:                                   0.388 sec
   
   ::::::::::::::::::::::::::::::::::::::::::::::
   ::     D I P R O      C O U P L I N G S     ::
   ::::::::::::::::::::::::::::::::::::::::::::::
   
energy threshhold for near-degenerate orbitals near HOMO and LUMO considered for DIPRO:  0.100 eV
no. of orbitals within energy window of frag 1         2
no. of orbitals within energy window of frag 2         3
   
  Fragment 1 HOMO   Fragment 2 SOMO-1
--------------------------------------
E_mon(orb) frag1 frag2              -4.356    -5.226 eV
J(AB):               -0.003 eV
S(AB):             0.00014865 Eh
|J(AB,eff)|:            0.003 eV
   
  Fragment 1 HOMO   Fragment 2 SOMO 
--------------------------------------
E_mon(orb) frag1 frag2              -4.356    -5.125 eV
J(AB):               -0.019 eV
S(AB):             0.00100764 Eh
|J(AB,eff)|:            0.015 eV
   
  Fragment 1 HOMO   Fragment 2 LUMO 
--------------------------------------
E_mon(orb) frag1 frag2              -4.356    -4.205 eV
J(AB):                0.009 eV
S(AB):            -0.00049729 Eh
|J(AB,eff)|:            0.007 eV
   
  Fragment 1 LUMO   Fragment 2 SOMO-1
--------------------------------------
E_mon(orb) frag1 frag2              -2.907    -5.226 eV
J(AB):               -0.030 eV
S(AB):             0.00171985 Eh
|J(AB,eff)|:            0.023 eV
   
  Fragment 1 LUMO   Fragment 2 SOMO 
--------------------------------------
E_mon(orb) frag1 frag2              -2.907    -5.125 eV
J(AB):               -0.003 eV
S(AB):             0.00004781 Eh
|J(AB,eff)|:            0.002 eV
   
  Fragment 1 LUMO   Fragment 2 LUMO 
--------------------------------------
E_mon(orb) frag1 frag2              -2.907    -4.205 eV
J(AB):                0.032 eV
S(AB):            -0.00175289 Eh
|J(AB,eff)|:            0.025 eV
   
..............................................................................
:  total |J(AB,eff)| for hole transport (occ. MOs) :               0.015 eV  :
:  total |J(AB,eff)| for charge transport (unocc. MOs) :           0.025 eV  :
:  total |J(AB,eff)| for charge transfer (CT) :                    0.024 eV  :
..............................................................................
  
 Please remember, DIPRO is not available for restart!
   
normal termination of dipro
----------------------------------------------------------
 * finished run on 2024/11/01 at 11:53:42.357     
----------------------------------------------------------
 dipro:
 * wall-time:     0 d,  0 h,  0 min,  2.411 sec
 *  cpu-time:     0 d,  0 h,  0 min,  3.604 sec
 * ratio c/w:     1.495 speedup
normal termination of xtb
Note: The following floating-point exceptions are signalling: IEEE_UNDERFLOW_FLAG

