      -----------------------------------------------------------      
     |                   =====================                   |     
     |                           x T B                           |     
     |                   =====================                   |     
     |                         S. Grimme                         |     
     |          Mulliken Center for Theoretical Chemistry        |     
     |                    University of Bonn                     |     
      -----------------------------------------------------------      

   * xtb version 6.6.1 (8d0f1dd) compiled by 'runner@Mac-1690902418499.local' on 2023-08-01

   xtb is free software: you can redistribute it and/or modify it under
   the terms of the GNU Lesser General Public License as published by
   the Free Software Foundation, either version 3 of the License, or
   (at your option) any later version.
   
   xtb is distributed in the hope that it will be useful,
   but WITHOUT ANY WARRANTY; without even the implied warranty of
   MERCHANTABILITY or FITNESS FOR A PARTICULAR PURPOSE.  See the
   GNU Lesser General Public License for more details.
   
   Cite this work as:
   * C. Bannwarth, E. Caldeweyher, S. Ehlert, A. Hansen, P. Pracht,
     J. Seibert, S. Spicher, S. Grimme, WIREs Comput. Mol. Sci., 2020, 11,
     e01493. DOI: 10.1002/wcms.1493
   
   for GFN2-xTB:
   * C. Bannwarth, S. Ehlert and S. Grimme., J. Chem. Theory Comput., 2019,
     15, 1652-1671. DOI: 10.1021/acs.jctc.8b01176
   for GFN1-xTB:
   * S. Grimme, C. Bannwarth, P. Shushkov, J. Chem. Theory Comput., 2017,
     13, 1989-2009. DOI: 10.1021/acs.jctc.7b00118
   for GFN0-xTB:
   * P. Pracht, E. Caldeweyher, S. Ehlert, S. Grimme, ChemRxiv, 2019, preprint.
     DOI: 10.26434/chemrxiv.8326202.v1
   for GFN-FF:
   * S. Spicher and S. Grimme, Angew. Chem. Int. Ed., 2020, 59, 15665-15673.
     DOI: 10.1002/anie.202004239
   
   for ALPB and GBSA implicit solvation:
   * S. Ehlert, M. Stahn, S. Spicher, S. Grimme, J. Chem. Theory Comput.,
     2021, 17, 4250-4261. DOI: 10.1021/acs.jctc.1c00471
   
   for DFT-D4:
   * E. Caldeweyher, C. Bannwarth and S. Grimme, J. Chem. Phys., 2017,
     147, 034112. DOI: 10.1063/1.4993215
   * E. Caldeweyher, S. Ehlert, A. Hansen, H. Neugebauer, S. Spicher,
     C. Bannwarth and S. Grimme, J. Chem. Phys., 2019, 150, 154122.
     DOI: 10.1063/1.5090222
   * E. Caldeweyher, J.-M. Mewes, S. Ehlert and S. Grimme, Phys. Chem. Chem. Phys.
     2020, 22, 8499-8512. DOI: 10.1039/D0CP00502A
   
   for sTDA-xTB:
   * S. Grimme and C. Bannwarth, J. Chem. Phys., 2016, 145, 054103.
     DOI: 10.1063/1.4959605
   
   in the mass-spec context:
   * V. Asgeirsson, C. Bauer and S. Grimme, Chem. Sci., 2017, 8, 4879.
     DOI: 10.1039/c7sc00601b
   * J. Koopman and S. Grimme, ACS Omega 2019, 4, 12, 15120-15133.
     DOI: 10.1021/acsomega.9b02011
   
   for metadynamics refer to:
   * S. Grimme, J. Chem. Theory Comput., 2019, 155, 2847-2862
     DOI: 10.1021/acs.jctc.9b00143
   
   for SPH calculations refer to:
   * S. Spicher and S. Grimme, J. Chem. Theory Comput., 2021, 17, 1701-1714
     DOI: 10.1021/acs.jctc.0c01306
   
   with help from (in alphabetical order)
   P. Atkinson, C. Bannwarth, F. Bohle, G. Brandenburg, E. Caldeweyher
   M. Checinski, S. Dohm, S. Ehlert, S. Ehrlich, I. Gerasimov, C. Hölzer
   A. Katbashev, J. Koopman, C. Lavigne, S. Lehtola, F. März, M. Müller,
   F. Musil, H. Neugebauer, J. Pisarek, C. Plett, P. Pracht, F. Pultar,
   J. Seibert, P. Shushkov, S. Spicher, M. Stahn, M. Steiner, T. Strunk,
   J. Stückrath, T. Rose, and J. Unsleber
   
 * started run on 2024/11/12 at 09:00:03.672     

           -------------------------------------------------
          |                Calculation Setup                |
           -------------------------------------------------

          program call               : xtb opt_radical_Katherine4.mol --gfn2 --sp --chrg -1 --uhf 1
          coordinate file            : opt_radical_Katherine4.mol
          omp threads                :                     8

   ID    Z sym.   atoms
    1    6 C      1-21, 26-39
    2    8 O      22-25
    3    1 H      40-78
########################################################################
[WARNING] Please study the warnings concerning your input carefully
-1- prog_main: Charge in sdf/mol input was overwritten
########################################################################

           -------------------------------------------------
          |                 G F N 2 - x T B                 |
           -------------------------------------------------

        Reference                      10.1021/acs.jctc.8b01176
      * Hamiltonian:
        H0-scaling (s, p, d)           1.850000    2.230000    2.230000
        zeta-weighting                 0.500000
      * Dispersion:
        s8                             2.700000
        a1                             0.520000
        a2                             5.000000
        s9                             5.000000
      * Repulsion:
        kExp                           1.500000    1.000000
        rExp                           1.000000
      * Coulomb:
        alpha                          2.000000
        third order                    shell-resolved
        anisotropic                    true
        a3                             3.000000
        a5                             4.000000
        cn-shift                       1.200000
        cn-exp                         4.000000
        max-rad                        5.000000

q/qsh data taken from xtbrestart
CAMM data taken from xtbrestart

          ...................................................
          :                      SETUP                      :
          :.................................................:
          :  # basis functions                 195          :
          :  # atomic orbitals                 195          :
          :  # shells                          117          :
          :  # electrons                       204          :
          :  max. iterations                   250          :
          :  Hamiltonian                  GFN2-xTB          :
          :  restarted?                       true          :
          :  GBSA solvation                  false          :
          :  PC potential                    false          :
          :  electronic temp.          300.0000000     K    :
          :  accuracy                    1.0000000          :
          :  -> integral cutoff          0.2500000E+02      :
          :  -> integral neglect         0.1000000E-07      :
          :  -> SCF convergence          0.1000000E-05 Eh   :
          :  -> wf. convergence          0.1000000E-03 e    :
          :  Broyden damping             0.4000000          :
          ...................................................

 iter      E             dE          RMSdq      gap      omega  full diag
   1   -113.0791193 -0.113079E+03  0.534E-01    1.46       0.0  T
   2   -113.0917413 -0.126219E-01  0.396E-01    1.24       1.0  T
   3   -113.0980506 -0.630934E-02  0.244E-01    1.39       1.0  T
   4   -113.0990436 -0.992985E-03  0.158E-01    1.35       1.0  T
   5   -113.0991302 -0.865580E-04  0.698E-02    1.36       1.0  T
   6   -113.0994494 -0.319225E-03  0.145E-02    1.36       1.0  T
   7   -113.0994556 -0.624219E-05  0.830E-03    1.36       1.4  T
   8   -113.0994574 -0.175305E-05  0.366E-03    1.36       3.1  T
   9   -113.0994577 -0.320678E-06  0.129E-03    1.36       8.8  T
  10   -113.0994578 -0.475346E-07  0.650E-04    1.36      17.4  T
  11   -113.0994578 -0.142436E-07  0.366E-04    1.36      30.9  T

   *** convergence criteria satisfied after 11 iterations ***

         #    Occupation            Energy/Eh            Energy/eV
      -------------------------------------------------------------
         1        2.0000           -0.6056507             -16.4806
       ...           ...                  ...                  ...
        96        2.0000           -0.2732878              -7.4365
        97        2.0000           -0.2705105              -7.3610
        98        2.0000           -0.2652170              -7.2169
        99        2.0000           -0.2562006              -6.9716
       100        2.0000           -0.2414807              -6.5710
       101        2.0000           -0.2368609              -6.4453
       102        2.0000           -0.2048327              -5.5738 (HOMO)
       103                         -0.1548230              -4.2129 (LUMO)
       104                         -0.1189478              -3.2367
       105                         -0.1045551              -2.8451
       106                         -0.1014896              -2.7617
       107                         -0.0880404              -2.3957
       ...                                ...                  ...
       195                          0.8619189              23.4540
      -------------------------------------------------------------
                  HL-Gap            0.0500098 Eh            1.3608 eV
             Fermi-level           -0.1798279 Eh           -4.8934 eV

 SCC (total)                   0 d,  0 h,  0 min,  0.231 sec
 SCC setup                      ...        0 min,  0.001 sec (  0.434%)
 Dispersion                     ...        0 min,  0.001 sec (  0.483%)
 classical contributions        ...        0 min,  0.000 sec (  0.171%)
 integral evaluation            ...        0 min,  0.004 sec (  1.664%)
 iterations                     ...        0 min,  0.207 sec ( 89.575%)
 molecular gradient             ...        0 min,  0.016 sec (  6.902%)
 printout                       ...        0 min,  0.002 sec (  0.766%)

         :::::::::::::::::::::::::::::::::::::::::::::::::::::
         ::                     SUMMARY                     ::
         :::::::::::::::::::::::::::::::::::::::::::::::::::::
         :: total energy            -111.428472975576 Eh    ::
         :: gradient norm              0.000426763318 Eh/a0 ::
         :: HOMO-LUMO gap              1.360834724823 eV    ::
         ::.................................................::
         :: SCC energy              -113.099457781539 Eh    ::
         :: -> isotropic ES            0.176284614460 Eh    ::
         :: -> anisotropic ES          0.033701877591 Eh    ::
         :: -> anisotropic XC          0.036653609890 Eh    ::
         :: -> dispersion             -0.100362152304 Eh    ::
         :: repulsion energy           1.670156981535 Eh    ::
         :: add. restraining           0.000000000000 Eh    ::
         :: total charge              -1.000027922748 e     ::
         :::::::::::::::::::::::::::::::::::::::::::::::::::::

           -------------------------------------------------
          |                Property Printout                |
           -------------------------------------------------

    * Orbital Energies and Occupations

         #    Occupation            Energy/Eh            Energy/eV
      -------------------------------------------------------------
         1        2.0000           -0.6056507             -16.4806
       ...           ...                  ...                  ...
        90        2.0000           -0.3135181              -8.5313
        91        2.0000           -0.3108228              -8.4579
        92        2.0000           -0.3046268              -8.2893
        93        2.0000           -0.2968542              -8.0778
        94        2.0000           -0.2861388              -7.7862
        95        2.0000           -0.2749512              -7.4818
        96        2.0000           -0.2732878              -7.4365
        97        2.0000           -0.2705105              -7.3610
        98        2.0000           -0.2652170              -7.2169
        99        2.0000           -0.2562006              -6.9716
       100        2.0000           -0.2414807              -6.5710
       101        2.0000           -0.2368609              -6.4453
       102        2.0000           -0.2048327              -5.5738 (HOMO)
       103                         -0.1548230              -4.2129 (LUMO)
       104                         -0.1189478              -3.2367
       105                         -0.1045551              -2.8451
       106                         -0.1014896              -2.7617
       107                         -0.0880404              -2.3957
       108                         -0.0550233              -1.4973
       109                         -0.0429775              -1.1695
       110                         -0.0234658              -0.6385
       111                          0.0272178               0.7406
       112                          0.0420388               1.1439
       113                          0.0901450               2.4530
       ...                                ...                  ...
       195                          0.8619189              23.4540
      -------------------------------------------------------------
                  HL-Gap            0.0500098 Eh            1.3608 eV
             Fermi-level           -0.1798279 Eh           -4.8934 eV

     #   Z          covCN         q      C6AA      α(0)
     1   6 C        2.923    -0.080    30.002     8.982
     2   6 C        2.863     0.134    25.067     8.207
     3   6 C        2.979    -0.005    28.145     8.702
     4   6 C        2.982    -0.039    28.972     8.829
     5   6 C        2.929    -0.049    29.224     8.865
     6   6 C        2.970    -0.018    28.453     8.749
     7   6 C        2.974    -0.032    28.789     8.801
     8   6 C        2.994    -0.006    28.170     8.706
     9   6 C        2.977    -0.037    28.908     8.819
    10   6 C        2.837     0.202    23.714     7.980
    11   6 C        2.978    -0.005    28.148     8.703
    12   6 C        2.982    -0.040    28.975     8.830
    13   6 C        2.837     0.203    23.702     7.978
    14   6 C        2.976    -0.036    28.890     8.817
    15   6 C        2.932    -0.028    28.702     8.786
    16   6 C        2.968    -0.016    28.410     8.743
    17   6 C        2.930    -0.032    28.804     8.802
    18   6 C        2.862     0.133    25.080     8.209
    19   6 C        2.924    -0.080    29.996     8.982
    20   6 C        2.969    -0.018    28.452     8.749
    21   6 C        2.929    -0.049    29.219     8.865
    22   8 O        1.705    -0.275    18.569     5.818
    23   8 O        1.705    -0.276    18.572     5.819
    24   8 O        0.857    -0.482    23.389     6.484
    25   8 O        0.857    -0.482    23.385     6.484
    26   6 C        3.642     0.058    19.941     6.420
    27   6 C        3.642     0.058    19.945     6.421
    28   6 C        3.902     0.026    20.078     6.369
    29   6 C        3.762    -0.104    22.529     6.766
    30   6 C        3.761    -0.099    22.428     6.751
    31   6 C        3.761    -0.098    22.427     6.751
    32   6 C        3.902     0.026    20.078     6.369
    33   6 C        3.761    -0.098    22.425     6.751
    34   6 C        3.762    -0.104    22.530     6.766
    35   6 C        3.761    -0.098    22.427     6.751
    36   6 C        3.903     0.025    20.093     6.372
    37   6 C        3.761    -0.102    22.493     6.761
    38   6 C        3.761    -0.101    22.474     6.758
    39   6 C        3.761    -0.101    22.471     6.757
    40   1 H        0.925     0.020     2.726     2.582
    41   1 H        0.925     0.037     2.489     2.467
    42   1 H        0.925     0.028     2.610     2.526
    43   1 H        0.925     0.020     2.736     2.587
    44   1 H        0.925     0.035     2.518     2.481
    45   1 H        0.925     0.034     2.534     2.490
    46   1 H        0.925     0.020     2.729     2.583
    47   1 H        0.925     0.028     2.614     2.528
    48   1 H        0.925     0.038     2.473     2.459
    49   1 H        0.925     0.020     2.727     2.582
    50   1 H        0.925     0.030     2.585     2.514
    51   1 H        0.925     0.029     2.606     2.525
    52   1 H        0.925     0.021     2.719     2.578
    53   1 H        0.925     0.028     2.617     2.530
    54   1 H        0.925     0.030     2.581     2.512
    55   1 H        0.925     0.020     2.732     2.585
    56   1 H        0.925     0.037     2.491     2.468
    57   1 H        0.925     0.037     2.484     2.465
    58   1 H        0.924     0.044     2.399     2.422
    59   1 H        0.923     0.021     2.725     2.582
    60   1 H        0.923     0.021     2.717     2.578
    61   1 H        0.924     0.044     2.402     2.424
    62   1 H        0.923     0.021     2.717     2.578
    63   1 H        0.923     0.021     2.723     2.581
    64   1 H        0.925     0.021     2.719     2.578
    65   1 H        0.925     0.028     2.619     2.531
    66   1 H        0.925     0.030     2.583     2.513
    67   1 H        0.925     0.038     2.481     2.463
    68   1 H        0.925     0.020     2.732     2.585
    69   1 H        0.925     0.037     2.493     2.469
    70   1 H        0.925     0.020     2.728     2.583
    71   1 H        0.925     0.030     2.585     2.514
    72   1 H        0.925     0.028     2.609     2.526
    73   1 H        0.925     0.037     2.496     2.470
    74   1 H        0.926     0.044     2.400     2.423
    75   1 H        0.926     0.046     2.366     2.405
    76   1 H        0.926     0.008     2.926     2.675
    77   1 H        0.926     0.008     2.920     2.672
    78   1 H        0.926     0.046     2.370     2.407

 Mol. C6AA /au·bohr⁶  :      65956.578783
 Mol. C8AA /au·bohr⁸  :    1551593.781173
 Mol. α(0) /au        :        397.916492


Wiberg/Mayer (AO) data.
largest (>0.10) Wiberg bond orders for each atom

 ---------------------------------------------------------------------------
     #   Z sym  total        # sym  WBO       # sym  WBO       # sym  WBO
 ---------------------------------------------------------------------------
     1   6 C    3.970 --     2 C    1.470     6 C    1.313    76 H    0.959
     2   6 C    3.917 --     1 C    1.470     3 C    1.228    23 O    1.025
     3   6 C    3.977 --     4 C    1.297     2 C    1.228     7 C    1.199
     4   6 C    3.972 --     5 C    1.329     3 C    1.297    10 C    1.090
     5   6 C    3.987 --     6 C    1.489     4 C    1.329    75 H    0.960
     6   6 C    3.964 --     5 C    1.489     1 C    1.313    32 C    0.980
     7   6 C    3.974 --     8 C    1.280    11 C    1.200     3 C    1.199
     8   6 C    3.986 --     7 C    1.280     9 C    1.240    14 C    1.233
     9   6 C    3.981 --    17 C    1.396     8 C    1.240    10 C    1.088
    10   6 C    3.941 --    24 O    1.618     4 C    1.090     9 C    1.088
    11   6 C    3.976 --    12 C    1.296    18 C    1.229     7 C    1.200
    12   6 C    3.972 --    21 C    1.330    11 C    1.296    13 C    1.090
    13   6 C    3.942 --    25 O    1.619    12 C    1.090    14 C    1.086
    14   6 C    3.982 --    15 C    1.410     8 C    1.233    13 C    1.086
    15   6 C    3.987 --    14 C    1.410    16 C    1.397    73 H    0.960
    16   6 C    3.973 --    17 C    1.412    15 C    1.397    36 C    0.979
    17   6 C    3.986 --    16 C    1.412     9 C    1.396    74 H    0.961
    18   6 C    3.918 --    19 C    1.469    11 C    1.229    22 O    1.025
    19   6 C    3.970 --    18 C    1.469    20 C    1.313    77 H    0.959
    20   6 C    3.963 --    21 C    1.488    19 C    1.313    28 C    0.980
    21   6 C    3.987 --    20 C    1.488    12 C    1.330    78 H    0.960
    22   8 O    2.211 --    18 C    1.025    26 C    1.004
    23   8 O    2.209 --     2 C    1.025    27 C    1.004
    24   8 O    1.908 --    10 C    1.618
    25   8 O    1.910 --    13 C    1.619
    26   6 C    3.962 --    22 O    1.004    58 H    0.980    59 H    0.974
                            60 H    0.974
    27   6 C    3.962 --    23 O    1.004    61 H    0.980    62 H    0.974
                            63 H    0.974
    28   6 C    3.989 --    29 C    1.000    31 C    0.990    30 C    0.989
                            20 C    0.980
    29   6 C    3.997 --    28 C    1.000    55 H    0.986    57 H    0.985
                            56 H    0.985
    30   6 C    3.995 --    28 C    0.989    54 H    0.987    52 H    0.986
                            53 H    0.984
    31   6 C    3.995 --    28 C    0.990    50 H    0.987    49 H    0.986
                            51 H    0.984
    32   6 C    3.989 --    34 C    0.999    33 C    0.989    35 C    0.989
                             6 C    0.980
    33   6 C    3.995 --    32 C    0.989    71 H    0.987    70 H    0.986
                            72 H    0.984
    34   6 C    3.997 --    32 C    0.999    68 H    0.986    67 H    0.985
                            69 H    0.985
    35   6 C    3.995 --    32 C    0.989    66 H    0.987    64 H    0.986
                            65 H    0.984
    36   6 C    3.989 --    37 C    1.000    38 C    0.989    39 C    0.989
                            16 C    0.979
    37   6 C    3.997 --    36 C    1.000    43 H    0.986    45 H    0.985
                            44 H    0.985
    38   6 C    3.995 --    36 C    0.989    47 H    0.987    46 H    0.986
                            48 H    0.983
    39   6 C    3.995 --    36 C    0.989    42 H    0.987    40 H    0.986
                            41 H    0.984
    40   1 H    0.999 --    39 C    0.986
    41   1 H    0.999 --    39 C    0.984
    42   1 H    0.999 --    39 C    0.987
    43   1 H    0.999 --    37 C    0.986
    44   1 H    0.999 --    37 C    0.985
    45   1 H    0.999 --    37 C    0.985
    46   1 H    0.999 --    38 C    0.986
    47   1 H    0.999 --    38 C    0.987
    48   1 H    0.999 --    38 C    0.983
    49   1 H    0.999 --    31 C    0.986
    50   1 H    0.999 --    31 C    0.987
    51   1 H    0.999 --    31 C    0.984
    52   1 H    0.999 --    30 C    0.986
    53   1 H    0.999 --    30 C    0.984
    54   1 H    0.999 --    30 C    0.987
    55   1 H    0.999 --    29 C    0.986
    56   1 H    0.999 --    29 C    0.985
    57   1 H    0.999 --    29 C    0.985
    58   1 H    0.998 --    26 C    0.980
    59   1 H    0.999 --    26 C    0.974
    60   1 H    0.999 --    26 C    0.974
    61   1 H    0.998 --    27 C    0.980
    62   1 H    0.999 --    27 C    0.974
    63   1 H    0.999 --    27 C    0.974
    64   1 H    0.999 --    35 C    0.986
    65   1 H    0.999 --    35 C    0.984
    66   1 H    0.999 --    35 C    0.987
    67   1 H    0.999 --    34 C    0.985
    68   1 H    0.999 --    34 C    0.986
    69   1 H    0.999 --    34 C    0.985
    70   1 H    0.999 --    33 C    0.986
    71   1 H    0.999 --    33 C    0.987
    72   1 H    0.999 --    33 C    0.984
    73   1 H    0.998 --    15 C    0.960
    74   1 H    0.997 --    17 C    0.961
    75   1 H    0.997 --     5 C    0.960
    76   1 H    0.999 --     1 C    0.959
    77   1 H    0.999 --    19 C    0.959
    78   1 H    0.997 --    21 C    0.960
 ---------------------------------------------------------------------------

Topologies differ in bond orders
Writing corrected topology to xtbtopo.mol

molecular dipole:
                 x           y           z       tot (Debye)
 q only:       -1.867       4.215      -2.209
   full:       -2.432       4.518      -2.317      14.309
molecular quadrupole (traceless):
                xx          xy          yy          xz          yz          zz
 q only:       10.539      -7.074     -39.310     -12.784       5.195      28.772
  q+dip:       17.813      -8.035     -40.267     -13.494       2.968      22.454
   full:       15.168      -8.377     -43.992     -15.476       2.462      28.824


           -------------------------------------------------
          | TOTAL ENERGY             -111.428472975576 Eh   |
          | GRADIENT NORM               0.000426763318 Eh/α |
          | HOMO-LUMO GAP               1.360834724823 eV   |
           -------------------------------------------------
########################################################################
[WARNING] Runtime exception occurred
-1- restart_readRestart: Number of electron missmatch in restart file.
########################################################################

------------------------------------------------------------------------
 * finished run on 2024/11/12 at 09:00:03.927     
------------------------------------------------------------------------
 total:
 * wall-time:     0 d,  0 h,  0 min,  0.254 sec
Note: The following floating-point exceptions are signalling: IEEE_UNDERFLOW_FLAG
normal termination of xtb
 *  cpu-time:     0 d,  0 h,  0 min,  0.601 sec
 * ratio c/w:     2.366 speedup
 SCF:
 * wall-time:     0 d,  0 h,  0 min,  0.232 sec
 *  cpu-time:     0 d,  0 h,  0 min,  0.583 sec
 * ratio c/w:     2.510 speedup

