      -----------------------------------------------------------      
     |                   =====================                   |     
     |                           x T B                           |     
     |                   =====================                   |     
     |                         S. Grimme                         |     
     |          Mulliken Center for Theoretical Chemistry        |     
     |                    University of Bonn                     |     
      -----------------------------------------------------------      

   * xtb version 6.6.1 (8d0f1dd) compiled by 'runner@Mac-1690902418499.local' on 2023-08-01

   xtb is free software: you can redistribute it and/or modify it under
   the terms of the GNU Lesser General Public License as published by
   the Free Software Foundation, either version 3 of the License, or
   (at your option) any later version.
   
   xtb is distributed in the hope that it will be useful,
   but WITHOUT ANY WARRANTY; without even the implied warranty of
   MERCHANTABILITY or FITNESS FOR A PARTICULAR PURPOSE.  See the
   GNU Lesser General Public License for more details.
   
   Cite this work as:
   * C. Bannwarth, E. Caldeweyher, S. Ehlert, A. Hansen, P. Pracht,
     J. Seibert, S. Spicher, S. Grimme, WIREs Comput. Mol. Sci., 2020, 11,
     e01493. DOI: 10.1002/wcms.1493
   
   for GFN2-xTB:
   * C. Bannwarth, S. Ehlert and S. Grimme., J. Chem. Theory Comput., 2019,
     15, 1652-1671. DOI: 10.1021/acs.jctc.8b01176
   for GFN1-xTB:
   * S. Grimme, C. Bannwarth, P. Shushkov, J. Chem. Theory Comput., 2017,
     13, 1989-2009. DOI: 10.1021/acs.jctc.7b00118
   for GFN0-xTB:
   * P. Pracht, E. Caldeweyher, S. Ehlert, S. Grimme, ChemRxiv, 2019, preprint.
     DOI: 10.26434/chemrxiv.8326202.v1
   for GFN-FF:
   * S. Spicher and S. Grimme, Angew. Chem. Int. Ed., 2020, 59, 15665-15673.
     DOI: 10.1002/anie.202004239
   
   for ALPB and GBSA implicit solvation:
   * S. Ehlert, M. Stahn, S. Spicher, S. Grimme, J. Chem. Theory Comput.,
     2021, 17, 4250-4261. DOI: 10.1021/acs.jctc.1c00471
   
   for DFT-D4:
   * E. Caldeweyher, C. Bannwarth and S. Grimme, J. Chem. Phys., 2017,
     147, 034112. DOI: 10.1063/1.4993215
   * E. Caldeweyher, S. Ehlert, A. Hansen, H. Neugebauer, S. Spicher,
     C. Bannwarth and S. Grimme, J. Chem. Phys., 2019, 150, 154122.
     DOI: 10.1063/1.5090222
   * E. Caldeweyher, J.-M. Mewes, S. Ehlert and S. Grimme, Phys. Chem. Chem. Phys.
     2020, 22, 8499-8512. DOI: 10.1039/D0CP00502A
   
   for sTDA-xTB:
   * S. Grimme and C. Bannwarth, J. Chem. Phys., 2016, 145, 054103.
     DOI: 10.1063/1.4959605
   
   in the mass-spec context:
   * V. Asgeirsson, C. Bauer and S. Grimme, Chem. Sci., 2017, 8, 4879.
     DOI: 10.1039/c7sc00601b
   * J. Koopman and S. Grimme, ACS Omega 2019, 4, 12, 15120-15133.
     DOI: 10.1021/acsomega.9b02011
   
   for metadynamics refer to:
   * S. Grimme, J. Chem. Theory Comput., 2019, 155, 2847-2862
     DOI: 10.1021/acs.jctc.9b00143
   
   for SPH calculations refer to:
   * S. Spicher and S. Grimme, J. Chem. Theory Comput., 2021, 17, 1701-1714
     DOI: 10.1021/acs.jctc.0c01306
   
   with help from (in alphabetical order)
   P. Atkinson, C. Bannwarth, F. Bohle, G. Brandenburg, E. Caldeweyher
   M. Checinski, S. Dohm, S. Ehlert, S. Ehrlich, I. Gerasimov, C. Hölzer
   A. Katbashev, J. Koopman, C. Lavigne, S. Lehtola, F. März, M. Müller,
   F. Musil, H. Neugebauer, J. Pisarek, C. Plett, P. Pracht, F. Pultar,
   J. Seibert, P. Shushkov, S. Spicher, M. Stahn, M. Steiner, T. Strunk,
   J. Stückrath, T. Rose, and J. Unsleber
   
 * started run on 2024/11/12 at 09:00:04.312     

           -------------------------------------------------
          |                Calculation Setup                |
           -------------------------------------------------

          program call               : xtb opt_anion_Katherine4.mol --gfn2 --sp --chrg -1 --uhf 1
          coordinate file            : opt_anion_Katherine4.mol
          omp threads                :                     8

   ID    Z sym.   atoms
    1    6 C      1-21, 26-39
    2    8 O      22-25
    3    1 H      40-78
########################################################################
[WARNING] Please study the warnings concerning your input carefully
-1- prog_main: Charge in sdf/mol input was overwritten
########################################################################

           -------------------------------------------------
          |                 G F N 2 - x T B                 |
           -------------------------------------------------

        Reference                      10.1021/acs.jctc.8b01176
      * Hamiltonian:
        H0-scaling (s, p, d)           1.850000    2.230000    2.230000
        zeta-weighting                 0.500000
      * Dispersion:
        s8                             2.700000
        a1                             0.520000
        a2                             5.000000
        s9                             5.000000
      * Repulsion:
        kExp                           1.500000    1.000000
        rExp                           1.000000
      * Coulomb:
        alpha                          2.000000
        third order                    shell-resolved
        anisotropic                    true
        a3                             3.000000
        a5                             4.000000
        cn-shift                       1.200000
        cn-exp                         4.000000
        max-rad                        5.000000

q/qsh data taken from xtbrestart
CAMM data taken from xtbrestart

          ...................................................
          :                      SETUP                      :
          :.................................................:
          :  # basis functions                 195          :
          :  # atomic orbitals                 195          :
          :  # shells                          117          :
          :  # electrons                       204          :
          :  max. iterations                   250          :
          :  Hamiltonian                  GFN2-xTB          :
          :  restarted?                       true          :
          :  GBSA solvation                  false          :
          :  PC potential                    false          :
          :  electronic temp.          300.0000000     K    :
          :  accuracy                    1.0000000          :
          :  -> integral cutoff          0.2500000E+02      :
          :  -> integral neglect         0.1000000E-07      :
          :  -> SCF convergence          0.1000000E-05 Eh   :
          :  -> wf. convergence          0.1000000E-03 e    :
          :  Broyden damping             0.4000000          :
          ...................................................

 iter      E             dE          RMSdq      gap      omega  full diag
   1   -113.0514243 -0.113051E+03  0.498E-01    1.43       0.0  T
   2   -113.0666726 -0.152483E-01  0.348E-01    1.26       1.0  T
   3   -113.0697295 -0.305682E-02  0.226E-01    1.31       1.0  T
   4   -113.0701498 -0.420381E-03  0.156E-01    1.29       1.0  T
   5   -113.0702125 -0.626388E-04  0.565E-02    1.28       1.0  T
   6   -113.0704745 -0.261999E-03  0.175E-02    1.30       1.0  T
   7   -113.0704873 -0.127968E-04  0.967E-03    1.29       1.2  T
   8   -113.0704911 -0.386513E-05  0.425E-03    1.29       2.7  T
   9   -113.0704918 -0.641802E-06  0.195E-03    1.29       5.8  T
  10   -113.0704920 -0.229469E-06  0.776E-04    1.29      14.6  T
  11   -113.0704920 -0.240720E-07  0.445E-04    1.29      25.5  T

   *** convergence criteria satisfied after 11 iterations ***

         #    Occupation            Energy/Eh            Energy/eV
      -------------------------------------------------------------
         1        2.0000           -0.6064650             -16.5028
       ...           ...                  ...                  ...
        96        2.0000           -0.2737264              -7.4485
        97        2.0000           -0.2723735              -7.4117
        98        2.0000           -0.2686809              -7.3112
        99        2.0000           -0.2596083              -7.0643
       100        2.0000           -0.2424995              -6.5987
       101        2.0000           -0.2384640              -6.4889
       102        2.0000           -0.2088664              -5.6835 (HOMO)
       103                         -0.1612906              -4.3889 (LUMO)
       104                         -0.1239195              -3.3720
       105                         -0.1092790              -2.9736
       106                         -0.1049897              -2.8569
       107                         -0.0921351              -2.5071
       ...                                ...                  ...
       195                          0.8440520              22.9678
      -------------------------------------------------------------
                  HL-Gap            0.0475758 Eh            1.2946 eV
             Fermi-level           -0.1850785 Eh           -5.0362 eV

 SCC (total)                   0 d,  0 h,  0 min,  0.333 sec
 SCC setup                      ...        0 min,  0.000 sec (  0.057%)
 Dispersion                     ...        0 min,  0.001 sec (  0.195%)
 classical contributions        ...        0 min,  0.000 sec (  0.048%)
 integral evaluation            ...        0 min,  0.003 sec (  0.887%)
 iterations                     ...        0 min,  0.312 sec ( 93.805%)
 molecular gradient             ...        0 min,  0.014 sec (  4.306%)
 printout                       ...        0 min,  0.002 sec (  0.699%)

         :::::::::::::::::::::::::::::::::::::::::::::::::::::
         ::                     SUMMARY                     ::
         :::::::::::::::::::::::::::::::::::::::::::::::::::::
         :: total energy            -111.425079750167 Eh    ::
         :: gradient norm              0.074439895698 Eh/a0 ::
         :: HOMO-LUMO gap              1.294602660636 eV    ::
         ::.................................................::
         :: SCC energy              -113.070492027314 Eh    ::
         :: -> isotropic ES            0.181058777011 Eh    ::
         :: -> anisotropic ES          0.032975763568 Eh    ::
         :: -> anisotropic XC          0.037441726098 Eh    ::
         :: -> dispersion             -0.100222025757 Eh    ::
         :: repulsion energy           1.644613695104 Eh    ::
         :: add. restraining           0.000000000000 Eh    ::
         :: total charge              -0.999951290936 e     ::
         :::::::::::::::::::::::::::::::::::::::::::::::::::::

           -------------------------------------------------
          |                Property Printout                |
           -------------------------------------------------

    * Orbital Energies and Occupations

         #    Occupation            Energy/Eh            Energy/eV
      -------------------------------------------------------------
         1        2.0000           -0.6064650             -16.5028
       ...           ...                  ...                  ...
        90        2.0000           -0.3142434              -8.5510
        91        2.0000           -0.3125438              -8.5047
        92        2.0000           -0.3068529              -8.3499
        93        2.0000           -0.2973896              -8.0924
        94        2.0000           -0.2880442              -7.8381
        95        2.0000           -0.2754179              -7.4945
        96        2.0000           -0.2737264              -7.4485
        97        2.0000           -0.2723735              -7.4117
        98        2.0000           -0.2686809              -7.3112
        99        2.0000           -0.2596083              -7.0643
       100        2.0000           -0.2424995              -6.5987
       101        2.0000           -0.2384640              -6.4889
       102        2.0000           -0.2088664              -5.6835 (HOMO)
       103                         -0.1612906              -4.3889 (LUMO)
       104                         -0.1239195              -3.3720
       105                         -0.1092790              -2.9736
       106                         -0.1049897              -2.8569
       107                         -0.0921351              -2.5071
       108                         -0.0583569              -1.5880
       109                         -0.0452058              -1.2301
       110                         -0.0275032              -0.7484
       111                          0.0217889               0.5929
       112                          0.0379020               1.0314
       113                          0.0867541               2.3607
       ...                                ...                  ...
       195                          0.8440520              22.9678
      -------------------------------------------------------------
                  HL-Gap            0.0475758 Eh            1.2946 eV
             Fermi-level           -0.1850785 Eh           -5.0362 eV

     #   Z          covCN         q      C6AA      α(0)
     1   6 C        2.921    -0.078    29.944     8.974
     2   6 C        2.859     0.132    25.102     8.212
     3   6 C        2.975    -0.004    28.121     8.698
     4   6 C        2.981    -0.036    28.888     8.816
     5   6 C        2.927    -0.047    29.177     8.858
     6   6 C        2.967    -0.017    28.431     8.746
     7   6 C        2.972    -0.028    28.688     8.786
     8   6 C        2.990    -0.006    28.170     8.706
     9   6 C        2.975    -0.032    28.797     8.802
    10   6 C        2.838     0.197    23.807     7.996
    11   6 C        2.976    -0.004    28.127     8.699
    12   6 C        2.981    -0.036    28.893     8.817
    13   6 C        2.838     0.197    23.800     7.995
    14   6 C        2.975    -0.031    28.776     8.799
    15   6 C        2.929    -0.028    28.694     8.785
    16   6 C        2.964    -0.013    28.327     8.730
    17   6 C        2.927    -0.032    28.793     8.800
    18   6 C        2.860     0.134    25.076     8.208
    19   6 C        2.921    -0.076    29.906     8.968
    20   6 C        2.967    -0.017    28.421     8.745
    21   6 C        2.927    -0.047    29.172     8.857
    22   8 O        1.704    -0.281    18.671     5.834
    23   8 O        1.704    -0.282    18.674     5.834
    24   8 O        0.857    -0.498    23.733     6.532
    25   8 O        0.857    -0.498    23.738     6.532
    26   6 C        3.641     0.063    19.863     6.409
    27   6 C        3.640     0.062    19.890     6.413
    28   6 C        3.902     0.026    20.079     6.369
    29   6 C        3.761    -0.104    22.536     6.767
    30   6 C        3.760    -0.099    22.434     6.752
    31   6 C        3.761    -0.099    22.432     6.752
    32   6 C        3.902     0.026    20.079     6.369
    33   6 C        3.761    -0.099    22.429     6.751
    34   6 C        3.761    -0.104    22.538     6.767
    35   6 C        3.760    -0.099    22.431     6.752
    36   6 C        3.902     0.025    20.103     6.373
    37   6 C        3.760    -0.102    22.499     6.762
    38   6 C        3.761    -0.101    22.483     6.759
    39   6 C        3.761    -0.101    22.478     6.759
    40   1 H        0.924     0.021     2.721     2.580
    41   1 H        0.925     0.038     2.478     2.462
    42   1 H        0.925     0.028     2.608     2.526
    43   1 H        0.924     0.020     2.729     2.583
    44   1 H        0.925     0.035     2.514     2.479
    45   1 H        0.925     0.034     2.533     2.489
    46   1 H        0.924     0.021     2.724     2.581
    47   1 H        0.925     0.028     2.615     2.529
    48   1 H        0.925     0.039     2.460     2.453
    49   1 H        0.924     0.021     2.724     2.581
    50   1 H        0.925     0.030     2.589     2.516
    51   1 H        0.925     0.029     2.597     2.520
    52   1 H        0.924     0.021     2.716     2.577
    53   1 H        0.925     0.029     2.608     2.525
    54   1 H        0.925     0.031     2.576     2.510
    55   1 H        0.924     0.021     2.726     2.582
    56   1 H        0.925     0.037     2.485     2.465
    57   1 H        0.925     0.037     2.485     2.465
    58   1 H        0.924     0.041     2.440     2.443
    59   1 H        0.923     0.014     2.830     2.631
    60   1 H        0.923     0.022     2.698     2.569
    61   1 H        0.924     0.042     2.427     2.436
    62   1 H        0.923     0.020     2.738     2.588
    63   1 H        0.923     0.016     2.803     2.618
    64   1 H        0.924     0.021     2.714     2.576
    65   1 H        0.925     0.028     2.618     2.530
    66   1 H        0.925     0.030     2.581     2.512
    67   1 H        0.925     0.038     2.479     2.462
    68   1 H        0.924     0.021     2.726     2.582
    69   1 H        0.925     0.037     2.484     2.465
    70   1 H        0.924     0.021     2.723     2.581
    71   1 H        0.925     0.030     2.581     2.512
    72   1 H        0.925     0.028     2.609     2.526
    73   1 H        0.925     0.041     2.441     2.443
    74   1 H        0.926     0.048     2.349     2.397
    75   1 H        0.926     0.050     2.322     2.383
    76   1 H        0.925     0.010     2.889     2.658
    77   1 H        0.925     0.011     2.876     2.652
    78   1 H        0.926     0.049     2.326     2.385

 Mol. C6AA /au·bohr⁶  :      65944.458506
 Mol. C8AA /au·bohr⁸  :    1551288.712374
 Mol. α(0) /au        :        397.857635


Wiberg/Mayer (AO) data.
largest (>0.10) Wiberg bond orders for each atom

 ---------------------------------------------------------------------------
     #   Z sym  total        # sym  WBO       # sym  WBO       # sym  WBO
 ---------------------------------------------------------------------------
     1   6 C    3.970 --     2 C    1.471     6 C    1.310    76 H    0.959
     2   6 C    3.915 --     1 C    1.471     3 C    1.241    23 O    1.010
     3   6 C    3.976 --     4 C    1.277     2 C    1.241     7 C    1.207
     4   6 C    3.972 --     5 C    1.327     3 C    1.277    10 C    1.113
     5   6 C    3.986 --     6 C    1.493     4 C    1.327    75 H    0.959
     6   6 C    3.963 --     5 C    1.493     1 C    1.310    32 C    0.980
     7   6 C    3.975 --     8 C    1.271     3 C    1.207    11 C    1.204
     8   6 C    3.986 --     7 C    1.271     9 C    1.244    14 C    1.237
     9   6 C    3.982 --    17 C    1.380     8 C    1.244    10 C    1.106
    10   6 C    3.945 --    24 O    1.582     4 C    1.113     9 C    1.106
    11   6 C    3.975 --    12 C    1.276    18 C    1.242     7 C    1.204
    12   6 C    3.972 --    21 C    1.327    11 C    1.276    13 C    1.115
    13   6 C    3.945 --    25 O    1.582    12 C    1.115    14 C    1.103
    14   6 C    3.982 --    15 C    1.395     8 C    1.237    13 C    1.103
    15   6 C    3.985 --    16 C    1.402    14 C    1.395    73 H    0.960
    16   6 C    3.974 --    17 C    1.419    15 C    1.402    36 C    0.977
    17   6 C    3.985 --    16 C    1.419     9 C    1.380    74 H    0.961
    18   6 C    3.917 --    19 C    1.470    11 C    1.242    22 O    1.013
    19   6 C    3.970 --    18 C    1.470    20 C    1.310    77 H    0.959
    20   6 C    3.963 --    21 C    1.493    19 C    1.310    28 C    0.980
    21   6 C    3.986 --    20 C    1.493    12 C    1.327    78 H    0.959
    22   8 O    2.197 --    18 C    1.013    26 C    1.008
    23   8 O    2.199 --     2 C    1.010    27 C    1.010
    24   8 O    1.876 --    10 C    1.582
    25   8 O    1.877 --    13 C    1.582
    26   6 C    3.963 --    22 O    1.008    58 H    0.979    60 H    0.974
                            59 H    0.973
    27   6 C    3.963 --    23 O    1.010    61 H    0.979    62 H    0.973
                            63 H    0.972
    28   6 C    3.989 --    29 C    1.000    31 C    0.989    30 C    0.989
                            20 C    0.980
    29   6 C    3.997 --    28 C    1.000    55 H    0.986    57 H    0.985
                            56 H    0.985
    30   6 C    3.995 --    28 C    0.989    54 H    0.987    52 H    0.986
                            53 H    0.984
    31   6 C    3.995 --    28 C    0.989    50 H    0.987    49 H    0.986
                            51 H    0.984
    32   6 C    3.989 --    34 C    1.000    33 C    0.989    35 C    0.988
                             6 C    0.980
    33   6 C    3.995 --    32 C    0.989    71 H    0.987    70 H    0.986
                            72 H    0.984
    34   6 C    3.997 --    32 C    1.000    68 H    0.986    67 H    0.985
                            69 H    0.985
    35   6 C    3.995 --    32 C    0.988    66 H    0.987    64 H    0.986
                            65 H    0.984
    36   6 C    3.989 --    37 C    1.000    38 C    0.990    39 C    0.989
                            16 C    0.977
    37   6 C    3.997 --    36 C    1.000    43 H    0.986    45 H    0.985
                            44 H    0.985
    38   6 C    3.995 --    36 C    0.990    47 H    0.987    46 H    0.986
                            48 H    0.983
    39   6 C    3.995 --    36 C    0.989    42 H    0.987    40 H    0.986
                            41 H    0.983
    40   1 H    0.999 --    39 C    0.986
    41   1 H    0.999 --    39 C    0.983
    42   1 H    0.999 --    39 C    0.987
    43   1 H    0.999 --    37 C    0.986
    44   1 H    0.999 --    37 C    0.985
    45   1 H    0.999 --    37 C    0.985
    46   1 H    0.999 --    38 C    0.986
    47   1 H    0.999 --    38 C    0.987
    48   1 H    0.998 --    38 C    0.983
    49   1 H    0.999 --    31 C    0.986
    50   1 H    0.999 --    31 C    0.987
    51   1 H    0.999 --    31 C    0.984
    52   1 H    0.999 --    30 C    0.986
    53   1 H    0.999 --    30 C    0.984
    54   1 H    0.999 --    30 C    0.987
    55   1 H    0.999 --    29 C    0.986
    56   1 H    0.999 --    29 C    0.985
    57   1 H    0.999 --    29 C    0.985
    58   1 H    0.998 --    26 C    0.979
    59   1 H    1.000 --    26 C    0.973
    60   1 H    0.999 --    26 C    0.974
    61   1 H    0.998 --    27 C    0.979
    62   1 H    0.999 --    27 C    0.973
    63   1 H    1.000 --    27 C    0.972
    64   1 H    0.999 --    35 C    0.986
    65   1 H    0.999 --    35 C    0.984
    66   1 H    0.999 --    35 C    0.987
    67   1 H    0.999 --    34 C    0.985
    68   1 H    0.999 --    34 C    0.986
    69   1 H    0.999 --    34 C    0.985
    70   1 H    0.999 --    33 C    0.986
    71   1 H    0.999 --    33 C    0.987
    72   1 H    0.999 --    33 C    0.984
    73   1 H    0.997 --    15 C    0.960
    74   1 H    0.997 --    17 C    0.961
    75   1 H    0.997 --     5 C    0.959
    76   1 H    0.999 --     1 C    0.959
    77   1 H    0.999 --    19 C    0.959
    78   1 H    0.997 --    21 C    0.959
 ---------------------------------------------------------------------------

Topologies differ in bond orders
Writing corrected topology to xtbtopo.mol

molecular dipole:
                 x           y           z       tot (Debye)
 q only:       -1.842       4.224      -2.377
   full:       -2.410       4.543      -2.523      14.561
molecular quadrupole (traceless):
                xx          xy          yy          xz          yz          zz
 q only:       10.232      -7.643     -39.242     -11.486       6.367      29.010
  q+dip:       17.806      -8.828     -40.409     -12.268       4.657      22.603
   full:       14.832      -9.187     -44.152     -14.014       4.156      29.320


           -------------------------------------------------
          | TOTAL ENERGY             -111.425079750167 Eh   |
          | GRADIENT NORM               0.074439895698 Eh/α |
          | HOMO-LUMO GAP               1.294602660636 eV   |
           -------------------------------------------------
########################################################################
[WARNING] Runtime exception occurred
-1- restart_readRestart: Number of electron missmatch in restart file.
########################################################################

------------------------------------------------------------------------
 * finished run on 2024/11/12 at 09:00:04.655     
------------------------------------------------------------------------
 total:
 * wall-time:     0 d,  0 h,  0 min,  0.342 sec
Note: The following floating-point exceptions are signalling: IEEE_UNDERFLOW_FLAG
normal termination of xtb
 *  cpu-time:     0 d,  0 h,  0 min,  1.055 sec
 * ratio c/w:     3.082 speedup
 SCF:
 * wall-time:     0 d,  0 h,  0 min,  0.333 sec
 *  cpu-time:     0 d,  0 h,  0 min,  1.039 sec
 * ratio c/w:     3.121 speedup

