Optimization of monomers started
Stacking dimer
Calculating transfer integral
Reorganization energy (electron): 0.18381050406834726 eV
Reorganization energy (hole): 0.1316353710962979 eV
Electron Transfer integral J: 0.0 eV
Hole Transfer integral J: 0.011 eV
===                   |     
     |                         S. Grimme                         |     
     |          Mulliken Center for Theoretical Chemistry        |     
     |                    University of Bonn                     |     
      -----------------------------------------------------------      

   * xtb version 6.7.1 (edcfbbe) compiled by 'runner@Mac-1732539442253.local' on 2024-11-25

   xtb is free software: you can redistribute it and/or modify it under
   the terms of the GNU Lesser General Public License as published by
   the Free Software Foundation, either version 3 of the License, or
   (at your option) any later version.
   
   xtb is distributed in the hope that it will be useful,
   but WITHOUT ANY WARRANTY; without even the implied warranty of
   MERCHANTABILITY or FITNESS FOR A PARTICULAR PURPOSE.  See the
   GNU Lesser General Public License for more details.
   
   Cite this work as:
   * C. Bannwarth, E. Caldeweyher, S. Ehlert, A. Hansen, P. Pracht,
     J. Seibert, S. Spicher, S. Grimme, WIREs Comput. Mol. Sci., 2020, 11,
     e01493. DOI: 10.1002/wcms.1493
   
   for GFN2-xTB:
   * C. Bannwarth, S. Ehlert and S. Grimme., J. Chem. Theory Comput., 2019,
     15, 1652-1671. DOI: 10.1021/acs.jctc.8b01176
   for GFN1-xTB:
   * S. Grimme, C. Bannwarth, P. Shushkov, J. Chem. Theory Comput., 2017,
     13, 1989-2009. DOI: 10.1021/acs.jctc.7b00118
   for GFN0-xTB:
   * P. Pracht, E. Caldeweyher, S. Ehlert, S. Grimme, ChemRxiv, 2019, preprint.
     DOI: 10.26434/chemrxiv.8326202.v1
   for GFN-FF:
   * S. Spicher and S. Grimme, Angew. Chem. Int. Ed., 2020, 59, 15665-15673.
     DOI: 10.1002/anie.202004239
   
   for ALPB and GBSA implicit solvation:
   * S. Ehlert, M. Stahn, S. Spicher, S. Grimme, J. Chem. Theory Comput.,
     2021, 17, 4250-4261. DOI: 10.1021/acs.jctc.1c00471
   
   for ddCOSMO and CPCM-X implicit solvation:
   * M. Stahn, S. Ehlert, S. Grimme, J. Phys. Chem. A,
     2023, XX, XXXX-XXXX. DOI: 10.1021/acs.jpca.3c04382
   
   for DFT-D4:
   * E. Caldeweyher, C. Bannwarth and S. Grimme, J. Chem. Phys., 2017,
     147, 034112. DOI: 10.1063/1.4993215
   * E. Caldeweyher, S. Ehlert, A. Hansen, H. Neugebauer, S. Spicher,
     C. Bannwarth and S. Grimme, J. Chem. Phys., 2019, 150, 154122.
     DOI: 10.1063/1.5090222
   * E. Caldeweyher, J.-M. Mewes, S. Ehlert and S. Grimme, Phys. Chem. Chem. Phys.
     2020, 22, 8499-8512. DOI: 10.1039/D0CP00502A
   
   for sTDA-xTB:
   * S. Grimme and C. Bannwarth, J. Chem. Phys., 2016, 145, 054103.
     DOI: 10.1063/1.4959605
   
   in the mass-spec context:
   * V. Asgeirsson, C. Bauer and S. Grimme, Chem. Sci., 2017, 8, 4879.
     DOI: 10.1039/c7sc00601b
   * J. Koopman and S. Grimme, ACS Omega 2019, 4, 12, 15120-15133.
     DOI: 10.1021/acsomega.9b02011
   
   for metadynamics refer to:
   * S. Grimme, J. Chem. Theory Comput., 2019, 155, 2847-2862
     DOI: 10.1021/acs.jctc.9b00143
   
   for SPH calculations refer to:
   * S. Spicher and S. Grimme, J. Chem. Theory Comput., 2021, 17, 1701-1714
     DOI: 10.1021/acs.jctc.0c01306
   
   for ONIOM refer to:
   * C. Plett, A. Katbashev, S. Ehlert, S. Grimme, M. Bursch,
     Phys. Chem. Chem. Phys., 2023, 25, 17860-17868. DOI: 10.1039/D3CP02178E
   
   for DIPRO refer to:
   * J. Kohn, N. Gildemeister, S. Grimme, D. Fazzi, A. Hansen,
     J. Chem. Phys., 2023, just accepted.
   
   for PTB refer to:
   * S. Grimme, M. Mueller, A. Hansen, J. Chem. Phys., 2023, 158, 124111.
     DOI: 10.1063/5.0137838
   
   with help from (in alphabetical order)
   P. Atkinson, C. Bannwarth, F. Bohle, G. Brandenburg, E. Caldeweyher
   M. Checinski, S. Dohm, S. Ehlert, S. Ehrlich, I. Gerasimov, C. Hölzer
   A. Katbashev, J. Kohn, J. Koopman, C. Lavigne, S. Lehtola, F. März, M. Müller,
   F. Musil, H. Neugebauer, J. Pisarek, C. Plett, P. Pracht, F. Pultar,
   J. Seibert, P. Shushkov, S. Spicher, M. Stahn, M. Steiner, T. Strunk,
   J. Stückrath, T. Rose, and J. Unsleber
   
 * started run on 2024/12/02 at 12:25:10.493     
   ID    Z sym.   atoms
    1    6 C      1-21, 26-39
    2    8 O      22-25
    3    1 H      40-78

           -------------------------------------------------
          |                Calculation Setup                |
           -------------------------------------------------

          program call               : xtb Katherine4.mol --opt --gfn 2 --chrg -1 --uhf 0 --tight
          coordinate file            : Katherine4.mol
          omp threads                :                     8

########################################################################
[WARNING] Please study the warnings concerning your input carefully
-2- prog_main: Charge in sdf/mol input was overwritten
-1- prog_main_parseArguments: Unknown option '--tight' provided
########################################################################

           -------------------------------------------------
          |                 G F N 2 - x T B                 |
           -------------------------------------------------

        Reference                      10.1021/acs.jctc.8b01176
      * Hamiltonian:
        H0-scaling (s, p, d)           1.850000    2.230000    2.230000
        zeta-weighting                 0.500000
      * Dispersion:
        s8                             2.700000
        a1                             0.520000
        a2                             5.000000
        s9                             5.000000
      * Repulsion:
        kExp                           1.500000    1.000000
        rExp                           1.000000
      * Coulomb:
        alpha                          2.000000
        third order                    shell-resolved
        anisotropic                    true
        a3                             3.000000
        a5                             4.000000
        cn-shift                       1.200000
        cn-exp                         4.000000
        max-rad                        5.000000


          ...................................................
          :                      SETUP                      :
          :.................................................:
          :  # basis functions                 195          :
          :  # atomic orbitals                 195          :
          :  # shells                          117          :
          :  # electrons                       204          :
          :  max. iterations                   250          :
          :  Hamiltonian                  GFN2-xTB          :
          :  restarted?                      false          :
          :  GBSA solvation                  false          :
          :  PC potential                    false          :
          :  electronic temp.          300.0000000     K    :
          :  accuracy                    1.0000000          :
          :  -> integral cutoff          0.2500000E+02      :
          :  -> integral neglect         0.1000000E-07      :
          :  -> SCF convergence          0.1000000E-05 Eh   :
          :  -> wf. convergence          0.1000000E-03 e    :
          :  Broyden damping             0.4000000          :
          :  net charge                         -1          :
          :  unpaired electrons                  0          :
          ...................................................

 iter      E             dE          RMSdq      gap      omega  full diag
   1   -112.6731059 -0.112673E+03  0.385E+00    1.39       0.0  T
   2   -112.8576996 -0.184594E+00  0.220E+00    0.73       1.0  T
   3   -112.8089332  0.487664E-01  0.140E+00    1.77       1.0  T
   4   -112.8849250 -0.759918E-01  0.648E-01    0.83       1.0  T
   5   -112.9149058 -0.299807E-01  0.213E-01    1.18       1.0  T
   6   -112.9181913 -0.328558E-02  0.705E-02    1.12       1.0  T
   7   -112.9182004 -0.907993E-05  0.425E-02    1.12       1.0  T
   8   -112.9182607 -0.602459E-04  0.115E-02    1.12       1.0  T
   9   -112.9182680 -0.734631E-05  0.590E-03    1.12       1.9  T
  10   -112.9182699 -0.190919E-05  0.292E-03    1.12       3.9  T
  11   -112.9182702 -0.298872E-06  0.155E-03    1.12       7.3  T
  12   -112.9182703 -0.133612E-06  0.674E-04    1.12      16.8  T
  13   -112.9182704 -0.184313E-07  0.250E-04    1.12      45.2  T

   *** convergence criteria satisfied after 13 iterations ***

         #    Occupation            Energy/Eh            Energy/eV
      -------------------------------------------------------------
         1        2.0000           -0.6070515             -16.5187
       ...           ...                  ...                  ...
        96        2.0000           -0.2720817              -7.4037
        97        2.0000           -0.2668876              -7.2624
        98        2.0000           -0.2600419              -7.0761
        99        2.0000           -0.2532036              -6.8900
       100        2.0000           -0.2435059              -6.6261
       101        2.0000           -0.2382243              -6.4824
       102        2.0000           -0.1947530              -5.2995 (HOMO)
       103                         -0.1535393              -4.1780 (LUMO)
       104                         -0.1235341              -3.3615
       105                         -0.1033771              -2.8130
       106                         -0.0991235              -2.6973
       107                         -0.0909483              -2.4748
       ...                                ...                  ...
       195                          0.8411493              22.8888
      -------------------------------------------------------------
                  HL-Gap            0.0412137 Eh            1.1215 eV
             Fermi-level           -0.1741462 Eh           -4.7388 eV

 SCC (total)                   0 d,  0 h,  0 min,  0.432 sec
 SCC setup                      ...        0 min,  0.000 sec (  0.108%)
 Dispersion                     ...        0 min,  0.001 sec (  0.179%)
 classical contributions        ...        0 min,  0.000 sec (  0.063%)
 integral evaluation            ...        0 min,  0.003 sec (  0.725%)
 iterations                     ...        0 min,  0.411 sec ( 94.997%)
 molecular gradient             ...        0 min,  0.016 sec (  3.724%)
 printout                       ...        0 min,  0.001 sec (  0.202%)

         :::::::::::::::::::::::::::::::::::::::::::::::::::::
         ::                     SUMMARY                     ::
         :::::::::::::::::::::::::::::::::::::::::::::::::::::
         :: total energy            -111.362524107026 Eh    ::
         :: gradient norm              0.220255283209 Eh/a0 ::
         :: HOMO-LUMO gap              1.121482886071 eV    ::
         ::.................................................::
         :: SCC energy              -112.917327645198 Eh    ::
         :: -> isotropic ES            0.169608355704 Eh    ::
         :: -> anisotropic ES          0.038467694781 Eh    ::
         :: -> anisotropic XC          0.038794243817 Eh    ::
         :: -> dispersion             -0.098455726562 Eh    ::
         :: repulsion energy           1.554803538172 Eh    ::
         :: add. restraining           0.000000000000 Eh    ::
         :: total charge              -1.000000000000 e     ::
         :::::::::::::::::::::::::::::::::::::::::::::::::::::

      ----------------------------------------------------------- 
     |                   =====================                   |
     |                        A N C O P T                        |
     |                   =====================                   |
     |               Approximate Normal Coordinate               |
     |                Rational Function Optimizer                |
      ----------------------------------------------------------- 
      ----------------------------------------------------------- 
     |                   =====================                   |
     |                        A N C O P T                        |
     |                   =====================                   |
     |               Approximate Normal Coordinate               |
     |                Rational Function Optimizer                |
      ----------------------------------------------------------- 

          ...................................................
          :                      SETUP                      :
          :.................................................:
          :   optimization level            normal          :
          :   max. optcycles                   234          :
          :   ANC micro-cycles                  20          :
          :   degrees of freedom               228          :
          :.................................................:
          :   RF solver                   davidson          :
          :   write xtbopt.log                true          :
          :   linear?                        false          :
          :   energy convergence         0.5000000E-05 Eh   :
          :   grad. convergence          0.1000000E-02 Eh/α :
          :   maxmium RF displ.          1.0000000          :
          :   Hlow (freq-cutoff)         0.1000000E-01      :
          :   Hmax (freq-cutoff)         5.0000000          :
          :   S6 in model hess.         20.0000000          :
          ...................................................

generating ANC from exact Hessian ...
Using Lindh-Hessian (1995)
 Shifting diagonal of input Hessian by    9.8971643734055547E-003
 Lowest  eigenvalues of input Hessian
    0.000000    0.000000    0.000000    0.000000    0.000000    0.000000
    0.010000    0.010080    0.010108    0.010285    0.010356    0.010471
    0.010880    0.011015    0.011255    0.011370    0.012163    0.012440
 Highest eigenvalues
    1.975688    1.998335    2.048022    2.051655    2.166543    2.194574


........................................................................
.............................. CYCLE    1 ..............................
........................................................................

 iter      E             dE          RMSdq      gap      omega  full diag
   1   -112.9182704 -0.112918E+03  0.108E-04    1.12       0.0  T
   2   -112.9182704 -0.100599E-09  0.697E-05    1.12     162.3  T
   3   -112.9182704 -0.101153E-09  0.500E-05    1.12     226.5  T
     SCC iter.                  ...        0 min,  0.068 sec
     gradient                   ...        0 min,  0.019 sec
 * total energy  :  -111.3625241 Eh     change       -0.1802817E-08 Eh
   gradient norm :     0.2202524 Eh/α   predicted     0.0000000E+00 (-100.00%)
   displ. norm   :     0.4153242 α      lambda       -0.6485822E-01
   maximum displ.:     0.1151273 α      in ANC's #129, #49, #132, ...

........................................................................
.............................. CYCLE    2 ..............................
........................................................................

 iter      E             dE          RMSdq      gap      omega  full diag
   1   -113.0023619 -0.113002E+03  0.293E-01    1.12       0.0  T
   2   -113.0028616 -0.499727E-03  0.238E-01    1.32       1.0  T
   3   -113.0057659 -0.290436E-02  0.113E-01    1.20       1.0  T
   4   -113.0058038 -0.378108E-04  0.485E-02    1.23       1.0  T
   5   -113.0059882 -0.184427E-03  0.885E-03    1.22       1.3  T
   6   -113.0059923 -0.410959E-05  0.431E-03    1.22       2.6  T
   7   -113.0059925 -0.190400E-06  0.164E-03    1.22       6.9  T
   8   -113.0059926 -0.853195E-07  0.555E-04    1.22      20.4  T
   9   -113.0059926 -0.197861E-07  0.227E-04    1.22      49.8  T
     SCC iter.                  ...        0 min,  0.451 sec
     gradient                   ...        0 min,  0.014 sec
 * total energy  :  -111.4082982 Eh     change       -0.4577407E-01 Eh
   gradient norm :     0.0944756 Eh/α   predicted    -0.3803868E-01 ( -16.90%)
   displ. norm   :     0.4182107 α      lambda       -0.2282436E-01
   maximum displ.:     0.1893591 α      in ANC's #49, #19, #84, ...

........................................................................
.............................. CYCLE    3 ..............................
........................................................................

 iter      E             dE          RMSdq      gap      omega  full diag
   1   -113.0643426 -0.113064E+03  0.190E-01    1.26       0.0  T
   2   -113.0647921 -0.449518E-03  0.150E-01    1.36       1.0  T
   3   -113.0655905 -0.798390E-03  0.752E-02    1.31       1.0  T
   4   -113.0655789  0.115721E-04  0.323E-02    1.32       1.0  T
   5   -113.0656799 -0.101006E-03  0.438E-03    1.32       2.6  T
   6   -113.0656807 -0.726684E-06  0.226E-03    1.32       5.0  T
   7   -113.0656807 -0.328303E-07  0.951E-04    1.32      11.9  T
   8   -113.0656807 -0.247643E-07  0.348E-04    1.32      32.6  T
     SCC iter.                  ...        0 min,  0.140 sec
     gradient                   ...        0 min,  0.014 sec
 * total energy  :  -111.4218102 Eh     change       -0.1351201E-01 Eh
   gradient norm :     0.0201364 Eh/α   predicted    -0.1340817E-01 (  -0.77%)
   displ. norm   :     0.3546031 α      lambda       -0.3835199E-02
   maximum displ.:     0.1750045 α      in ANC's #19, #49, #21, ...

........................................................................
.............................. CYCLE    4 ..............................
........................................................................

 iter      E             dE          RMSdq      gap      omega  full diag
   1   -113.0822735 -0.113082E+03  0.104E-01    1.34       0.0  T
   2   -113.0822862 -0.127652E-04  0.626E-02    1.35       1.0  T
   3   -113.0821883  0.979130E-04  0.348E-02    1.33       1.0  T
   4   -113.0823030 -0.114689E-03  0.501E-03    1.34       2.3  T
   5   -113.0823058 -0.281011E-05  0.122E-03    1.34       9.3  T
   6   -113.0823059 -0.447924E-07  0.640E-04    1.34      17.7  T
   7   -113.0823059 -0.113612E-08  0.242E-04    1.34      46.8  T
     SCC iter.                  ...        0 min,  0.163 sec
     gradient                   ...        0 min,  0.015 sec
 * total energy  :  -111.4245071 Eh     change       -0.2696953E-02 Eh
   gradient norm :     0.0138188 Eh/α   predicted    -0.2158743E-02 ( -19.96%)
   displ. norm   :     0.3934511 α      lambda       -0.2006302E-02
   maximum displ.:     0.2183541 α      in ANC's #19, #21, #49, ...

........................................................................
.............................. CYCLE    5 ..............................
........................................................................

 iter      E             dE          RMSdq      gap      omega  full diag
   1   -113.0950569 -0.113095E+03  0.986E-02    1.36       0.0  T
   2   -113.0950620 -0.506370E-05  0.595E-02    1.36       1.0  T
   3   -113.0949636  0.983540E-04  0.293E-02    1.35       1.0  T
   4   -113.0950720 -0.108364E-03  0.393E-03    1.36       2.9  T
   5   -113.0950736 -0.164039E-05  0.120E-03    1.36       9.5  T
   6   -113.0950737 -0.390314E-07  0.695E-04    1.36      16.3  T
   7   -113.0950737 -0.191561E-07  0.303E-04    1.36      37.4  T
     SCC iter.                  ...        0 min,  0.121 sec
     gradient                   ...        0 min,  0.014 sec
 * total energy  :  -111.4258578 Eh     change       -0.1350689E-02 Eh
   gradient norm :     0.0091118 Eh/α   predicted    -0.1158488E-02 ( -14.23%)
   displ. norm   :     0.3284165 α      lambda       -0.7993368E-03
   maximum displ.:     0.1617655 α      in ANC's #19, #8, #11, ...

........................................................................
.............................. CYCLE    6 ..............................
........................................................................

 iter      E             dE          RMSdq      gap      omega  full diag
   1   -113.0985374 -0.113099E+03  0.717E-02    1.36       0.0  T
   2   -113.0985419 -0.450095E-05  0.426E-02    1.36       1.0  T
   3   -113.0985179  0.240431E-04  0.177E-02    1.36       1.0  T
   4   -113.0985451 -0.272394E-04  0.244E-03    1.36       4.6  T
   5   -113.0985457 -0.523658E-06  0.117E-03    1.36       9.7  T
   6   -113.0985458 -0.108154E-06  0.508E-04    1.36      22.3  T
   7   -113.0985458 -0.846264E-08  0.256E-04    1.36      44.2  T
     SCC iter.                  ...        0 min,  0.134 sec
     gradient                   ...        0 min,  0.015 sec
 * total energy  :  -111.4264095 Eh     change       -0.5516717E-03 Eh
   gradient norm :     0.0051522 Eh/α   predicted    -0.4427771E-03 ( -19.74%)
   displ. norm   :     0.2951749 α      lambda       -0.4253313E-03
   maximum displ.:     0.1343846 α      in ANC's #8, #13, #11, ...

........................................................................
.............................. CYCLE    7 ..............................
........................................................................

 iter      E             dE          RMSdq      gap      omega  full diag
   1   -113.0998504 -0.113100E+03  0.560E-02    1.36       0.0  T
   2   -113.0998523 -0.194687E-05  0.339E-02    1.36       1.0  T
   3   -113.0998112  0.410633E-04  0.180E-02    1.36       1.0  T
   4   -113.0998566 -0.454110E-04  0.256E-03    1.36       4.4  T
   5   -113.0998573 -0.632139E-06  0.854E-04    1.36      13.3  T
   6   -113.0998573 -0.209691E-07  0.456E-04    1.36      24.8  T
     SCC iter.                  ...        0 min,  0.114 sec
     gradient                   ...        0 min,  0.014 sec
 * total energy  :  -111.4267145 Eh     change       -0.3049998E-03 Eh
   gradient norm :     0.0047564 Eh/α   predicted    -0.2312011E-03 ( -24.20%)
   displ. norm   :     0.2773854 α      lambda       -0.2847812E-03
   maximum displ.:     0.1348127 α      in ANC's #8, #1, #13, ...

........................................................................
.............................. CYCLE    8 ..............................
........................................................................

 iter      E             dE          RMSdq      gap      omega  full diag
   1   -113.0991371 -0.113099E+03  0.466E-02    1.36       0.0  T
   2   -113.0991384 -0.126313E-05  0.279E-02    1.36       1.0  T
   3   -113.0991227  0.156679E-04  0.110E-02    1.36       1.0  T
   4   -113.0991397 -0.170114E-04  0.177E-03    1.36       6.4  T
   5   -113.0991400 -0.285025E-06  0.756E-04    1.36      15.0  T
   6   -113.0991400 -0.192282E-07  0.367E-04    1.36      30.9  T
     SCC iter.                  ...        0 min,  0.118 sec
     gradient                   ...        0 min,  0.015 sec
 * total energy  :  -111.4269278 Eh     change       -0.2132822E-03 Eh
   gradient norm :     0.0047001 Eh/α   predicted    -0.1533470E-03 ( -28.10%)
   displ. norm   :     0.2726386 α      lambda       -0.2228801E-03
   maximum displ.:     0.1348810 α      in ANC's #1, #8, #13, ...

........................................................................
.............................. CYCLE    9 ..............................
........................................................................

 iter      E             dE          RMSdq      gap      omega  full diag
   1   -113.0982737 -0.113098E+03  0.419E-02    1.36       0.0  T
   2   -113.0982747 -0.101165E-05  0.251E-02    1.36       1.0  T
   3   -113.0982595  0.152000E-04  0.112E-02    1.36       1.0  T
   4   -113.0982761 -0.165849E-04  0.172E-03    1.36       6.6  T
   5   -113.0982764 -0.278164E-06  0.705E-04    1.36      16.1  T
   6   -113.0982764 -0.131515E-07  0.329E-04    1.36      34.4  T
     SCC iter.                  ...        0 min,  0.103 sec
     gradient                   ...        0 min,  0.017 sec
 * total energy  :  -111.4270940 Eh     change       -0.1661967E-03 Eh
   gradient norm :     0.0037428 Eh/α   predicted    -0.1197241E-03 ( -27.96%)
   displ. norm   :     0.2452799 α      lambda       -0.1560831E-03
   maximum displ.:     0.1379722 α      in ANC's #1, #8, #13, ...

........................................................................
.............................. CYCLE   10 ..............................
........................................................................

 iter      E             dE          RMSdq      gap      omega  full diag
   1   -113.0976536 -0.113098E+03  0.347E-02    1.36       0.0  T
   2   -113.0976546 -0.974207E-06  0.205E-02    1.36       1.0  T
   3   -113.0976528  0.172182E-05  0.543E-03    1.36       2.1  T
   4   -113.0976549 -0.201703E-05  0.113E-03    1.36      10.0  T
   5   -113.0976549 -0.694172E-07  0.578E-04    1.36      19.6  T
   6   -113.0976549 -0.147748E-07  0.287E-04    1.36      39.4  T
     SCC iter.                  ...        0 min,  0.113 sec
     gradient                   ...        0 min,  0.015 sec
 * total energy  :  -111.4272100 Eh     change       -0.1159796E-03 Eh
   gradient norm :     0.0025698 Eh/α   predicted    -0.8277710E-04 ( -28.63%)
   displ. norm   :     0.1973618 α      lambda       -0.1043325E-03
   maximum displ.:     0.1240294 α      in ANC's #1, #8, #3, ...

........................................................................
.............................. CYCLE   11 ..............................
........................................................................

 iter      E             dE          RMSdq      gap      omega  full diag
   1   -113.0976501 -0.113098E+03  0.248E-02    1.36       0.0  T
   2   -113.0976506 -0.418545E-06  0.145E-02    1.36       1.0  T
   3   -113.0976488  0.172101E-05  0.446E-03    1.36       2.5  T
   4   -113.0976507 -0.187897E-05  0.976E-04    1.36      11.6  T
   5   -113.0976508 -0.901059E-07  0.439E-04    1.36      25.8  T
   6   -113.0976508 -0.594736E-08  0.218E-04    1.36      51.8  T
     SCC iter.                  ...        0 min,  0.144 sec
     gradient                   ...        0 min,  0.014 sec
 * total energy  :  -111.4272922 Eh     change       -0.8223728E-04 Eh
   gradient norm :     0.0023423 Eh/α   predicted    -0.5420199E-04 ( -34.09%)
   displ. norm   :     0.1891014 α      lambda       -0.9448322E-04
   maximum displ.:     0.1243877 α      in ANC's #1, #3, #2, ...

........................................................................
.............................. CYCLE   12 ..............................
........................................................................

 iter      E             dE          RMSdq      gap      omega  full diag
   1   -113.0980192 -0.113098E+03  0.211E-02    1.36       0.0  T
   2   -113.0980195 -0.296715E-06  0.126E-02    1.36       1.0  T
   3   -113.0980139  0.553619E-05  0.677E-03    1.36       1.7  T
   4   -113.0980201 -0.612320E-05  0.983E-04    1.36      11.5  T
   5   -113.0980202 -0.981378E-07  0.368E-04    1.36      30.8  T
   6   -113.0980202 -0.171866E-08  0.194E-04    1.36      58.3  T
     SCC iter.                  ...        0 min,  0.153 sec
     gradient                   ...        0 min,  0.018 sec
 * total energy  :  -111.4273717 Eh     change       -0.7950642E-04 Eh
   gradient norm :     0.0027096 Eh/α   predicted    -0.4893494E-04 ( -38.45%)
   displ. norm   :     0.2298869 α      lambda       -0.1121521E-03
   maximum displ.:     0.1502263 α      in ANC's #1, #3, #2, ...

........................................................................
.............................. CYCLE   13 ..............................
........................................................................

 iter      E             dE          RMSdq      gap      omega  full diag
   1   -113.0983194 -0.113098E+03  0.239E-02    1.36       0.0  T
   2   -113.0983196 -0.243093E-06  0.144E-02    1.36       1.0  T
   3   -113.0983120  0.765838E-05  0.780E-03    1.36       1.5  T
   4   -113.0983205 -0.846369E-05  0.930E-04    1.36      12.2  T
   5   -113.0983205 -0.721393E-07  0.404E-04    1.36      28.0  T
   6   -113.0983205 -0.165515E-08  0.216E-04    1.36      52.4  T
     SCC iter.                  ...        0 min,  0.112 sec
     gradient                   ...        0 min,  0.017 sec
 * total energy  :  -111.4274687 Eh     change       -0.9696091E-04 Eh
   gradient norm :     0.0030920 Eh/α   predicted    -0.5904661E-04 ( -39.10%)
   displ. norm   :     0.2971570 α      lambda       -0.1366145E-03
   maximum displ.:     0.1931479 α      in ANC's #1, #3, #2, ...

........................................................................
.............................. CYCLE   14 ..............................
........................................................................

 iter      E             dE          RMSdq      gap      omega  full diag
   1   -113.0983992 -0.113098E+03  0.302E-02    1.36       0.0  T
   2   -113.0983996 -0.365998E-06  0.182E-02    1.36       1.0  T
   3   -113.0983886  0.109680E-04  0.937E-03    1.36       1.2  T
   4   -113.0984007 -0.120770E-04  0.113E-03    1.36      10.1  T
   5   -113.0984008 -0.103029E-06  0.527E-04    1.36      21.5  T
   6   -113.0984008 -0.540794E-08  0.275E-04    1.36      41.2  T
     SCC iter.                  ...        0 min,  0.103 sec
     gradient                   ...        0 min,  0.015 sec
 * total energy  :  -111.4275867 Eh     change       -0.1180636E-03 Eh
   gradient norm :     0.0030902 Eh/α   predicted    -0.7434120E-04 ( -37.03%)
   displ. norm   :     0.3437282 α      lambda       -0.1437114E-03
   maximum displ.:     0.2254161 α      in ANC's #1, #3, #2, ...

........................................................................
.............................. CYCLE   15 ..............................
........................................................................

 iter      E             dE          RMSdq      gap      omega  full diag
   1   -113.0981894 -0.113098E+03  0.344E-02    1.36       0.0  T
   2   -113.0981898 -0.381313E-06  0.205E-02    1.36       1.0  T
   3   -113.0981837  0.614873E-05  0.718E-03    1.36       1.6  T
   4   -113.0981904 -0.671780E-05  0.106E-03    1.36      10.7  T
   5   -113.0981904 -0.679850E-07  0.594E-04    1.36      19.1  T
   6   -113.0981905 -0.108280E-07  0.247E-04    1.36      45.8  T
     SCC iter.                  ...        0 min,  0.108 sec
     gradient                   ...        0 min,  0.015 sec
 * total energy  :  -111.4277101 Eh     change       -0.1233514E-03 Eh
   gradient norm :     0.0027355 Eh/α   predicted    -0.8035084E-04 ( -34.86%)
   displ. norm   :     0.3535302 α      lambda       -0.1326407E-03
   maximum displ.:     0.2351282 α      in ANC's #1, #3, #2, ...

........................................................................
.............................. CYCLE   16 ..............................
........................................................................

 iter      E             dE          RMSdq      gap      omega  full diag
   1   -113.0980958 -0.113098E+03  0.354E-02    1.36       0.0  T
   2   -113.0980962 -0.412046E-06  0.210E-02    1.36       1.0  T
   3   -113.0980939  0.235428E-05  0.488E-03    1.36       2.3  T
   4   -113.0980965 -0.264839E-05  0.951E-04    1.36      11.9  T
   5   -113.0980965 -0.346538E-07  0.593E-04    1.36      19.1  T
   6   -113.0980966 -0.142928E-07  0.250E-04    1.36      45.3  T
     SCC iter.                  ...        0 min,  0.114 sec
     gradient                   ...        0 min,  0.017 sec
 * total energy  :  -111.4278242 Eh     change       -0.1141458E-03 Eh
   gradient norm :     0.0025394 Eh/α   predicted    -0.7461302E-04 ( -34.63%)
   displ. norm   :     0.3517351 α      lambda       -0.1214185E-03
   maximum displ.:     0.2365124 α      in ANC's #1, #3, #2, ...

........................................................................
.............................. CYCLE   17 ..............................
........................................................................

 iter      E             dE          RMSdq      gap      omega  full diag
   1   -113.0982004 -0.113098E+03  0.349E-02    1.36       0.0  T
   2   -113.0982008 -0.416604E-06  0.207E-02    1.36       1.0  T
   3   -113.0982001  0.693110E-06  0.301E-03    1.36       3.8  T
   4   -113.0982010 -0.870268E-06  0.859E-04    1.36      13.2  T
   5   -113.0982010 -0.230990E-07  0.500E-04    1.36      22.6  T
     SCC iter.                  ...        0 min,  0.096 sec
     gradient                   ...        0 min,  0.014 sec
 * total energy  :  -111.4279297 Eh     change       -0.1054944E-03 Eh
   gradient norm :     0.0025184 Eh/α   predicted    -0.6822471E-04 ( -35.33%)
   displ. norm   :     0.3665253 α      lambda       -0.1177276E-03
   maximum displ.:     0.2475385 α      in ANC's #1, #3, #2, ...

........................................................................
.............................. CYCLE   18 ..............................
........................................................................

 iter      E             dE          RMSdq      gap      omega  full diag
   1   -113.0983732 -0.113098E+03  0.363E-02    1.36       0.0  T
   2   -113.0983736 -0.406401E-06  0.215E-02    1.36       1.0  T
   3   -113.0983734  0.227597E-06  0.220E-03    1.36       5.2  T
   4   -113.0983738 -0.376964E-06  0.818E-04    1.36      13.8  T
   5   -113.0983738 -0.136500E-07  0.467E-04    1.36      24.2  T
     SCC iter.                  ...        0 min,  0.090 sec
     gradient                   ...        0 min,  0.015 sec
 * total energy  :  -111.4280320 Eh     change       -0.1023054E-03 Eh
   gradient norm :     0.0025952 Eh/α   predicted    -0.6677555E-04 ( -34.73%)
   displ. norm   :     0.3925558 α      lambda       -0.1149287E-03
   maximum displ.:     0.2659198 α      in ANC's #1, #3, #2, ...

........................................................................
.............................. CYCLE   19 ..............................
........................................................................

 iter      E             dE          RMSdq      gap      omega  full diag
   1   -113.0984946 -0.113098E+03  0.376E-02    1.36       0.0  T
   2   -113.0984951 -0.435397E-06  0.223E-02    1.36       1.0  T
   3   -113.0984947  0.393031E-06  0.246E-03    1.36       4.6  T
   4   -113.0984952 -0.517799E-06  0.971E-04    1.36      11.7  T
   5   -113.0984952 -0.443574E-07  0.556E-04    1.36      20.4  T
     SCC iter.                  ...        0 min,  0.145 sec
     gradient                   ...        0 min,  0.015 sec
 * total energy  :  -111.4281296 Eh     change       -0.9760923E-04 Eh
   gradient norm :     0.0023939 Eh/α   predicted    -0.6632012E-04 ( -32.06%)
   displ. norm   :     0.3872205 α      lambda       -0.9688585E-04
   maximum displ.:     0.2635380 α      in ANC's #1, #3, #2, ...

........................................................................
.............................. CYCLE   20 ..............................
........................................................................

 iter      E             dE          RMSdq      gap      omega  full diag
   1   -113.0984478 -0.113098E+03  0.363E-02    1.36       0.0  T
   2   -113.0984481 -0.342695E-06  0.215E-02    1.36       1.0  T
   3   -113.0984467  0.138389E-05  0.351E-03    1.36       3.2  T
   4   -113.0984483 -0.154277E-05  0.991E-04    1.36      11.4  T
   5   -113.0984483 -0.604880E-07  0.520E-04    1.36      21.8  T
   6   -113.0984483 -0.744667E-08  0.181E-04    1.36      62.5  T
     SCC iter.                  ...        0 min,  0.151 sec
     gradient                   ...        0 min,  0.014 sec
 * total energy  :  -111.4282088 Eh     change       -0.7921228E-04 Eh
   gradient norm :     0.0018709 Eh/α   predicted    -0.5570729E-04 ( -29.67%)
   displ. norm   :     0.4905393 α      lambda       -0.6605042E-04
   maximum displ.:     0.3375474 α      in ANC's #1, #3, #2, ...
 * RMSD in coord.:     0.5454057 α      energy gain  -0.6568474E-01 Eh

generating ANC from exact Hessian ...
Using Lindh-Hessian (1995)
 Shifting diagonal of input Hessian by    9.8591836854207606E-003
 Lowest  eigenvalues of input Hessian
    0.000000    0.000000    0.000000    0.000000    0.000000    0.000000
    0.010000    0.010099    0.010152    0.010326    0.010403    0.010514
    0.010987    0.011132    0.011384    0.011466    0.012544    0.012632
 Highest eigenvalues
    2.014912    2.040699    2.093023    2.095432    2.192476    2.220795


........................................................................
.............................. CYCLE   21 ..............................
........................................................................

 iter      E             dE          RMSdq      gap      omega  full diag
   1   -113.0986968 -0.113099E+03  0.431E-02    1.36       0.0  T
   2   -113.0986973 -0.517675E-06  0.256E-02    1.36       1.0  T
   3   -113.0986914  0.588938E-05  0.663E-03    1.36       1.7  T
   4   -113.0986978 -0.637857E-05  0.119E-03    1.36       9.5  T
   5   -113.0986979 -0.961823E-07  0.583E-04    1.36      19.4  T
   6   -113.0986979 -0.286438E-08  0.209E-04    1.36      54.1  T
     SCC iter.                  ...        0 min,  0.114 sec
     gradient                   ...        0 min,  0.014 sec
 * total energy  :  -111.4282768 Eh     change       -0.6792465E-04 Eh
   gradient norm :     0.0017237 Eh/α   predicted     0.0000000E+00 (-100.00%)
   displ. norm   :     0.0427818 α      lambda       -0.1621768E-04
   maximum displ.:     0.0249932 α      in ANC's #1, #20, #8, ...

........................................................................
.............................. CYCLE   22 ..............................
........................................................................

 iter      E             dE          RMSdq      gap      omega  full diag
   1   -113.0992490 -0.113099E+03  0.666E-03    1.36       0.0  T
   2   -113.0992491 -0.102642E-06  0.392E-03    1.36       2.9  T
   3   -113.0992488  0.226007E-06  0.174E-03    1.36       6.5  T
   4   -113.0992491 -0.245016E-06  0.496E-04    1.36      22.8  T
   5   -113.0992491 -0.298407E-07  0.165E-04    1.36      68.5  T
     SCC iter.                  ...        0 min,  0.129 sec
     gradient                   ...        0 min,  0.019 sec
 * total energy  :  -111.4282951 Eh     change       -0.1831360E-04 Eh
   gradient norm :     0.0006063 Eh/α   predicted    -0.8129697E-05 ( -55.61%)
   displ. norm   :     0.0953402 α      lambda       -0.2025799E-04
   maximum displ.:     0.0566646 α      in ANC's #1, #4, #7, ...

........................................................................
.............................. CYCLE   23 ..............................
........................................................................

 iter      E             dE          RMSdq      gap      omega  full diag
   1   -113.0996672 -0.113100E+03  0.121E-02    1.36       0.0  T
   2   -113.0996674 -0.151571E-06  0.720E-03    1.36       1.6  T
   3   -113.0996665  0.818019E-06  0.289E-03    1.36       3.9  T
   4   -113.0996674 -0.880794E-06  0.678E-04    1.36      16.7  T
   5   -113.0996675 -0.517780E-07  0.230E-04    1.36      49.3  T
     SCC iter.                  ...        0 min,  0.143 sec
     gradient                   ...        0 min,  0.016 sec
 * total energy  :  -111.4283169 Eh     change       -0.2180937E-04 Eh
   gradient norm :     0.0011610 Eh/α   predicted    -0.1017098E-04 ( -53.36%)
   displ. norm   :     0.1036375 α      lambda       -0.1440197E-04
   maximum displ.:     0.0660547 α      in ANC's #1, #4, #7, ...

........................................................................
.............................. CYCLE   24 ..............................
........................................................................

 iter      E             dE          RMSdq      gap      omega  full diag
   1   -113.0997132 -0.113100E+03  0.119E-02    1.36       0.0  T
   2   -113.0997132 -0.657596E-07  0.712E-03    1.36       1.6  T
   3   -113.0997131  0.170094E-06  0.146E-03    1.36       7.8  T
   4   -113.0997133 -0.193177E-06  0.393E-04    1.36      28.8  T
   5   -113.0997133 -0.928954E-08  0.193E-04    1.36      58.5  T
     SCC iter.                  ...        0 min,  0.104 sec
     gradient                   ...        0 min,  0.015 sec
 * total energy  :  -111.4283334 Eh     change       -0.1646983E-04 Eh
   gradient norm :     0.0011028 Eh/α   predicted    -0.7235661E-05 ( -56.07%)
   displ. norm   :     0.1098600 α      lambda       -0.1366870E-04
   maximum displ.:     0.0723168 α      in ANC's #1, #4, #7, ...

........................................................................
.............................. CYCLE   25 ..............................
........................................................................

 iter      E             dE          RMSdq      gap      omega  full diag
   1   -113.0996113 -0.113100E+03  0.120E-02    1.36       0.0  T
   2   -113.0996113 -0.303093E-07  0.723E-03    1.36       1.6  T
   3   -113.0996107  0.638671E-06  0.220E-03    1.36       5.1  T
   4   -113.0996114 -0.694297E-06  0.313E-04    1.36      36.2  T
   5   -113.0996114 -0.263069E-08  0.185E-04    1.36      61.3  T
     SCC iter.                  ...        0 min,  0.112 sec
     gradient                   ...        0 min,  0.014 sec
 * total energy  :  -111.4283501 Eh     change       -0.1672569E-04 Eh
   gradient norm :     0.0007431 Eh/α   predicted    -0.6872099E-05 ( -58.91%)
   displ. norm   :     0.1323445 α      lambda       -0.1609835E-04
   maximum displ.:     0.0875711 α      in ANC's #1, #4, #7, ...

........................................................................
.............................. CYCLE   26 ..............................
........................................................................

 iter      E             dE          RMSdq      gap      omega  full diag
   1   -113.0993640 -0.113099E+03  0.145E-02    1.36       0.0  T
   2   -113.0993641 -0.590334E-07  0.870E-03    1.36       1.3  T
   3   -113.0993632  0.857548E-06  0.259E-03    1.36       4.4  T
   4   -113.0993642 -0.929789E-06  0.433E-04    1.36      26.2  T
   5   -113.0993642 -0.119095E-07  0.232E-04    1.36      48.9  T
     SCC iter.                  ...        0 min,  0.135 sec
     gradient                   ...        0 min,  0.015 sec
 * total energy  :  -111.4283700 Eh     change       -0.1994006E-04 Eh
   gradient norm :     0.0005741 Eh/α   predicted    -0.8114365E-05 ( -59.31%)
   displ. norm   :     0.1540866 α      lambda       -0.1688375E-04
   maximum displ.:     0.1022644 α      in ANC's #1, #4, #7, ...

........................................................................
.............................. CYCLE   27 ..............................
........................................................................

 iter      E             dE          RMSdq      gap      omega  full diag
   1   -113.0991885 -0.113099E+03  0.166E-02    1.36       0.0  T
   2   -113.0991886 -0.712101E-07  0.992E-03    1.36       1.1  T
   3   -113.0991877  0.924619E-06  0.268E-03    1.36       4.2  T
   4   -113.0991887 -0.100101E-05  0.464E-04    1.36      24.4  T
   5   -113.0991887 -0.146973E-07  0.243E-04    1.36      46.6  T
   6   -113.0991887 -0.134109E-08  0.103E-04    1.36     110.1  T
     SCC iter.                  ...        0 min,  0.127 sec
     gradient                   ...        0 min,  0.018 sec
 * total energy  :  -111.4283905 Eh     change       -0.2050568E-04 Eh
   gradient norm :     0.0007868 Eh/α   predicted    -0.8534352E-05 ( -58.38%)
   displ. norm   :     0.1574912 α      lambda       -0.1460399E-04
   maximum displ.:     0.1053552 α      in ANC's #1, #4, #7, ...

........................................................................
.............................. CYCLE   28 ..............................
........................................................................

 iter      E             dE          RMSdq      gap      omega  full diag
   1   -113.0991894 -0.113099E+03  0.165E-02    1.36       0.0  T
   2   -113.0991894 -0.688870E-07  0.984E-03    1.36       1.2  T
   3   -113.0991893  0.822613E-07  0.116E-03    1.36       9.8  T
   4   -113.0991895 -0.111212E-06  0.318E-04    1.36      35.6  T
   5   -113.0991895 -0.119789E-08  0.176E-04    1.36      64.5  T
     SCC iter.                  ...        0 min,  0.114 sec
     gradient                   ...        0 min,  0.015 sec
 * total energy  :  -111.4284081 Eh     change       -0.1760511E-04 Eh
   gradient norm :     0.0007032 Eh/α   predicted    -0.7382963E-05 ( -58.06%)
   displ. norm   :     0.1386817 α      lambda       -0.1144473E-04
   maximum displ.:     0.0942843 α      in ANC's #1, #4, #7, ...

........................................................................
.............................. CYCLE   29 ..............................
........................................................................

 iter      E             dE          RMSdq      gap      omega  full diag
   1   -113.0993377 -0.113099E+03  0.138E-02    1.36       0.0  T
   2   -113.0993378 -0.358533E-07  0.825E-03    1.36       1.4  T
   3   -113.0993375  0.260012E-06  0.152E-03    1.36       7.4  T
   4   -113.0993378 -0.285856E-06  0.317E-04    1.36      35.8  T
   5   -113.0993378 -0.458817E-08  0.178E-04    1.36      63.6  T
     SCC iter.                  ...        0 min,  0.097 sec
     gradient                   ...        0 min,  0.017 sec
 * total energy  :  -111.4284223 Eh     change       -0.1413722E-04 Eh
   gradient norm :     0.0005373 Eh/α   predicted    -0.5773881E-05 ( -59.16%)
   displ. norm   :     0.1198851 α      lambda       -0.9371763E-05
   maximum displ.:     0.0835020 α      in ANC's #1, #4, #8, ...

........................................................................
.............................. CYCLE   30 ..............................
........................................................................

 iter      E             dE          RMSdq      gap      omega  full diag
   1   -113.0995326 -0.113100E+03  0.115E-02    1.36       0.0  T
   2   -113.0995326 -0.239641E-07  0.689E-03    1.36       1.6  T
   3   -113.0995322  0.467702E-06  0.191E-03    1.36       5.9  T
   4   -113.0995327 -0.505496E-06  0.273E-04    1.36      41.5  T
   5   -113.0995327 -0.358102E-08  0.153E-04    1.36      74.1  T
     SCC iter.                  ...        0 min,  0.102 sec
     gradient                   ...        0 min,  0.015 sec
 * total energy  :  -111.4284344 Eh     change       -0.1209636E-04 Eh
   gradient norm :     0.0003467 Eh/α   predicted    -0.4717974E-05 ( -61.00%)
   displ. norm   :     0.1129273 α      lambda       -0.8846427E-05
   maximum displ.:     0.0798638 α      in ANC's #1, #4, #8, ...

........................................................................
.............................. CYCLE   31 ..............................
........................................................................

 iter      E             dE          RMSdq      gap      omega  full diag
   1   -113.0996495 -0.113100E+03  0.109E-02    1.36       0.0  T
   2   -113.0996495 -0.200211E-07  0.656E-03    1.36       1.7  T
   3   -113.0996488  0.710584E-06  0.231E-03    1.36       4.9  T
   4   -113.0996495 -0.766621E-06  0.266E-04    1.36      42.6  T
   5   -113.0996495 -0.340928E-08  0.147E-04    1.36      76.9  T
     SCC iter.                  ...        0 min,  0.099 sec
     gradient                   ...        0 min,  0.014 sec
 * total energy  :  -111.4284458 Eh     change       -0.1138400E-04 Eh
   gradient norm :     0.0003580 Eh/α   predicted    -0.4452485E-05 ( -60.89%)
   displ. norm   :     0.1116192 α      lambda       -0.8259117E-05
   maximum displ.:     0.0797956 α      in ANC's #1, #4, #8, ...

........................................................................
.............................. CYCLE   32 ..............................
........................................................................

 iter      E             dE          RMSdq      gap      omega  full diag
   1   -113.0996596 -0.113100E+03  0.110E-02    1.36       0.0  T
   2   -113.0996596 -0.206149E-07  0.659E-03    1.36       1.7  T
   3   -113.0996594  0.238416E-06  0.139E-03    1.36       8.1  T
   4   -113.0996596 -0.260154E-06  0.244E-04    1.36      46.5  T
   5   -113.0996596 -0.206610E-08  0.148E-04    1.36      76.7  T
     SCC iter.                  ...        0 min,  0.093 sec
     gradient                   ...        0 min,  0.019 sec
 * total energy  :  -111.4284559 Eh     change       -0.1009506E-04 Eh
   gradient norm :     0.0004020 Eh/α   predicted    -0.4152665E-05 ( -58.86%)
   displ. norm   :     0.0942744 α      lambda       -0.6221498E-05
   maximum displ.:     0.0688932 α      in ANC's #1, #4, #8, ...

........................................................................
.............................. CYCLE   33 ..............................
........................................................................

 iter      E             dE          RMSdq      gap      omega  full diag
   1   -113.0996024 -0.113100E+03  0.967E-03    1.36       0.0  T
   2   -113.0996024 -0.142222E-07  0.580E-03    1.36       2.0  T
   3   -113.0996022  0.223468E-06  0.131E-03    1.36       8.7  T
   4   -113.0996024 -0.242858E-06  0.207E-04    1.36      54.6  T
   5   -113.0996024 -0.134909E-08  0.122E-04    1.36      92.5  T
     SCC iter.                  ...        0 min,  0.093 sec
     gradient                   ...        0 min,  0.018 sec
 * total energy  :  -111.4284632 Eh     change       -0.7379687E-05 Eh
   gradient norm :     0.0003779 Eh/α   predicted    -0.3123414E-05 ( -57.68%)
   displ. norm   :     0.0668198 α      lambda       -0.4065610E-05
   maximum displ.:     0.0502232 α      in ANC's #1, #4, #2, ...

........................................................................
.............................. CYCLE   34 ..............................
........................................................................

 iter      E             dE          RMSdq      gap      omega  full diag
   1   -113.0995332 -0.113100E+03  0.698E-03    1.36       0.0  T
   2   -113.0995332 -0.745996E-08  0.416E-03    1.36       2.7  T
   3   -113.0995331  0.483830E-07  0.647E-04    1.36      17.5  T
   4   -113.0995332 -0.539883E-07  0.140E-04    1.36      81.0  T
     SCC iter.                  ...        0 min,  0.079 sec
     gradient                   ...        0 min,  0.014 sec
 * total energy  :  -111.4284684 Eh     change       -0.5180671E-05 Eh
   gradient norm :     0.0002293 Eh/α   predicted    -0.2037720E-05 ( -60.67%)
   displ. norm   :     0.0545838 α      lambda       -0.3432020E-05
   maximum displ.:     0.0411613 α      in ANC's #1, #3, #2, ...

........................................................................
.............................. CYCLE   35 ..............................
........................................................................

 iter      E             dE          RMSdq      gap      omega  full diag
   1   -113.0994874 -0.113099E+03  0.586E-03    1.36       0.0  T
   2   -113.0994874 -0.410277E-08  0.349E-03    1.36       3.2  T
   3   -113.0994873  0.976447E-07  0.842E-04    1.36      13.4  T
   4   -113.0994874 -0.105739E-06  0.108E-04    1.36     104.7  T
     SCC iter.                  ...        0 min,  0.085 sec
     gradient                   ...        0 min,  0.014 sec
 * total energy  :  -111.4284731 Eh     change       -0.4645861E-05 Eh
   gradient norm :     0.0001796 Eh/α   predicted    -0.1721922E-05 ( -62.94%)
   displ. norm   :     0.0592057 α      lambda       -0.3834246E-05
   maximum displ.:     0.0427948 α      in ANC's #1, #3, #2, ...

   *** GEOMETRY OPTIMIZATION CONVERGED AFTER 35 ITERATIONS ***

------------------------------------------------------------------------
 total energy gain   :        -0.0659490 Eh      -41.3836 kcal/mol
 total RMSD          :         0.6173698 a0        0.3267 Å
 total power (kW/mol):        -4.9471127 (step)  -33.4116 (real)
------------------------------------------------------------------------

 ANCopt (total)                0 d,  0 h,  0 min,  5.182 sec
 optimizer setup                ...        0 min,  0.000 sec (  0.008%)
 model hessian                  ...        0 min,  0.057 sec (  1.109%)
 ANC generation                 ...        0 min,  0.029 sec (  0.564%)
 coordinate transformation      ...        0 min,  0.001 sec (  0.021%)
 single point calculation       ...        0 min,  5.079 sec ( 98.003%)
 optimization log               ...        0 min,  0.005 sec (  0.104%)
 hessian update                 ...        0 min,  0.002 sec (  0.045%)
 rational function              ...        0 min,  0.006 sec (  0.120%)

================
 final structure:
================
 xtb: 6.7.1 (edcfbbe)
          12022412253D

 78 82  0     0  0            999 V2000
   -0.9359    1.8427   -0.1891 C   0  0  0  0  0  0  0  0  0  0  0  0
   -0.9836    0.4735   -0.0834 C   0  0  0  0  0  0  0  0  0  0  0  0
   -0.0248   -0.2295    0.6969 C   0  0  0  0  0  0  0  0  0  0  0  0
    1.0877    0.5167    1.1342 C   0  0  0  0  0  0  0  0  0  0  0  0
    1.1123    1.9116    1.0080 C   0  0  0  0  0  0  0  0  0  0  0  0
    0.0903    2.6001    0.4036 C   0  0  0  0  0  0  0  0  0  0  0  0
   -0.0860   -1.6360    0.9337 C   0  0  0  0  0  0  0  0  0  0  0  0
    1.1315   -2.3009    1.1733 C   0  0  0  0  0  0  0  0  0  0  0  0
    2.3058   -1.5888    1.5239 C   0  0  0  0  0  0  0  0  0  0  0  0
    2.2749   -0.1383    1.6767 C   0  0  0  0  0  0  0  0  0  0  0  0
   -1.2771   -2.4227    0.9620 C   0  0  0  0  0  0  0  0  0  0  0  0
   -1.2111   -3.8196    0.7829 C   0  0  0  0  0  0  0  0  0  0  0  0
    0.0703   -4.5162    0.7105 C   0  0  0  0  0  0  0  0  0  0  0  0
    1.2324   -3.7122    1.0750 C   0  0  0  0  0  0  0  0  0  0  0  0
    2.4490   -4.3413    1.2959 C   0  0  0  0  0  0  0  0  0  0  0  0
    3.5998   -3.6451    1.6495 C   0  0  0  0  0  0  0  0  0  0  0  0
    3.4955   -2.2668    1.7660 C   0  0  0  0  0  0  0  0  0  0  0  0
   -2.5528   -1.8941    1.3030 C   0  0  0  0  0  0  0  0  0  0  0  0
   -3.6786   -2.6800    1.2470 C   0  0  0  0  0  0  0  0  0  0  0  0
   -3.6199   -4.0460    0.9189 C   0  0  0  0  0  0  0  0  0  0  0  0
   -2.3760   -4.5967    0.7362 C   0  0  0  0  0  0  0  0  0  0  0  0
   -2.5657   -0.6018    1.7766 O   0  0  0  0  0  0  0  0  0  0  0  0
   -1.8811   -0.3039   -0.7804 O   0  0  0  0  0  0  0  0  0  0  0  0
    3.2152    0.4981    2.1738 O   0  0  0  0  0  0  0  0  0  0  0  0
    0.1583   -5.7191    0.4255 O   0  0  0  0  0  0  0  0  0  0  0  0
   -3.7840   -0.0198    2.1248 C   0  0  0  0  0  0  0  0  0  0  0  0
   -2.8197    0.3204   -1.6012 C   0  0  0  0  0  0  0  0  0  0  0  0
   -4.9146   -4.8422    0.8458 C   0  0  0  0  0  0  0  0  0  0  0  0
   -4.6742   -6.3028    0.4554 C   0  0  0  0  0  0  0  0  0  0  0  0
   -5.6074   -4.8233    2.2165 C   0  0  0  0  0  0  0  0  0  0  0  0
   -5.8378   -4.2139   -0.2081 C   0  0  0  0  0  0  0  0  0  0  0  0
    0.0422    4.1174    0.3008 C   0  0  0  0  0  0  0  0  0  0  0  0
   -1.2643    4.6240    0.9291 C   0  0  0  0  0  0  0  0  0  0  0  0
    1.2090    4.7829    1.0354 C   0  0  0  0  0  0  0  0  0  0  0  0
    0.1034    4.5390   -1.1745 C   0  0  0  0  0  0  0  0  0  0  0  0
    4.8944   -4.4080    1.8916 C   0  0  0  0  0  0  0  0  0  0  0  0
    6.0581   -3.4860    2.2659 C   0  0  0  0  0  0  0  0  0  0  0  0
    5.2762   -5.1688    0.6140 C   0  0  0  0  0  0  0  0  0  0  0  0
    4.6818   -5.4044    3.0400 C   0  0  0  0  0  0  0  0  0  0  0  0
    5.5954   -5.9668    3.2322 H   0  0  0  0  0  0  0  0  0  0  0  0
    3.8883   -6.1076    2.8028 H   0  0  0  0  0  0  0  0  0  0  0  0
    4.4041   -4.8727    3.9480 H   0  0  0  0  0  0  0  0  0  0  0  0
    6.9594   -4.0776    2.4265 H   0  0  0  0  0  0  0  0  0  0  0  0
    5.8420   -2.9404    3.1813 H   0  0  0  0  0  0  0  0  0  0  0  0
    6.2576   -2.7714    1.4709 H   0  0  0  0  0  0  0  0  0  0  0  0
    6.1990   -5.7291    0.7643 H   0  0  0  0  0  0  0  0  0  0  0  0
    5.4249   -4.4690   -0.2061 H   0  0  0  0  0  0  0  0  0  0  0  0
    4.4935   -5.8653    0.3268 H   0  0  0  0  0  0  0  0  0  0  0  0
   -6.7696   -4.7742   -0.2824 H   0  0  0  0  0  0  0  0  0  0  0  0
   -5.3492   -4.2214   -1.1802 H   0  0  0  0  0  0  0  0  0  0  0  0
   -6.0784   -3.1839    0.0421 H   0  0  0  0  0  0  0  0  0  0  0  0
   -6.5187   -5.4204    2.1917 H   0  0  0  0  0  0  0  0  0  0  0  0
   -5.8719   -3.8111    2.5116 H   0  0  0  0  0  0  0  0  0  0  0  0
   -4.9430   -5.2346    2.9736 H   0  0  0  0  0  0  0  0  0  0  0  0
   -5.6269   -6.8273    0.3818 H   0  0  0  0  0  0  0  0  0  0  0  0
   -4.0650   -6.8070    1.2010 H   0  0  0  0  0  0  0  0  0  0  0  0
   -4.1723   -6.3665   -0.5067 H   0  0  0  0  0  0  0  0  0  0  0  0
   -3.5469    1.0001    2.4305 H   0  0  0  0  0  0  0  0  0  0  0  0
   -4.2661   -0.5414    2.9628 H   0  0  0  0  0  0  0  0  0  0  0  0
   -4.4841    0.0138    1.2797 H   0  0  0  0  0  0  0  0  0  0  0  0
   -3.4120   -0.4845   -2.0385 H   0  0  0  0  0  0  0  0  0  0  0  0
   -2.3438    0.8939   -2.4083 H   0  0  0  0  0  0  0  0  0  0  0  0
   -3.4852    0.9882   -1.0384 H   0  0  0  0  0  0  0  0  0  0  0  0
    0.0957    5.6253   -1.2615 H   0  0  0  0  0  0  0  0  0  0  0  0
   -0.7431    4.1467   -1.7324 H   0  0  0  0  0  0  0  0  0  0  0  0
    1.0155    4.1603   -1.6309 H   0  0  0  0  0  0  0  0  0  0  0  0
    1.2161    4.4968    2.0840 H   0  0  0  0  0  0  0  0  0  0  0  0
    1.1138    5.8671    0.9751 H   0  0  0  0  0  0  0  0  0  0  0  0
    2.1590    4.4997    0.5899 H   0  0  0  0  0  0  0  0  0  0  0  0
   -1.3148    5.7116    0.8811 H   0  0  0  0  0  0  0  0  0  0  0  0
   -1.3155    4.3194    1.9723 H   0  0  0  0  0  0  0  0  0  0  0  0
   -2.1324    4.2196    0.4151 H   0  0  0  0  0  0  0  0  0  0  0  0
    2.4577   -5.4166    1.1812 H   0  0  0  0  0  0  0  0  0  0  0  0
    4.3369   -1.6534    2.0506 H   0  0  0  0  0  0  0  0  0  0  0  0
    1.9858    2.4018    1.4072 H   0  0  0  0  0  0  0  0  0  0  0  0
   -1.6919    2.3580   -0.7627 H   0  0  0  0  0  0  0  0  0  0  0  0
   -4.6383   -2.2493    1.4904 H   0  0  0  0  0  0  0  0  0  0  0  0
   -2.2284   -5.6507    0.5628 H   0  0  0  0  0  0  0  0  0  0  0  0
  1  2  2  0  0  0  0
  1 76  1  0  0  0  0
  2  3  1  0  0  0  0
  2 23  1  0  0  0  0
  3  4  2  0  0  0  0
  3  7  1  0  0  0  0
  4  5  1  0  0  0  0
  5  6  2  0  0  0  0
  5 75  1  0  0  0  0
  6 32  1  0  0  0  0
  6  1  1  0  0  0  0
  7  8  1  0  0  0  0
  8  9  2  0  0  0  0
  9 10  1  0  0  0  0
 10  4  1  0  0  0  0
 10 24  2  0  0  0  0
 11 12  2  0  0  0  0
 11 18  1  0  0  0  0
 11  7  1  0  0  0  0
 12 13  1  0  0  0  0
 13 14  1  0  0  0  0
 13 25  2  0  0  0  0
 14  8  1  0  0  0  0
 14 15  2  0  0  0  0
 15 16  1  0  0  0  0
 15 73  1  0  0  0  0
 16 36  1  0  0  0  0
 16 17  2  0  0  0  0
 17  9  1  0  0  0  0
 17 74  1  0  0  0  0
 18 19  2  0  0  0  0
 19 20  1  0  0  0  0
 19 77  1  0  0  0  0
 20 28  1  0  0  0  0
 20 21  2  0  0  0  0
 21 12  1  0  0  0  0
 21 78  1  0  0  0  0
 22 26  1  0  0  0  0
 22 18  1  0  0  0  0
 23 27  1  0  0  0  0
 26 58  1  0  0  0  0
 26 59  1  0  0  0  0
 26 60  1  0  0  0  0
 27 61  1  0  0  0  0
 27 62  1  0  0  0  0
 27 63  1  0  0  0  0
 28 29  1  0  0  0  0
 28 30  1  0  0  0  0
 28 31  1  0  0  0  0
 29 55  1  0  0  0  0
 29 56  1  0  0  0  0
 29 57  1  0  0  0  0
 30 52  1  0  0  0  0
 30 53  1  0  0  0  0
 30 54  1  0  0  0  0
 31 49  1  0  0  0  0
 31 50  1  0  0  0  0
 31 51  1  0  0  0  0
 32 33  1  0  0  0  0
 32 34  1  0  0  0  0
 32 35  1  0  0  0  0
 33 70  1  0  0  0  0
 33 71  1  0  0  0  0
 33 72  1  0  0  0  0
 34 67  1  0  0  0  0
 34 68  1  0  0  0  0
 34 69  1  0  0  0  0
 35 64  1  0  0  0  0
 35 65  1  0  0  0  0
 35 66  1  0  0  0  0
 36 37  1  0  0  0  0
 36 38  1  0  0  0  0
 36 39  1  0  0  0  0
 37 43  1  0  0  0  0
 37 44  1  0  0  0  0
 37 45  1  0  0  0  0
 38 46  1  0  0  0  0
 38 47  1  0  0  0  0
 38 48  1  0  0  0  0
 39 40  1  0  0  0  0
 39 41  1  0  0  0  0
 39 42  1  0  0  0  0
M  CHG  1   7  -1
M  END

 Bond Distances (Angstroems)
 ---------------------------
C1-C2=1.3741         C1-C6=1.4065         C1-H76=1.0799        C2-C1=1.3741         C2-C3=1.4221         C2-O23=1.3768        
C3-C2=1.4221         C3-C4=1.4091         C3-C7=1.4276         C4-C3=1.4091         C4-C5=1.4009         C4-C10=1.4604        
C5-C4=1.4009         C5-C6=1.3725         C5-H75=1.0783        C6-C1=1.4065         C6-C5=1.3725         C6-C32=1.5215        
C7-C3=1.4276         C7-C8=1.4078         C7-C11=1.4277        C8-C7=1.4078         C8-C9=1.4174         C8-C14=1.4183        
C9-C8=1.4174         C9-C10=1.4589        C9-C17=1.3905        C10-C4=1.4604        C10-C9=1.4589        C10-O24=1.2395       
C11-C7=1.4277        C11-C12=1.4099       C11-C18=1.4224       C12-C11=1.4099       C12-C13=1.4604       C12-C21=1.4010       
C13-C12=1.4604       C13-C14=1.4593       C13-O25=1.2394       C14-C8=1.4183        C14-C13=1.4593       C14-C15=1.3874       
C15-C14=1.3874       C15-C16=1.3907       C15-H73=1.0814       C16-C15=1.3907       C16-C17=1.3871       C16-C36=1.5220       
C17-C9=1.3905        C17-C16=1.3871       C17-H74=1.0794       C18-C11=1.4224       C18-C19=1.3741       C18-O22=1.3764       
C19-C18=1.3741       C19-C20=1.4061       C19-H77=1.0797       C20-C19=1.4061       C20-C21=1.3725       C20-C28=1.5217       
C21-C12=1.4010       C21-C20=1.3725       C21-H78=1.0783       O22-C18=1.3764       O22-C26=1.3944       O23-C2=1.3768        
O23-C27=1.3945       O24-C10=1.2395       O25-C13=1.2394       C26-O22=1.3944       C26-H58=1.0908       C26-H59=1.0985       
C26-H60=1.0980       C27-O23=1.3945       C27-H61=1.0908       C27-H62=1.0986       C27-H63=1.0980       C28-C20=1.5217       
C28-C29=1.5308       C28-C30=1.5359       C28-C31=1.5355       C29-C28=1.5308       C29-H55=1.0900       C29-H56=1.0869       
C29-H57=1.0869       C30-C28=1.5359       C30-H52=1.0898       C30-H53=1.0870       C30-H54=1.0880       C31-C28=1.5355       
C31-H49=1.0899       C31-H50=1.0880       C31-H51=1.0869       C32-C6=1.5215        C32-C33=1.5357       C32-C34=1.5309       
C32-C35=1.5356       C33-C32=1.5357       C33-H70=1.0898       C33-H71=1.0880       C33-H72=1.0869       C34-C32=1.5309       
C34-H67=1.0870       C34-H68=1.0900       C34-H69=1.0869       C35-C32=1.5356       C35-H64=1.0898       C35-H65=1.0870       
C35-H66=1.0880       C36-C16=1.5220       C36-C37=1.5311       C36-C38=1.5352       C36-C39=1.5352       C37-C36=1.5311       
C37-H43=1.0900       C37-H44=1.0873       C37-H45=1.0874       C38-C36=1.5352       C38-H46=1.0899       C38-H47=1.0884       
C38-H48=1.0864       C39-C36=1.5352       C39-H40=1.0899       C39-H41=1.0864       C39-H42=1.0883       H40-C39=1.0899       
H41-C39=1.0864       H42-C39=1.0883       H43-C37=1.0900       H44-C37=1.0873       H45-C37=1.0874       H46-C38=1.0899       
H47-C38=1.0884       H48-C38=1.0864       H49-C31=1.0899       H50-C31=1.0880       H51-C31=1.0869       H52-C30=1.0898       
H53-C30=1.0870       H54-C30=1.0880       H55-C29=1.0900       H56-C29=1.0869       H57-C29=1.0869       H58-C26=1.0908       
H59-C26=1.0985       H60-C26=1.0980       H61-C27=1.0908       H62-C27=1.0986       H63-C27=1.0980       H64-C35=1.0898       
H65-C35=1.0870       H66-C35=1.0880       H67-C34=1.0870       H68-C34=1.0900       H69-C34=1.0869       H70-C33=1.0898       
H71-C33=1.0880       H72-C33=1.0869       H73-C15=1.0814       H74-C17=1.0794       H75-C5=1.0783        H76-C1=1.0799        
H77-C19=1.0797       H78-C21=1.0783       
 C  H  Rav=1.0880 sigma=0.0049  Rmin=1.0783  Rmax=1.0986    39
 C  C  Rav=1.4496 sigma=0.0607  Rmin=1.3725  Rmax=1.5359    37
 O  C  Rav=1.3368 sigma=0.0693  Rmin=1.2394  Rmax=1.3945     6

 selected bond angles (degree)
 --------------------
C6-C1-C2=121.97                H76-C1-C2=119.48               H76-C1-C6=118.54               C3-C2-C1=120.76                
O23-C2-C1=123.12               O23-C2-C3=115.98               C4-C3-C2=116.15                C7-C3-C2=123.31                
C7-C3-C4=120.27                C5-C4-C3=120.88                C10-C4-C3=121.31               C10-C4-C5=117.76               
C6-C5-C4=121.74                H75-C5-C4=115.70               H75-C5-C6=122.56               C5-C6-C1=117.31                
C32-C6-C1=119.04               C32-C6-C5=123.61               C8-C7-C3=117.16                C11-C7-C3=125.59               
C11-C7-C8=117.25               C9-C8-C7=121.42                C14-C8-C7=121.31               C14-C8-C9=117.27               
C10-C9-C8=120.52               C17-C9-C8=120.46               C17-C9-C10=118.99              C9-C10-C4=115.10               
O24-C10-C4=122.38              O24-C10-C9=122.44              

 selected dihedral angles (degree)
 ---------------------------------
C3-C2-C1-C6=  3.36            C3-C2-C1-H76=181.84           O23-C2-C1-C6=187.91           O23-C2-C1-H76=  6.39          
C4-C3-C2-C1=348.76            C4-C3-C2-O23=164.52           C7-C3-C2-C1=174.71            C7-C3-C2-O23=350.47           
C5-C4-C3-C2= 11.07            C5-C4-C3-C7=185.32            C10-C4-C3-C2=193.87           C10-C4-C3-C7=  8.11           
C6-C5-C4-C3=357.01            C6-C5-C4-C10=174.31           H75-C5-C4-C3=177.52           H75-C5-C4-C10=354.82          
C5-C6-C1-C2=  5.11            C5-C6-C1-H76=186.61           C32-C6-C1-C2=182.88           C32-C6-C1-H76=  4.38          
C1-C6-C5-C4=354.72            C1-C6-C5-H75=174.18           C32-C6-C5-C4=177.06           C32-C6-C5-H75=356.52          
C8-C7-C3-C2=152.45            C8-C7-C3-C4=338.63            C11-C7-C3-C2=331.76           C11-C7-C3-C4=157.94           
C9-C8-C7-C3= 16.64            C9-C8-C7-C11=197.28           C14-C8-C7-C3=196.58           C14-C8-C7-C11= 17.21          
C10-C9-C8-C7=  1.43           C10-C9-C8-C14=181.49          C17-C9-C8-C7=179.52           C17-C9-C8-C14=359.58          
C9-C10-C4-C3=  9.68           C9-C10-C4-C5=192.38           O24-C10-C4-C3=186.44          O24-C10-C4-C5=  9.15          
C4-C10-C9-C8=345.59           C4-C10-C9-C17=167.48          O24-C10-C9-C8=168.83          O24-C10-C9-C17=350.72         
           -------------------------------------------------
          |                Final Singlepoint                |
           -------------------------------------------------

          ...................................................
          :                      SETUP                      :
          :.................................................:
          :  # basis functions                 195          :
          :  # atomic orbitals                 195          :
          :  # shells                          117          :
          :  # electrons                       204          :
          :  max. iterations                   250          :
          :  Hamiltonian                  GFN2-xTB          :
          :  restarted?                      false          :
          :  GBSA solvation                  false          :
          :  PC potential                    false          :
          :  electronic temp.          300.0000000     K    :
          :  accuracy                    1.0000000          :
          :  -> integral cutoff          0.2500000E+02      :
          :  -> integral neglect         0.1000000E-07      :
          :  -> SCF convergence          0.1000000E-05 Eh   :
          :  -> wf. convergence          0.1000000E-03 e    :
          :  Broyden damping             0.4000000          :
          :  net charge                         -1          :
          :  unpaired electrons                  0          :
          ...................................................

 iter      E             dE          RMSdq      gap      omega  full diag
   1   -113.0994874 -0.113099E+03  0.612E-05    1.36       0.0  T
   2   -113.0994874 -0.211173E-10  0.390E-05    1.36     290.5  T
   3   -113.0994874 -0.226805E-10  0.273E-05    1.36     414.0  T

   *** convergence criteria satisfied after 3 iterations ***

         #    Occupation            Energy/Eh            Energy/eV
      -------------------------------------------------------------
         1        2.0000           -0.6056620             -16.4809
       ...           ...                  ...                  ...
        96        2.0000           -0.2733034              -7.4370
        97        2.0000           -0.2705231              -7.3613
        98        2.0000           -0.2652226              -7.2171
        99        2.0000           -0.2562117              -6.9719
       100        2.0000           -0.2414941              -6.5714
       101        2.0000           -0.2368728              -6.4456
       102        2.0000           -0.2048399              -5.5740 (HOMO)
       103                         -0.1548265              -4.2130 (LUMO)
       104                         -0.1189576              -3.2370
       105                         -0.1045597              -2.8452
       106                         -0.1014963              -2.7619
       107                         -0.0880514              -2.3960
       ...                                ...                  ...
       195                          0.8619321              23.4544
      -------------------------------------------------------------
                  HL-Gap            0.0500135 Eh            1.3609 eV
             Fermi-level           -0.1798332 Eh           -4.8935 eV

 SCC (total)                   0 d,  0 h,  0 min,  0.072 sec
 SCC setup                      ...        0 min,  0.000 sec (  0.233%)
 Dispersion                     ...        0 min,  0.000 sec (  0.618%)
 classical contributions        ...        0 min,  0.000 sec (  0.163%)
 integral evaluation            ...        0 min,  0.003 sec (  3.629%)
 iterations                     ...        0 min,  0.052 sec ( 72.878%)
 molecular gradient             ...        0 min,  0.016 sec ( 21.934%)
 printout                       ...        0 min,  0.000 sec (  0.526%)

         :::::::::::::::::::::::::::::::::::::::::::::::::::::
         ::                     SUMMARY                     ::
         :::::::::::::::::::::::::::::::::::::::::::::::::::::
         :: total energy            -111.428473057422 Eh    ::
         :: gradient norm              0.000179506322 Eh/a0 ::
         :: HOMO-LUMO gap              1.360935378773 eV    ::
         ::.................................................::
         :: SCC energy              -113.098659520800 Eh    ::
         :: -> isotropic ES            0.176280809753 Eh    ::
         :: -> anisotropic ES          0.033701983287 Eh    ::
         :: -> anisotropic XC          0.036651750786 Eh    ::
         :: -> dispersion             -0.100361968892 Eh    ::
         :: repulsion energy           1.670186463378 Eh    ::
         :: add. restraining           0.000000000000 Eh    ::
         :: total charge              -1.000000000000 e     ::
         :::::::::::::::::::::::::::::::::::::::::::::::::::::

           -------------------------------------------------
          |                Property Printout                |
           -------------------------------------------------

    * Orbital Energies and Occupations

         #    Occupation            Energy/Eh            Energy/eV
      -------------------------------------------------------------
         1        2.0000           -0.6056620             -16.4809
       ...           ...                  ...                  ...
        90        2.0000           -0.3135273              -8.5315
        91        2.0000           -0.3108323              -8.4582
        92        2.0000           -0.3046361              -8.2896
        93        2.0000           -0.2968661              -8.0781
        94        2.0000           -0.2861454              -7.7864
        95        2.0000           -0.2749638              -7.4821
        96        2.0000           -0.2733034              -7.4370
        97        2.0000           -0.2705231              -7.3613
        98        2.0000           -0.2652226              -7.2171
        99        2.0000           -0.2562117              -6.9719
       100        2.0000           -0.2414941              -6.5714
       101        2.0000           -0.2368728              -6.4456
       102        2.0000           -0.2048399              -5.5740 (HOMO)
       103                         -0.1548265              -4.2130 (LUMO)
       104                         -0.1189576              -3.2370
       105                         -0.1045597              -2.8452
       106                         -0.1014963              -2.7619
       107                         -0.0880514              -2.3960
       108                         -0.0550284              -1.4974
       109                         -0.0429869              -1.1697
       110                         -0.0234685              -0.6386
       111                          0.0272144               0.7405
       112                          0.0420354               1.1438
       113                          0.0901360               2.4527
       ...                                ...                  ...
       195                          0.8619321              23.4544
      -------------------------------------------------------------
                  HL-Gap            0.0500135 Eh            1.3609 eV
             Fermi-level           -0.1798332 Eh           -4.8935 eV

     #   Z          covCN         q      C6AA      α(0)
     1   6 C        2.923    -0.080    30.001     8.982
     2   6 C        2.863     0.134    25.067     8.207
     3   6 C        2.979    -0.005    28.145     8.702
     4   6 C        2.982    -0.039    28.972     8.829
     5   6 C        2.929    -0.049    29.224     8.865
     6   6 C        2.970    -0.018    28.453     8.749
     7   6 C        2.974    -0.032    28.789     8.801
     8   6 C        2.994    -0.006    28.170     8.706
     9   6 C        2.977    -0.037    28.909     8.820
    10   6 C        2.837     0.202    23.713     7.980
    11   6 C        2.978    -0.005    28.148     8.703
    12   6 C        2.982    -0.040    28.975     8.830
    13   6 C        2.837     0.203    23.702     7.978
    14   6 C        2.976    -0.036    28.890     8.817
    15   6 C        2.932    -0.028    28.702     8.786
    16   6 C        2.968    -0.016    28.410     8.743
    17   6 C        2.930    -0.032    28.804     8.802
    18   6 C        2.862     0.133    25.080     8.209
    19   6 C        2.924    -0.080    29.996     8.982
    20   6 C        2.969    -0.018    28.452     8.749
    21   6 C        2.929    -0.049    29.219     8.865
    22   8 O        1.705    -0.275    18.569     5.818
    23   8 O        1.705    -0.276    18.572     5.819
    24   8 O        0.857    -0.482    23.387     6.484
    25   8 O        0.857    -0.482    23.385     6.484
    26   6 C        3.642     0.058    19.941     6.420
    27   6 C        3.642     0.058    19.945     6.421
    28   6 C        3.902     0.026    20.078     6.369
    29   6 C        3.762    -0.104    22.529     6.766
    30   6 C        3.761    -0.099    22.428     6.751
    31   6 C        3.761    -0.098    22.427     6.751
    32   6 C        3.902     0.026    20.078     6.369
    33   6 C        3.761    -0.098    22.425     6.751
    34   6 C        3.762    -0.104    22.530     6.766
    35   6 C        3.761    -0.098    22.427     6.751
    36   6 C        3.903     0.025    20.093     6.372
    37   6 C        3.761    -0.102    22.493     6.761
    38   6 C        3.761    -0.101    22.475     6.758
    39   6 C        3.761    -0.101    22.471     6.757
    40   1 H        0.925     0.020     2.726     2.582
    41   1 H        0.925     0.037     2.489     2.467
    42   1 H        0.925     0.028     2.610     2.526
    43   1 H        0.925     0.020     2.736     2.587
    44   1 H        0.925     0.035     2.518     2.481
    45   1 H        0.925     0.034     2.534     2.489
    46   1 H        0.925     0.020     2.729     2.583
    47   1 H        0.925     0.028     2.613     2.528
    48   1 H        0.925     0.038     2.472     2.459
    49   1 H        0.925     0.020     2.727     2.582
    50   1 H        0.925     0.030     2.585     2.514
    51   1 H        0.925     0.029     2.607     2.525
    52   1 H        0.925     0.021     2.719     2.578
    53   1 H        0.925     0.028     2.618     2.530
    54   1 H        0.925     0.030     2.581     2.512
    55   1 H        0.925     0.020     2.732     2.585
    56   1 H        0.925     0.037     2.491     2.468
    57   1 H        0.925     0.037     2.484     2.465
    58   1 H        0.924     0.044     2.399     2.422
    59   1 H        0.923     0.021     2.725     2.582
    60   1 H        0.923     0.021     2.717     2.578
    61   1 H        0.924     0.044     2.402     2.424
    62   1 H        0.923     0.021     2.717     2.578
    63   1 H        0.923     0.021     2.723     2.581
    64   1 H        0.925     0.021     2.718     2.578
    65   1 H        0.925     0.028     2.619     2.531
    66   1 H        0.925     0.030     2.583     2.513
    67   1 H        0.925     0.038     2.480     2.463
    68   1 H        0.925     0.020     2.732     2.585
    69   1 H        0.925     0.037     2.493     2.469
    70   1 H        0.925     0.020     2.728     2.583
    71   1 H        0.925     0.030     2.585     2.514
    72   1 H        0.925     0.028     2.609     2.526
    73   1 H        0.925     0.036     2.496     2.471
    74   1 H        0.926     0.044     2.400     2.423
    75   1 H        0.926     0.046     2.366     2.406
    76   1 H        0.926     0.008     2.926     2.675
    77   1 H        0.926     0.008     2.920     2.672
    78   1 H        0.926     0.046     2.370     2.407

 Mol. C6AA /au·bohr⁶  :      65956.644702
 Mol. C8AA /au·bohr⁸  :    1551594.183584
 Mol. α(0) /au        :        397.916737


Wiberg/Mayer (AO) data.
largest (>0.10) Wiberg bond orders for each atom

 ---------------------------------------------------------------------------
     #   Z sym  total        # sym  WBO       # sym  WBO       # sym  WBO
 ---------------------------------------------------------------------------
     1   6 C    3.970 --     2 C    1.470     6 C    1.313    76 H    0.959
     2   6 C    3.917 --     1 C    1.470     3 C    1.228    23 O    1.025
     3   6 C    3.977 --     4 C    1.297     2 C    1.228     7 C    1.198
     4   6 C    3.972 --     5 C    1.329     3 C    1.297    10 C    1.090
     5   6 C    3.987 --     6 C    1.489     4 C    1.329    75 H    0.960
     6   6 C    3.964 --     5 C    1.489     1 C    1.313    32 C    0.980
     7   6 C    3.974 --     8 C    1.280    11 C    1.200     3 C    1.198
     8   6 C    3.986 --     7 C    1.280     9 C    1.239    14 C    1.233
     9   6 C    3.981 --    17 C    1.396     8 C    1.239    10 C    1.088
    10   6 C    3.941 --    24 O    1.618     4 C    1.090     9 C    1.088
    11   6 C    3.976 --    12 C    1.296    18 C    1.229     7 C    1.200
    12   6 C    3.972 --    21 C    1.330    11 C    1.296    13 C    1.090
    13   6 C    3.942 --    25 O    1.619    12 C    1.090    14 C    1.086
[...]
    96   6 C      100   8 O                                       1.3788414
    80   6 C      101   8 O                                       1.3703018
    88   6 C      102   8 O                                       1.2417431
    91   6 C      103   8 O                                       1.2417590
   100   8 O      104   6 C                                       1.3947828
   101   8 O      105   6 C                                       1.4001514
   106   6 C      107   6 C                                       1.5351182
   106   6 C      108   6 C                                       1.5359627
   106   6 C      109   6 C                                       1.5322926
   110   6 C      111   6 C                                       1.5364015
   110   6 C      112   6 C                                       1.5345937
   110   6 C      113   6 C                                       1.5311741
   114   6 C      115   6 C                                       1.5313447
   114   6 C      116   6 C                                       1.5353912
   114   6 C      117   6 C                                       1.5353746
   117   6 C      118   1 H                                       1.0906766
   117   6 C      119   1 H                                       1.0863867
   117   6 C      120   1 H                                       1.0884715
   115   6 C      121   1 H                                       1.0907912
   115   6 C      122   1 H                                       1.0874340
   115   6 C      123   1 H                                       1.0873058
   116   6 C      124   1 H                                       1.0906984
   116   6 C      125   1 H                                       1.0882185
   116   6 C      126   1 H                                       1.0862731
   109   6 C      127   1 H                                       1.0903977
   109   6 C      128   1 H                                       1.0878835
   109   6 C      129   1 H                                       1.0890516
   108   6 C      130   1 H                                       1.0903306
   108   6 C      131   1 H                                       1.0892726
   108   6 C      132   1 H                                       1.0864096
   107   6 C      133   1 H                                       1.0905520
   107   6 C      134   1 H                                       1.0857644
   107   6 C      135   1 H                                       1.0875993
   104   6 C      136   1 H                                       1.0911385
   104   6 C      137   1 H                                       1.0996368
   104   6 C      138   1 H                                       1.0967136
   105   6 C      139   1 H                                       1.0903632
   105   6 C      140   1 H                                       1.0919662
   105   6 C      141   1 H                                       1.0973038
   113   6 C      142   1 H                                       1.0903369
   113   6 C      143   1 H                                       1.0886285
   113   6 C      144   1 H                                       1.0877680
   112   6 C      145   1 H                                       1.0870845
   112   6 C      146   1 H                                       1.0900318
   112   6 C      147   1 H                                       1.0871212
   111   6 C      148   1 H                                       1.0904120
   111   6 C      149   1 H                                       1.0864433
   111   6 C      150   1 H                                       1.0888238
    93   6 C      151   1 H                                       1.0818552
    95   6 C      152   1 H                                       1.0799060
    83   6 C      153   1 H                                       1.0805997
    79   6 C      154   1 H                                       1.0759964 (min)
    97   6 C      155   1 H                                       1.0777051
    99   6 C      156   1 H                                       1.0801230

 * 3 distinct bonds (by element types)

   Z      Z             #   av. dist./Å        max./Å        min./Å
   1 H    6 C          78     1.0880730     1.0997715     1.0759964
   6 C    6 C          60     1.4412827     1.5366548     1.3725811
   6 C    8 O          12     1.3373560     1.4001514     1.2361309


optimized geometry written to: xtbopt.mol


           -------------------------------------------------
Note: The following floating-point exceptions are signalling: IEEE_UNDERFLOW_FLAG
normal termination of xtb
          | TOTAL ENERGY             -222.817938668384 Eh   |
          | GRADIENT NORM               0.000537784754 Eh/α |
          | HOMO-LUMO GAP               1.082036020633 eV   |
           -------------------------------------------------
########################################################################
[WARNING] Runtime exception occurred
-3- restart_readRestart: Dimension missmatch in restart file.
-2- restart_readRestart: Multiplicity missmatch in restart file.
-1- restart_readRestart: Number of electron missmatch in restart file.
########################################################################

------------------------------------------------------------------------
 * finished run on 2024/12/02 at 12:26:33.825     
------------------------------------------------------------------------
 total:
 * wall-time:     0 d,  0 h,  1 min,  0.378 sec
 *  cpu-time:     0 d,  0 h,  2 min, 57.087 sec
 * ratio c/w:     2.933 speedup
 SCF:
 * wall-time:     0 d,  0 h,  0 min,  1.122 sec
 *  cpu-time:     0 d,  0 h,  0 min,  3.879 sec
 * ratio c/w:     3.458 speedup
 ANC optimizer:
 * wall-time:     0 d,  0 h,  0 min, 59.230 sec
 *  cpu-time:     0 d,  0 h,  2 min, 53.163 sec
 * ratio c/w:     2.924 speedup

Running optimization for loose_opt_dimer.mol
      -----------------------------------------------------------      
     |                   =====================                   |     
     |                           x T B                           |     
     |                   =====================                   |     
     |                         S. Grimme                         |     
     |          Mulliken Center for Theoretical Chemistry        |     
     |                    University of Bonn                     |     
      -----------------------------------------------------------      

   * xtb version 6.7.1 (edcfbbe) compiled by 'runner@Mac-1732539442253.local' on 2024-11-25

   xtb is free software: you can redistribute it and/or modify it under
   the terms of the GNU Lesser General Public License as published by
   the Free Software Foundation, either version 3 of the License, or
   (at your option) any later version.
   
   xtb is distributed in the hope that it will be useful,
   but WITHOUT ANY WARRANTY; without even the implied warranty of
   MERCHANTABILITY or FITNESS FOR A PARTICULAR PURPOSE.  See the
   GNU Lesser General Public License for more details.
   
   Cite this work as:
   * C. Bannwarth, E. Caldeweyher, S. Ehlert, A. Hansen, P. Pracht,
     J. Seibert, S. Spicher, S. Grimme, WIREs Comput. Mol. Sci., 2020, 11,
     e01493. DOI: 10.1002/wcms.1493
   
   for GFN2-xTB:
   * C. Bannwarth, S. Ehlert and S. Grimme., J. Chem. Theory Comput., 2019,
     15, 1652-1671. DOI: 10.1021/acs.jctc.8b01176
   for GFN1-xTB:
   * S. Grimme, C. Bannwarth, P. Shushkov, J. Chem. Theory Comput., 2017,
     13, 1989-2009. DOI: 10.1021/acs.jctc.7b00118
   for GFN0-xTB:
   * P. Pracht, E. Caldeweyher, S. Ehlert, S. Grimme, ChemRxiv, 2019, preprint.
     DOI: 10.26434/chemrxiv.8326202.v1
   for GFN-FF:
   * S. Spicher and S. Grimme, Angew. Chem. Int. Ed., 2020, 59, 15665-15673.
     DOI: 10.1002/anie.202004239
   
   for ALPB and GBSA implicit solvation:
   * S. Ehlert, M. Stahn, S. Spicher, S. Grimme, J. Chem. Theory Comput.,
     2021, 17, 4250-4261. DOI: 10.1021/acs.jctc.1c00471
   
   for ddCOSMO and CPCM-X implicit solvation:
   * M. Stahn, S. Ehlert, S. Grimme, J. Phys. Chem. A,
     2023, XX, XXXX-XXXX. DOI: 10.1021/acs.jpca.3c04382
   
   for DFT-D4:
   * E. Caldeweyher, C. Bannwarth and S. Grimme, J. Chem. Phys., 2017,
     147, 034112. DOI: 10.1063/1.4993215
   * E. Caldeweyher, S. Ehlert, A. Hansen, H. Neugebauer, S. Spicher,
     C. Bannwarth and S. Grimme, J. Chem. Phys., 2019, 150, 154122.
     DOI: 10.1063/1.5090222
   * E. Caldeweyher, J.-M. Mewes, S. Ehlert and S. Grimme, Phys. Chem. Chem. Phys.
     2020, 22, 8499-8512. DOI: 10.1039/D0CP00502A
   
   for sTDA-xTB:
   * S. Grimme and C. Bannwarth, J. Chem. Phys., 2016, 145, 054103.
     DOI: 10.1063/1.4959605
   
   in the mass-spec context:
   * V. Asgeirsson, C. Bauer and S. Grimme, Chem. Sci., 2017, 8, 4879.
     DOI: 10.1039/c7sc00601b
   * J. Koopman and S. Grimme, ACS Omega 2019, 4, 12, 15120-15133.
     DOI: 10.1021/acsomega.9b02011
   
   for metadynamics refer to:
   * S. Grimme, J. Chem. Theory Comput., 2019, 155, 2847-2862
     DOI: 10.1021/acs.jctc.9b00143
   
   for SPH calculations refer to:
   * S. Spicher and S. Grimme, J. Chem. Theory Comput., 2021, 17, 1701-1714
     DOI: 10.1021/acs.jctc.0c01306
   
   for ONIOM refer to:
   * C. Plett, A. Katbashev, S. Ehlert, S. Grimme, M. Bursch,
     Phys. Chem. Chem. Phys., 2023, 25, 17860-17868. DOI: 10.1039/D3CP02178E
   
   for DIPRO refer to:
   * J. Kohn, N. Gildemeister, S. Grimme, D. Fazzi, A. Hansen,
     J. Chem. Phys., 2023, just accepted.
   
   for PTB refer to:
   * S. Grimme, M. Mueller, A. Hansen, J. Chem. Phys., 2023, 158, 124111.
     DOI: 10.1063/5.0137838
   
   with help from (in alphabetical order)
   P. Atkinson, C. Bannwarth, F. Bohle, G. Brandenburg, E. Caldeweyher
   M. Checinski, S. Dohm, S. Ehlert, S. Ehrlich, I. Gerasimov, C. Hölzer
   A. Katbashev, J. Kohn, J. Koopman, C. Lavigne, S. Lehtola, F. März, M. Müller,
   F. Musil, H. Neugebauer, J. Pisarek, C. Plett, P. Pracht, F. Pultar,
   J. Seibert, P. Shushkov, S. Spicher, M. Stahn, M. Steiner, T. Strunk,
   J. Stückrath, T. Rose, and J. Unsleber
   
 * started run on 2024/12/02 at 12:26:33.863     
   ID    Z sym.   atoms
    1    6 C      1-21, 26-39, 79-99, 104-117
    2    8 O      22-25, 100-103
    3    1 H      40-78, 118-156

           -------------------------------------------------
          |                Calculation Setup                |
           -------------------------------------------------

          program call               : xtb opt_dimer.mol --dipro 0.3 --gfn 2 --chrg -2 --uhf 0
          coordinate file            : opt_dimer.mol
          omp threads                :                     8


molecular fragmentation (1/2 indicates fragments):
111111111111111111111111111111111111111111111111111111111111111111111111
111111222222222222222222222222222222222222222222222222222222222222222222
222222222222
# atoms in fragment 1/2:    78    78
 fragment masses (1/2) :      523.68      523.68
CMA distance (Bohr)    :  14.266
constraining FC (au)   :  0.0500
########################################################################
[WARNING] Please study the warnings concerning your input carefully
-1- prog_main: Charge in sdf/mol input was overwritten
########################################################################

           -------------------------------------------------
          |                 G F N 2 - x T B                 |
           -------------------------------------------------

        Reference                      10.1021/acs.jctc.8b01176
      * Hamiltonian:
        H0-scaling (s, p, d)           1.850000    2.230000    2.230000
        zeta-weighting                 0.500000
      * Dispersion:
        s8                             2.700000
        a1                             0.520000
        a2                             5.000000
        s9                             5.000000
      * Repulsion:
        kExp                           1.500000    1.000000
        rExp                           1.000000
      * Coulomb:
        alpha                          2.000000
        third order                    shell-resolved
        anisotropic                    true
        a3                             3.000000
        a5                             4.000000
        cn-shift                       1.200000
        cn-exp                         4.000000
        max-rad                        5.000000

q/qsh data taken from xtbrestart
CAMM data taken from xtbrestart
           -------------------------------------------------
          |                    D I P R O                    |
           -------------------------------------------------
Calculation for dimer 
--------------------- 
  
charge of dimer :  -2.
unpaired e- of dimer :  0
repulsion energy          3.3366424680456E+00 Eh
dispersion energy         1.0789212126021E-02 Eh
number of electrons       4.0800000000000E+02 e
integral cutoff           1.7347787504999E+01 bohr

------------------------------------------------------------
  cycle        total energy    energy error   density error
------------------------------------------------------------
      1     -222.1575567784  -2.2550499E+02   1.3697105E-01
      2     -222.7346223441  -5.7706557E-01   6.2971940E-02
      3     -222.7523139311  -1.7691587E-02   3.0449102E-02
      4     -222.8039578092  -5.1643878E-02   1.4503780E-02
      5     -222.8132432973  -9.2854881E-03   5.8637556E-03
      6     -222.8165869417  -3.3436444E-03   3.0108544E-03
      7     -222.8177619137  -1.1749720E-03   1.0776866E-03
      8     -222.8178509717  -8.9057947E-05   5.0429684E-04
      9     -222.8178542462  -3.2745436E-06   2.4044995E-04
     10     -222.8178611191  -6.8729344E-06   1.0191997E-04
     11     -222.8178626478  -1.5286976E-06   4.8856655E-05
     12     -222.8178628001  -1.5227579E-07   2.2785241E-05
     13     -222.8178628204  -2.0249473E-08   9.2978148E-06
------------------------------------------------------------

electronic energy        -2.2616529450053E+02 Eh
total energy             -2.2281786282036E+02 Eh

 total:                                   1.201 sec
 - repulsion                              0.000 sec (  0%)
 - dispersion                             0.007 sec (  0%)
 - coulomb                                0.002 sec (  0%)
 - hamiltonian                            0.006 sec (  0%)
 - scc                                    1.184 sec ( 98%)

Found 2 fragments!
Fragment 1:  1-78
Fragment 2:  79-156

[Info] Fragment spin read from .UHFfrag
Calculation for fragment 1
 ------------------------------
   
charge of fragment :  -1.
unpaired e- of fragment :  0
------------------------------------------------------------
  cycle        total energy    energy error   density error
------------------------------------------------------------
      1     -111.0956771520  -1.1276570E+02   1.3768787E-01
      2     -111.3859520204  -2.9027487E-01   6.3187641E-02
      3     -111.3955030334  -9.5510130E-03   3.0456480E-02
      4     -111.4201418151  -2.4638782E-02   1.4323997E-02
      5     -111.4244089462  -4.2671310E-03   5.7595172E-03
      6     -111.4259787165  -1.5697704E-03   2.9704508E-03
      7     -111.4265910584  -6.1234184E-04   1.1003854E-03
      8     -111.4266435218  -5.2463466E-05   5.1842732E-04
      9     -111.4266449619  -1.4400752E-06   2.7880792E-04
     10     -111.4266512540  -6.2920578E-06   1.0478784E-04
     11     -111.4266519974  -7.4344820E-07   4.7898381E-05
     12     -111.4266520517  -5.4329504E-08   2.1921517E-05
     13     -111.4266520601  -8.3823011E-09   8.4554947E-06
------------------------------------------------------------

 total:                                   0.344 sec
Calculation for fragment 2
 ------------------------------
   
charge of fragment :   0.
unpaired e- of fragment :  0
------------------------------------------------------------
  cycle        total energy    energy error   density error
------------------------------------------------------------
      1     -110.7828301510  -1.1245116E+02   1.4046734E-01
      2     -111.1055255083  -3.2269536E-01   6.4839809E-02
      3     -111.0950331719   1.0492336E-02   3.5705309E-02
      4     -111.1239071769  -2.8874005E-02   1.7549327E-02
      5     -111.1497323681  -2.5825191E-02   5.9349319E-03
      6     -111.1518552863  -2.1229182E-03   2.3982383E-03
      7     -111.1521126814  -2.5739511E-04   9.7572523E-04
      8     -111.1521392895  -2.6608032E-05   3.9986207E-04
      9     -111.1521409457  -1.6562581E-06   1.7782819E-04
     10     -111.1521420166  -1.0709031E-06   6.4380736E-05
     11     -111.1521421813  -1.6470686E-07   3.4678200E-05
     12     -111.1521422140  -3.2621557E-08   1.6705777E-05
------------------------------------------------------------

 total:                                   0.261 sec
   
   ::::::::::::::::::::::::::::::::::::::::::::::
   ::     D I P R O      C O U P L I N G S     ::
   ::::::::::::::::::::::::::::::::::::::::::::::
   
energy threshhold for near-degenerate orbitals near HOMO and LUMO considered for DIPRO:  0.300 eV
no. of orbitals within energy window of frag 1         2
no. of orbitals within energy window of frag 2         4
   
  Fragment 1 HOMO   Fragment 2 SOMO-2
--------------------------------------
E_mon(orb) frag1 frag2              -4.190    -5.130 eV
J(AB):                0.013 eV
S(AB):            -0.00069182 Eh
|J(AB,eff)|:            0.010 eV
   
  Fragment 1 HOMO   Fragment 2 SOMO-1
--------------------------------------
E_mon(orb) frag1 frag2              -4.190    -4.922 eV
J(AB):                0.007 eV
S(AB):            -0.00036608 Eh
|J(AB,eff)|:            0.005 eV
   
  Fragment 1 HOMO   Fragment 2 SOMO 
--------------------------------------
E_mon(orb) frag1 frag2              -4.190    -4.807 eV
J(AB):                0.001 eV
S(AB):            -0.00003104 Eh
|J(AB,eff)|:            0.000 eV
   
  Fragment 1 HOMO   Fragment 2 LUMO 
--------------------------------------
E_mon(orb) frag1 frag2              -4.190    -3.877 eV
J(AB):                0.006 eV
S(AB):            -0.00031420 Eh
|J(AB,eff)|:            0.004 eV
   
  Fragment 1 LUMO   Fragment 2 SOMO-2
--------------------------------------
E_mon(orb) frag1 frag2              -2.767    -5.130 eV
J(AB):               -0.003 eV
S(AB):             0.00020501 Eh
|J(AB,eff)|:            0.002 eV
   
  Fragment 1 LUMO   Fragment 2 SOMO-1
--------------------------------------
E_mon(orb) frag1 frag2              -2.767    -4.922 eV
J(AB):               -0.002 eV
S(AB):             0.00012200 Eh
|J(AB,eff)|:            0.001 eV
   
  Fragment 1 LUMO   Fragment 2 SOMO 
--------------------------------------
E_mon(orb) frag1 frag2              -2.767    -4.807 eV
J(AB):               -0.000 eV
S(AB):             0.00001474 Eh
|J(AB,eff)|:            0.000 eV
   
  Fragment 1 LUMO   Fragment 2 LUMO 
--------------------------------------
E_mon(orb) frag1 frag2              -2.767    -3.877 eV
J(AB):                0.000 eV
S(AB):            -0.00000199 Eh
|J(AB,eff)|:            0.000 eV
   
..............................................................................
:  total |J(AB,eff)| for hole transport (occ. MOs) :               0.011 eV  :
:  total |J(AB,eff)| for charge transport (unocc. MOs) :           0.000 eV  :
:  total |J(AB,eff)| for charge transfer (CT) :                    0.005 eV  :
..............................................................................
  
 Please remember, DIPRO is not available for restart!
   
normal termination of dipro
----------------------------------------------------------
 * finished run on 2024/12/02 at 12:26:35.689     
----------------------------------------------------------
 dipro:
 * wall-time:     0 d,  0 h,  0 min,  1.820 sec
 *  cpu-time:     0 d,  0 h,  0 min,  6.110 sec
 * ratio c/w:     3.357 speedup
