      -----------------------------------------------------------      
     |                   =====================                   |     
     |                           x T B                           |     
     |                   =====================                   |     
     |                         S. Grimme                         |     
     |          Mulliken Center for Theoretical Chemistry        |     
     |                    University of Bonn                     |     
      -----------------------------------------------------------      

   * xtb version 6.6.1 (8d0f1dd) compiled by 'runner@Mac-1690902418499.local' on 2023-08-01

   xtb is free software: you can redistribute it and/or modify it under
   the terms of the GNU Lesser General Public License as published by
   the Free Software Foundation, either version 3 of the License, or
   (at your option) any later version.
   
   xtb is distributed in the hope that it will be useful,
   but WITHOUT ANY WARRANTY; without even the implied warranty of
   MERCHANTABILITY or FITNESS FOR A PARTICULAR PURPOSE.  See the
   GNU Lesser General Public License for more details.
   
   Cite this work as:
   * C. Bannwarth, E. Caldeweyher, S. Ehlert, A. Hansen, P. Pracht,
     J. Seibert, S. Spicher, S. Grimme, WIREs Comput. Mol. Sci., 2020, 11,
     e01493. DOI: 10.1002/wcms.1493
   
   for GFN2-xTB:
   * C. Bannwarth, S. Ehlert and S. Grimme., J. Chem. Theory Comput., 2019,
     15, 1652-1671. DOI: 10.1021/acs.jctc.8b01176
   for GFN1-xTB:
   * S. Grimme, C. Bannwarth, P. Shushkov, J. Chem. Theory Comput., 2017,
     13, 1989-2009. DOI: 10.1021/acs.jctc.7b00118
   for GFN0-xTB:
   * P. Pracht, E. Caldeweyher, S. Ehlert, S. Grimme, ChemRxiv, 2019, preprint.
     DOI: 10.26434/chemrxiv.8326202.v1
   for GFN-FF:
   * S. Spicher and S. Grimme, Angew. Chem. Int. Ed., 2020, 59, 15665-15673.
     DOI: 10.1002/anie.202004239
   
   for ALPB and GBSA implicit solvation:
   * S. Ehlert, M. Stahn, S. Spicher, S. Grimme, J. Chem. Theory Comput.,
     2021, 17, 4250-4261. DOI: 10.1021/acs.jctc.1c00471
   
   for DFT-D4:
   * E. Caldeweyher, C. Bannwarth and S. Grimme, J. Chem. Phys., 2017,
     147, 034112. DOI: 10.1063/1.4993215
   * E. Caldeweyher, S. Ehlert, A. Hansen, H. Neugebauer, S. Spicher,
     C. Bannwarth and S. Grimme, J. Chem. Phys., 2019, 150, 154122.
     DOI: 10.1063/1.5090222
   * E. Caldeweyher, J.-M. Mewes, S. Ehlert and S. Grimme, Phys. Chem. Chem. Phys.
     2020, 22, 8499-8512. DOI: 10.1039/D0CP00502A
   
   for sTDA-xTB:
   * S. Grimme and C. Bannwarth, J. Chem. Phys., 2016, 145, 054103.
     DOI: 10.1063/1.4959605
   
   in the mass-spec context:
   * V. Asgeirsson, C. Bauer and S. Grimme, Chem. Sci., 2017, 8, 4879.
     DOI: 10.1039/c7sc00601b
   * J. Koopman and S. Grimme, ACS Omega 2019, 4, 12, 15120-15133.
     DOI: 10.1021/acsomega.9b02011
   
   for metadynamics refer to:
   * S. Grimme, J. Chem. Theory Comput., 2019, 155, 2847-2862
     DOI: 10.1021/acs.jctc.9b00143
   
   for SPH calculations refer to:
   * S. Spicher and S. Grimme, J. Chem. Theory Comput., 2021, 17, 1701-1714
     DOI: 10.1021/acs.jctc.0c01306
   
   with help from (in alphabetical order)
   P. Atkinson, C. Bannwarth, F. Bohle, G. Brandenburg, E. Caldeweyher
   M. Checinski, S. Dohm, S. Ehlert, S. Ehrlich, I. Gerasimov, C. Hölzer
   A. Katbashev, J. Koopman, C. Lavigne, S. Lehtola, F. März, M. Müller,
   F. Musil, H. Neugebauer, J. Pisarek, C. Plett, P. Pracht, F. Pultar,
   J. Seibert, P. Shushkov, S. Spicher, M. Stahn, M. Steiner, T. Strunk,
   J. Stückrath, T. Rose, and J. Unsleber
   
 * started run on 2024/11/12 at 09:01:50.782     

           -------------------------------------------------
          |                Calculation Setup                |
           -------------------------------------------------

          program call               : xtb stacked_dimer_Katherine4.mol --opt --gfn2 --chrg -1 --uhf 0 --tight
          coordinate file            : stacked_dimer_Katherine4.mol
          omp threads                :                     8

   ID    Z sym.   atoms
    1    6 C      1-21, 26-39, 79-99, 104-117
    2    8 O      22-25, 100-103
    3    1 H      40-78, 118-156

molecular fragmentation (1/2 indicates fragments):
111111111111111111111111111111111111111111111111111111111111111111111111
111111222222222222222222222222222222222222222222222222222222222222222222
222222222222
# atoms in fragment 1/2:    78    78
 fragment masses (1/2) :      523.68      523.68
CMA distance (Bohr)    :  11.338
constraining FC (au)   :  0.0500
########################################################################
[WARNING] Please study the warnings concerning your input carefully
-2- prog_main: Charge in sdf/mol input was overwritten
-1- prog_main_parseArguments: Unknown option '--tight' provided
########################################################################

           -------------------------------------------------
          |                 G F N 2 - x T B                 |
           -------------------------------------------------

        Reference                      10.1021/acs.jctc.8b01176
      * Hamiltonian:
        H0-scaling (s, p, d)           1.850000    2.230000    2.230000
        zeta-weighting                 0.500000
      * Dispersion:
        s8                             2.700000
        a1                             0.520000
        a2                             5.000000
        s9                             5.000000
      * Repulsion:
        kExp                           1.500000    1.000000
        rExp                           1.000000
      * Coulomb:
        alpha                          2.000000
        third order                    shell-resolved
        anisotropic                    true
        a3                             3.000000
        a5                             4.000000
        cn-shift                       1.200000
        cn-exp                         4.000000
        max-rad                        5.000000


          ...................................................
          :                      SETUP                      :
          :.................................................:
          :  # basis functions                 390          :
          :  # atomic orbitals                 390          :
          :  # shells                          234          :
          :  # electrons                       407          :
          :  max. iterations                   250          :
          :  Hamiltonian                  GFN2-xTB          :
          :  restarted?                      false          :
          :  GBSA solvation                  false          :
          :  PC potential                    false          :
          :  electronic temp.          300.0000000     K    :
          :  accuracy                    1.0000000          :
          :  -> integral cutoff          0.2500000E+02      :
          :  -> integral neglect         0.1000000E-07      :
          :  -> SCF convergence          0.1000000E-05 Eh   :
          :  -> wf. convergence          0.1000000E-03 e    :
          :  Broyden damping             0.4000000          :
          ...................................................

 iter      E             dE          RMSdq      gap      omega  full diag
   1   -225.5450932 -0.225545E+03  0.385E+00    1.39       0.0  T
   2   -225.8566531 -0.311560E+00  0.213E+00    1.36       1.0  T
   3   -225.7757049  0.809482E-01  0.115E+00    0.76       1.0  T
   4   -225.8001916 -0.244867E-01  0.682E-01    0.62       1.0  T
   5   -225.8620546 -0.618630E-01  0.379E-01    1.31       1.0  T
   6   -225.8767133 -0.146587E-01  0.313E-01    1.06       1.0  T
   7   -225.8913650 -0.146517E-01  0.212E-01    1.33       1.0  T
   8   -225.8752627  0.161024E-01  0.300E-01    1.21       1.0  T
   9   -225.8929082 -0.176455E-01  0.197E-01    1.34       1.0  T
  10   -225.9003861 -0.747792E-02  0.141E-01    1.38       1.0  T
  11   -225.9079289 -0.754277E-02  0.688E-03    1.42       1.2  T
  12   -225.9079346 -0.566343E-05  0.276E-03    1.42       2.9  T
  13   -225.9079321  0.242402E-05  0.345E-03    1.42       2.3  T
  14   -225.9079356 -0.347742E-05  0.138E-03    1.42       5.8  T
  15   -225.9079356  0.621752E-07  0.130E-03    1.42       6.2  T
  16   -225.9079362 -0.630854E-06  0.138E-04    1.42      57.9  T
  17   -225.9079362 -0.235758E-09  0.956E-05    1.42      83.8  T

   *** convergence criteria satisfied after 17 iterations ***

         #    Occupation            Energy/Eh            Energy/eV
      -------------------------------------------------------------
         1        2.0000           -0.6376027             -17.3501
       ...           ...                  ...                  ...
       198        2.0000           -0.2854298              -7.7669
       199        2.0000           -0.2764623              -7.5229
       200        2.0000           -0.2759024              -7.5077
       201        2.0000           -0.2723847              -7.4120
       202        2.0000           -0.2715066              -7.3881
       203        1.5310           -0.2406627              -6.5488
       204        1.4690           -0.2404268              -6.5423 (HOMO)
       205                         -0.1883720              -5.1259 (LUMO)
       206                         -0.1877530              -5.1090
       207                         -0.1529311              -4.1615
       208                         -0.1517127              -4.1283
       209                         -0.1375571              -3.7431
       ...                                ...                  ...
       390                          0.8266853              22.4953
      -------------------------------------------------------------
                  HL-Gap            0.0520548 Eh            1.4165 eV
             Fermi-level           -0.2274333 Eh           -6.1888 eV

 SCC (total)                   0 d,  0 h,  0 min,  1.492 sec
 SCC setup                      ...        0 min,  0.001 sec (  0.087%)
 Dispersion                     ...        0 min,  0.003 sec (  0.220%)
 classical contributions        ...        0 min,  0.001 sec (  0.037%)
 integral evaluation            ...        0 min,  0.011 sec (  0.756%)
 iterations                     ...        0 min,  1.369 sec ( 91.783%)
 molecular gradient             ...        0 min,  0.084 sec (  5.612%)
 printout                       ...        0 min,  0.022 sec (  1.504%)

         :::::::::::::::::::::::::::::::::::::::::::::::::::::
         ::                     SUMMARY                     ::
         :::::::::::::::::::::::::::::::::::::::::::::::::::::
         :: total energy            -222.552889914945 Eh    ::
         :: gradient norm              0.088032580038 Eh/a0 ::
         :: HOMO-LUMO gap              1.416482843329 eV    ::
         ::.................................................::
         :: SCC energy              -225.907936185701 Eh    ::
         :: -> isotropic ES            0.260348151272 Eh    ::
         :: -> anisotropic ES          0.049662698451 Eh    ::
         :: -> anisotropic XC          0.077761220445 Eh    ::
         :: -> dispersion             -0.208653187263 Eh    ::
         :: repulsion energy           3.342822995584 Eh    ::
         :: add. restraining           0.000000000000 Eh    ::
         :: total charge              -1.000000000000 e     ::
         :::::::::::::::::::::::::::::::::::::::::::::::::::::

      ----------------------------------------------------------- 
     |                   =====================                   |
     |                        A N C O P T                        |
     |                   =====================                   |
     |               Approximate Normal Coordinate               |
     |                Rational Function Optimizer                |
      ----------------------------------------------------------- 

          ...................................................
          :                      SETUP                      :
          :.................................................:
          :   optimization level            normal          :
          :   max. optcycles                   468          :
          :   ANC micro-cycles                  20          :
          :   degrees of freedom               462          :
          :.................................................:
          :   RF solver                   davidson          :
          :   write xtbopt.log                true          :
          :   linear?                        false          :
          :   energy convergence         0.5000000E-05 Eh   :
          :   grad. convergence          0.1000000E-02 Eh/α :
          :   maxmium RF displ.          1.0000000          :
          :   Hlow (freq-cutoff)         0.1000000E-01      :
          :   Hmax (freq-cutoff)         5.0000000          :
          :   S6 in model hess.         20.0000000          :
          ...................................................

generating ANC from model Hessian ...
Using Lindh-Hessian (1995)
 Shifting diagonal of input Hessian by    1.0024082895095755E-002
 Lowest  eigenvalues of input Hessian
    0.010000    0.000000    0.000000    0.000000    0.000000    0.000000
    0.000000    0.010056    0.010090    0.010178    0.010237    0.010270
    0.010339    0.010359    0.010392    0.010432    0.010462    0.010513
 Highest eigenvalues
    2.095311    2.095319    2.193212    2.193214    2.221380    2.221383


........................................................................
.............................. CYCLE    1 ..............................
........................................................................

 iter      E             dE          RMSdq      gap      omega  full diag
   1   -225.9079362 -0.225908E+03  0.747E-05    1.42       0.0  T
   2   -225.9079359  0.241083E-06  0.799E-04    1.42      10.0  T
   3   -225.9079362 -0.243015E-06  0.154E-05    1.42     520.1  T
     SCC iter.                  ...        0 min,  0.232 sec
     gradient                   ...        0 min,  0.080 sec
 * total energy  :  -222.5528899 Eh     change       -0.2993431E-08 Eh
   gradient norm :     0.0880312 Eh/α   predicted     0.0000000E+00 (-100.00%)
   displ. norm   :     0.7667761 α      lambda       -0.5265306E-01
   maximum displ.:     0.2781426 α      in ANC's #78, #38, #98, ...

........................................................................
.............................. CYCLE    2 ..............................
........................................................................

 iter      E             dE          RMSdq      gap      omega  full diag
   1   -225.9533240 -0.225953E+03  0.166E-01    1.42       0.0  T
   2   -225.9227493  0.305747E-01  0.312E-01    1.27       1.0  T
   3   -225.9360740 -0.133247E-01  0.238E-01    1.33       1.0  T
   4   -225.9527883 -0.167143E-01  0.777E-02    1.41       1.0  T
   5   -225.9541883 -0.140000E-02  0.338E-02    1.42       1.0  T
   6   -225.9545528 -0.364466E-03  0.800E-03    1.42       1.0  T
   7   -225.9545603 -0.754528E-05  0.459E-03    1.42       1.7  T
   8   -225.9545605 -0.147570E-06  0.414E-03    1.42       1.9  T
   9   -225.9545660 -0.554458E-05  0.171E-03    1.42       4.7  T
  10   -225.9545670 -0.101870E-05  0.399E-04    1.42      20.1  T
  11   -225.9545670  0.687008E-07  0.553E-04    1.42      14.5  T
  12   -225.9545671 -0.961699E-07  0.235E-04    1.42      34.1  T
     SCC iter.                  ...        0 min,  1.162 sec
     gradient                   ...        0 min,  0.081 sec
 * total energy  :  -222.5838139 Eh     change       -0.3092394E-01 Eh
   gradient norm :     0.0290682 Eh/α   predicted    -0.4180605E-01 (  35.19%)
   displ. norm   :     0.5009198 α      lambda       -0.9791574E-02
   maximum displ.:     0.2215955 α      in ANC's #78, #38, #33, ...

........................................................................
.............................. CYCLE    3 ..............................
........................................................................

 iter      E             dE          RMSdq      gap      omega  full diag
   1   -225.9594397 -0.225959E+03  0.735E-02    1.42       0.0  T
   2   -225.9589799  0.459806E-03  0.564E-02    1.41       1.0  T
   3   -225.9377581  0.212218E-01  0.245E-01    1.32       1.0  T
   4   -225.9593475 -0.215894E-01  0.223E-02    1.43       1.0  T
   5   -225.9594618 -0.114292E-03  0.890E-03    1.42       1.0  T
   6   -225.9594814 -0.195941E-04  0.422E-03    1.42       1.9  T
   7   -225.9594870 -0.563976E-05  0.142E-03    1.42       5.6  T
   8   -225.9594875 -0.455539E-06  0.502E-04    1.42      15.9  T
   9   -225.9594875 -0.371802E-07  0.346E-04    1.42      23.1  T
     SCC iter.                  ...        0 min,  0.715 sec
     gradient                   ...        0 min,  0.078 sec
 * total energy  :  -222.5915170 Eh     change       -0.7703162E-02 Eh
   gradient norm :     0.0159017 Eh/α   predicted    -0.6124238E-02 ( -20.50%)
   displ. norm   :     0.5933121 α      lambda       -0.6892556E-02
   maximum displ.:     0.2552624 α      in ANC's #78, #38, #25, ...

........................................................................
.............................. CYCLE    4 ..............................
........................................................................

 iter      E             dE          RMSdq      gap      omega  full diag
   1   -225.9608512 -0.225961E+03  0.666E-02    1.42       0.0  T
   2   -225.9572281  0.362310E-02  0.106E-01    1.39       1.0  T
   3   -225.9513043  0.592387E-02  0.165E-01    1.36       1.0  T
   4   -225.9607779 -0.947362E-02  0.220E-02    1.42       1.0  T
   5   -225.9608934 -0.115523E-03  0.764E-03    1.42       1.0  T
   6   -225.9609123 -0.188926E-04  0.152E-03    1.42       5.3  T
   7   -225.9609125 -0.175485E-06  0.762E-04    1.42      10.5  T
   8   -225.9609125 -0.375886E-07  0.387E-04    1.42      20.7  T
     SCC iter.                  ...        0 min,  0.634 sec
     gradient                   ...        0 min,  0.084 sec
 * total energy  :  -222.5967595 Eh     change       -0.5242465E-02 Eh
   gradient norm :     0.0104243 Eh/α   predicted    -0.4659455E-02 ( -11.12%)
   displ. norm   :     0.5767560 α      lambda       -0.3775781E-02
   maximum displ.:     0.2201098 α      in ANC's #78, #38, #12, ...

........................................................................
.............................. CYCLE    5 ..............................
........................................................................

 iter      E             dE          RMSdq      gap      omega  full diag
   1   -225.9609613 -0.225961E+03  0.500E-02    1.42       0.0  T
   2   -225.9566538  0.430750E-02  0.112E-01    1.38       1.0  T
   3   -225.9582036 -0.154981E-02  0.904E-02    1.39       1.0  T
   4   -225.9609636 -0.276000E-02  0.132E-02    1.42       1.0  T
   5   -225.9610057 -0.421151E-04  0.279E-03    1.41       2.9  T
   6   -225.9610075 -0.177757E-05  0.110E-03    1.41       7.3  T
   7   -225.9610076 -0.155797E-06  0.460E-04    1.41      17.4  T
   8   -225.9610076  0.336937E-08  0.283E-04    1.41      28.3  T
     SCC iter.                  ...        0 min,  0.652 sec
     gradient                   ...        0 min,  0.079 sec
 * total energy  :  -222.5996978 Eh     change       -0.2938338E-02 Eh
   gradient norm :     0.0099653 Eh/α   predicted    -0.2515895E-02 ( -14.38%)
   displ. norm   :     0.5934405 α      lambda       -0.2395918E-02
   maximum displ.:     0.2197523 α      in ANC's #12, #78, #38, ...

........................................................................
.............................. CYCLE    6 ..............................
........................................................................

 iter      E             dE          RMSdq      gap      omega  full diag
   1   -225.9610414 -0.225961E+03  0.445E-02    1.41       0.0  T
   2   -225.9546225  0.641888E-02  0.134E-01    1.37       1.0  T
   3   -225.9602694 -0.564694E-02  0.525E-02    1.41       1.0  T
   4   -225.9610771 -0.807686E-03  0.105E-02    1.41       1.0  T
   5   -225.9611015 -0.244334E-04  0.197E-03    1.41       4.1  T
   6   -225.9611021 -0.565884E-06  0.107E-03    1.41       7.5  T
   7   -225.9611023 -0.239015E-06  0.385E-04    1.41      20.8  T
   8   -225.9611023  0.178149E-07  0.304E-04    1.41      26.3  T
     SCC iter.                  ...        0 min,  0.514 sec
     gradient                   ...        0 min,  0.086 sec
 * total energy  :  -222.6015914 Eh     change       -0.1893607E-02 Eh
   gradient norm :     0.0079471 Eh/α   predicted    -0.1619913E-02 ( -14.45%)
   displ. norm   :     0.6125153 α      lambda       -0.1621355E-02
   maximum displ.:     0.2617183 α      in ANC's #12, #18, #25, ...

........................................................................
.............................. CYCLE    7 ..............................
........................................................................

 iter      E             dE          RMSdq      gap      omega  full diag
   1   -225.9616502 -0.225962E+03  0.426E-02    1.41       0.0  T
   2   -225.9521942  0.945606E-02  0.161E-01    1.36       1.0  T
   3   -225.9614717 -0.927756E-02  0.347E-02    1.41       1.0  T
   4   -225.9617216 -0.249894E-03  0.910E-03    1.41       1.0  T
   5   -225.9617382 -0.165489E-04  0.180E-03    1.41       4.4  T
   6   -225.9617387 -0.497215E-06  0.993E-04    1.41       8.1  T
   7   -225.9617389 -0.219776E-06  0.362E-04    1.41      22.1  T
     SCC iter.                  ...        0 min,  0.641 sec
     gradient                   ...        0 min,  0.080 sec
 * total energy  :  -222.6028920 Eh     change       -0.1300583E-02 Eh
   gradient norm :     0.0050612 Eh/α   predicted    -0.1114855E-02 ( -14.28%)
   displ. norm   :     0.6206944 α      lambda       -0.1147098E-02
   maximum displ.:     0.2874514 α      in ANC's #12, #18, #25, ...

........................................................................
.............................. CYCLE    8 ..............................
........................................................................

 iter      E             dE          RMSdq      gap      omega  full diag
   1   -225.9624932 -0.225962E+03  0.431E-02    1.41       0.0  T
   2   -225.9489438  0.135494E-01  0.192E-01    1.35       1.0  T
   3   -225.9625178 -0.135740E-01  0.279E-02    1.41       1.0  T
   4   -225.9626097 -0.919475E-04  0.807E-03    1.41       1.0  T
   5   -225.9626244 -0.146760E-04  0.162E-03    1.41       4.9  T
   6   -225.9626248 -0.356510E-06  0.990E-04    1.41       8.1  T
   7   -225.9626250 -0.240561E-06  0.348E-04    1.41      23.0  T
     SCC iter.                  ...        0 min,  0.873 sec
     gradient                   ...        0 min,  0.082 sec
 * total energy  :  -222.6038274 Eh     change       -0.9354137E-03 Eh
   gradient norm :     0.0035125 Eh/α   predicted    -0.7945159E-03 ( -15.06%)
   displ. norm   :     0.6193431 α      lambda       -0.8596425E-03
   maximum displ.:     0.3003023 α      in ANC's #12, #18, #2, ...

........................................................................
.............................. CYCLE    9 ..............................
........................................................................

 iter      E             dE          RMSdq      gap      omega  full diag
   1   -225.9634766 -0.225963E+03  0.455E-02    1.41       0.0  T
   2   -225.9466027  0.168739E-01  0.214E-01    1.33       1.0  T
   3   -225.9635366 -0.169339E-01  0.288E-02    1.40       1.0  T
   4   -225.9636333 -0.966870E-04  0.759E-03    1.41       1.1  T
   5   -225.9636492 -0.159333E-04  0.147E-03    1.41       5.4  T
   6   -225.9636494 -0.192692E-06  0.103E-03    1.41       7.8  T
   7   -225.9636497 -0.268616E-06  0.340E-04    1.41      23.5  T
   8   -225.9636496  0.492198E-07  0.386E-04    1.41      20.8  T
     SCC iter.                  ...        0 min,  0.670 sec
     gradient                   ...        0 min,  0.082 sec
 * total energy  :  -222.6045389 Eh     change       -0.7114396E-03 Eh
   gradient norm :     0.0039597 Eh/α   predicted    -0.5946970E-03 ( -16.41%)
   displ. norm   :     0.6072040 α      lambda       -0.6784071E-03
   maximum displ.:     0.3026504 α      in ANC's #12, #18, #2, ...

........................................................................
.............................. CYCLE   10 ..............................
........................................................................

 iter      E             dE          RMSdq      gap      omega  full diag
   1   -225.9643559 -0.225964E+03  0.484E-02    1.40       0.0  T
   2   -225.9453881  0.189678E-01  0.227E-01    1.33       1.0  T
   3   -225.9643529 -0.189648E-01  0.337E-02    1.40       1.0  T
   4   -225.9645465 -0.193581E-03  0.646E-03    1.40       1.2  T
   5   -225.9645575 -0.110027E-04  0.164E-03    1.40       4.9  T
   6   -225.9645579 -0.440082E-06  0.941E-04    1.40       8.5  T
   7   -225.9645581 -0.190643E-06  0.347E-04    1.40      23.1  T
     SCC iter.                  ...        0 min,  0.918 sec
     gradient                   ...        0 min,  0.082 sec
 * total energy  :  -222.6051064 Eh     change       -0.5675114E-03 Eh
   gradient norm :     0.0043562 Eh/α   predicted    -0.4642713E-03 ( -18.19%)
   displ. norm   :     0.5982397 α      lambda       -0.5653675E-03
   maximum displ.:     0.3021599 α      in ANC's #12, #2, #18, ...

........................................................................
.............................. CYCLE   11 ..............................
........................................................................

 iter      E             dE          RMSdq      gap      omega  full diag
   1   -225.9651583 -0.225965E+03  0.506E-02    1.40       0.0  T
   2   -225.9463164  0.188419E-01  0.225E-01    1.33       1.0  T
   3   -225.9649028 -0.185864E-01  0.432E-02    1.40       1.0  T
   4   -225.9653433 -0.440515E-03  0.660E-03    1.40       1.2  T
   5   -225.9653541 -0.107788E-04  0.223E-03    1.40       3.6  T
   6   -225.9653555 -0.139614E-05  0.764E-04    1.40      10.5  T
   7   -225.9653556 -0.649163E-07  0.360E-04    1.40      22.3  T
   8   -225.9653556  0.499483E-08  0.188E-04    1.40      42.6  T
     SCC iter.                  ...        0 min,  0.804 sec
     gradient                   ...        0 min,  0.077 sec
 * total energy  :  -222.6055802 Eh     change       -0.4738307E-03 Eh
   gradient norm :     0.0041182 Eh/α   predicted    -0.3838573E-03 ( -18.99%)
   displ. norm   :     0.5936395 α      lambda       -0.4851670E-03
   maximum displ.:     0.2990224 α      in ANC's #12, #2, #18, ...

........................................................................
.............................. CYCLE   12 ..............................
........................................................................

 iter      E             dE          RMSdq      gap      omega  full diag
   1   -225.9656542 -0.225966E+03  0.515E-02    1.40       0.0  T
   2   -225.9492680  0.163862E-01  0.209E-01    1.34       1.0  T
   3   -225.9649141 -0.156461E-01  0.558E-02    1.40       1.0  T
   4   -225.9657961 -0.881956E-03  0.772E-03    1.40       1.0  T
   5   -225.9658118 -0.156972E-04  0.250E-03    1.40       3.2  T
   6   -225.9658137 -0.192805E-05  0.697E-04    1.40      11.5  T
   7   -225.9658137 -0.174887E-07  0.393E-04    1.40      20.4  T
   8   -225.9658137 -0.920599E-08  0.160E-04    1.40      50.2  T
     SCC iter.                  ...        0 min,  0.606 sec
     gradient                   ...        0 min,  0.077 sec
 * total energy  :  -222.6059848 Eh     change       -0.4045621E-03 Eh
   gradient norm :     0.0035987 Eh/α   predicted    -0.3280718E-03 ( -18.91%)
   displ. norm   :     0.5817285 α      lambda       -0.4219483E-03
   maximum displ.:     0.2864774 α      in ANC's #12, #2, #18, ...

........................................................................
.............................. CYCLE   13 ..............................
........................................................................

 iter      E             dE          RMSdq      gap      omega  full diag
   1   -225.9662509 -0.225966E+03  0.502E-02    1.40       0.0  T
   2   -225.9553392  0.109118E-01  0.171E-01    1.35       1.0  T
   3   -225.9646807 -0.934156E-02  0.718E-02    1.40       1.0  T
   4   -225.9663263 -0.164559E-02  0.780E-03    1.40       1.0  T
   5   -225.9663450 -0.187294E-04  0.134E-03    1.40       6.0  T
   6   -225.9663453 -0.265585E-06  0.692E-04    1.40      11.6  T
   7   -225.9663453 -0.117606E-07  0.407E-04    1.40      19.7  T
     SCC iter.                  ...        0 min,  0.575 sec
     gradient                   ...        0 min,  0.091 sec
 * total energy  :  -222.6063361 Eh     change       -0.3513337E-03 Eh
   gradient norm :     0.0037549 Eh/α   predicted    -0.2823701E-03 ( -19.63%)
   displ. norm   :     0.5732306 α      lambda       -0.3826622E-03
   maximum displ.:     0.2715698 α      in ANC's #2, #12, #5, ...

........................................................................
.............................. CYCLE   14 ..............................
........................................................................

 iter      E             dE          RMSdq      gap      omega  full diag
   1   -225.9662649 -0.225966E+03  0.484E-02    1.40       0.0  T
   2   -225.9610624  0.520246E-02  0.119E-01    1.37       1.0  T
   3   -225.9631615 -0.209909E-02  0.950E-02    1.39       1.0  T
   4   -225.9662604 -0.309890E-02  0.114E-02    1.40       1.0  T
   5   -225.9663040 -0.436009E-04  0.302E-03    1.40       2.7  T
   6   -225.9663072 -0.315870E-05  0.652E-04    1.40      12.3  T
   7   -225.9663071  0.110138E-06  0.661E-04    1.40      12.1  T
   8   -225.9663072 -0.129104E-06  0.202E-04    1.40      39.7  T
     SCC iter.                  ...        0 min,  0.663 sec
     gradient                   ...        0 min,  0.080 sec
 * total energy  :  -222.6066554 Eh     change       -0.3193288E-03 Eh
   gradient norm :     0.0038353 Eh/α   predicted    -0.2542013E-03 ( -20.40%)
   displ. norm   :     0.5621086 α      lambda       -0.3674495E-03
   maximum displ.:     0.2845507 α      in ANC's #2, #12, #5, ...

........................................................................
.............................. CYCLE   15 ..............................
........................................................................

 iter      E             dE          RMSdq      gap      omega  full diag
   1   -225.9674312 -0.225967E+03  0.471E-02    1.40       0.0  T
   2   -225.9667285  0.702681E-03  0.501E-02    1.40       1.0  T
   3   -225.9568191  0.990942E-02  0.169E-01    1.36       1.0  T
   4   -225.9672899 -0.104708E-01  0.198E-02    1.40       1.0  T
   5   -225.9674255 -0.135547E-03  0.600E-03    1.40       1.3  T
   6   -225.9674385 -0.130328E-04  0.143E-03    1.40       5.6  T
   7   -225.9674390 -0.488122E-06  0.763E-04    1.40      10.5  T
   8   -225.9674391 -0.619327E-07  0.579E-04    1.40      13.8  T
     SCC iter.                  ...        0 min,  0.806 sec
     gradient                   ...        0 min,  0.079 sec
 * total energy  :  -222.6069557 Eh     change       -0.3002258E-03 Eh
   gradient norm :     0.0051431 Eh/α   predicted    -0.2417776E-03 ( -19.47%)
   displ. norm   :     0.5537600 α      lambda       -0.3558636E-03
   maximum displ.:     0.2934343 α      in ANC's #2, #12, #9, ...

........................................................................
.............................. CYCLE   16 ..............................
........................................................................

 iter      E             dE          RMSdq      gap      omega  full diag
   1   -225.9664963 -0.225966E+03  0.453E-02    1.40       0.0  T
   2   -225.9664332  0.631279E-04  0.295E-02    1.40       1.0  T
   3   -225.9528780  0.135551E-01  0.189E-01    1.34       1.0  T
   4   -225.9664810 -0.136030E-01  0.779E-03    1.40       1.0  T
   5   -225.9664962 -0.151931E-04  0.303E-03    1.40       2.6  T
   6   -225.9664993 -0.303256E-05  0.103E-03    1.40       7.8  T
   7   -225.9664995 -0.263890E-06  0.438E-04    1.40      18.3  T
   8   -225.9664995  0.404585E-07  0.463E-04    1.40      17.3  T
     SCC iter.                  ...        0 min,  0.709 sec
     gradient                   ...        0 min,  0.089 sec
 * total energy  :  -222.6072331 Eh     change       -0.2774394E-03 Eh
   gradient norm :     0.0044701 Eh/α   predicted    -0.2324948E-03 ( -16.20%)
   displ. norm   :     0.5207254 α      lambda       -0.3157072E-03
   maximum displ.:     0.2889914 α      in ANC's #2, #12, #5, ...

........................................................................
.............................. CYCLE   17 ..............................
........................................................................

 iter      E             dE          RMSdq      gap      omega  full diag
   1   -225.9676589 -0.225968E+03  0.425E-02    1.40       0.0  T
   2   -225.9670511  0.607746E-03  0.475E-02    1.40       1.0  T
   3   -225.9584296  0.862151E-02  0.155E-01    1.36       1.0  T
   4   -225.9676582 -0.922859E-02  0.630E-03    1.40       1.3  T
   5   -225.9676668 -0.852611E-05  0.103E-03    1.40       7.8  T
   6   -225.9676668 -0.474588E-07  0.654E-04    1.40      12.2  T
   7   -225.9676669 -0.614391E-07  0.297E-04    1.40      27.0  T
     SCC iter.                  ...        0 min,  0.660 sec
     gradient                   ...        0 min,  0.078 sec
 * total energy  :  -222.6074832 Eh     change       -0.2501218E-03 Eh
   gradient norm :     0.0041173 Eh/α   predicted    -0.2006657E-03 ( -19.77%)
   displ. norm   :     0.4519035 α      lambda       -0.2533556E-03
   maximum displ.:     0.2652544 α      in ANC's #2, #12, #5, ...

........................................................................
.............................. CYCLE   18 ..............................
........................................................................

 iter      E             dE          RMSdq      gap      omega  full diag
   1   -225.9680089 -0.225968E+03  0.341E-02    1.40       0.0  T
   2   -225.9678621  0.146804E-03  0.283E-02    1.40       1.0  T
   3   -225.9573339  0.105282E-01  0.166E-01    1.35       1.0  T
   4   -225.9680058 -0.106719E-01  0.531E-03    1.40       1.5  T
   5   -225.9680124 -0.662327E-05  0.911E-04    1.40       8.8  T
   6   -225.9680125 -0.895933E-07  0.550E-04    1.40      14.6  T
   7   -225.9680126 -0.532855E-07  0.239E-04    1.40      33.5  T
     SCC iter.                  ...        0 min,  0.688 sec
     gradient                   ...        0 min,  0.079 sec
 * total energy  :  -222.6076932 Eh     change       -0.2100096E-03 Eh
   gradient norm :     0.0031662 Eh/α   predicted    -0.1525503E-03 ( -27.36%)
   displ. norm   :     0.4448085 α      lambda       -0.2449249E-03
   maximum displ.:     0.2716811 α      in ANC's #2, #6, #5, ...

........................................................................
.............................. CYCLE   19 ..............................
........................................................................

 iter      E             dE          RMSdq      gap      omega  full diag
   1   -225.9685662 -0.225969E+03  0.316E-02    1.40       0.0  T
   2   -225.9685453  0.209513E-04  0.204E-02    1.40       1.0  T
   3   -225.9613675  0.717778E-02  0.136E-01    1.37       1.0  T
   4   -225.9685560 -0.718849E-02  0.638E-03    1.40       1.3  T
   5   -225.9685664 -0.104203E-04  0.246E-03    1.40       3.3  T
   6   -225.9685687 -0.227166E-05  0.522E-04    1.40      15.3  T
   7   -225.9685687 -0.460824E-07  0.264E-04    1.40      30.3  T
   8   -225.9685687 -0.307787E-08  0.163E-04    1.40      49.0  T
     SCC iter.                  ...        0 min,  0.745 sec
     gradient                   ...        0 min,  0.082 sec
 * total energy  :  -222.6078966 Eh     change       -0.2034013E-03 Eh
   gradient norm :     0.0033746 Eh/α   predicted    -0.1466949E-03 ( -27.88%)
   displ. norm   :     0.4458650 α      lambda       -0.2312564E-03
   maximum displ.:     0.2783692 α      in ANC's #2, #6, #5, ...

........................................................................
.............................. CYCLE   20 ..............................
........................................................................

 iter      E             dE          RMSdq      gap      omega  full diag
   1   -225.9686820 -0.225969E+03  0.300E-02    1.40       0.0  T
   2   -225.9671113  0.157072E-02  0.661E-02    1.39       1.0  T
   3   -225.9676175 -0.506235E-03  0.547E-02    1.40       1.0  T
   4   -225.9686881 -0.107053E-02  0.529E-03    1.40       1.5  T
   5   -225.9686937 -0.567711E-05  0.201E-03    1.40       4.0  T
   6   -225.9686953 -0.150791E-05  0.395E-04    1.40      20.3  T
   7   -225.9686953 -0.476302E-08  0.251E-04    1.40      31.9  T
   8   -225.9686953 -0.937283E-08  0.928E-05    1.40      86.2  T
     SCC iter.                  ...        0 min,  0.688 sec
     gradient                   ...        0 min,  0.078 sec
 * total energy  :  -222.6080910 Eh     change       -0.1943534E-03 Eh
   gradient norm :     0.0039987 Eh/α   predicted    -0.1386193E-03 ( -28.68%)
   displ. norm   :     0.4360839 α      lambda       -0.2237831E-03
   maximum displ.:     0.2772047 α      in ANC's #2, #6, #5, ...
 * RMSD in coord.:     0.7010457 α      energy gain  -0.5520107E-01 Eh

generating ANC from model Hessian ...
Using Lindh-Hessian (1995)
 Shifting diagonal of input Hessian by    1.0009730775818486E-002
 Lowest  eigenvalues of input Hessian
    0.010000    0.000000    0.000000    0.000000    0.000000    0.000000
    0.000000    0.010012    0.010025    0.010160    0.010164    0.010184
    0.010256    0.010265    0.010295    0.010307    0.010314    0.010381
 Highest eigenvalues
    2.098574    2.104117    2.206140    2.207660    2.232888    2.234181


........................................................................
.............................. CYCLE   21 ..............................
........................................................................

 iter      E             dE          RMSdq      gap      omega  full diag
   1   -225.9691187 -0.225969E+03  0.295E-02    1.40       0.0  T
   2   -225.9649004  0.421822E-02  0.106E-01    1.37       1.0  T
   3   -225.9688623 -0.396188E-02  0.312E-02    1.40       1.0  T
   4   -225.9691465 -0.284207E-03  0.424E-03    1.40       1.9  T
   5   -225.9691504 -0.385696E-05  0.107E-03    1.40       7.5  T
   6   -225.9691507 -0.308031E-06  0.451E-04    1.40      17.8  T
   7   -225.9691507 -0.372823E-07  0.210E-04    1.40      38.2  T
     SCC iter.                  ...        0 min,  0.616 sec
     gradient                   ...        0 min,  0.082 sec
 * total energy  :  -222.6082808 Eh     change       -0.1897931E-03 Eh
   gradient norm :     0.0039575 Eh/α   predicted     0.0000000E+00 (-100.00%)
   displ. norm   :     0.0725792 α      lambda       -0.8037983E-04
   maximum displ.:     0.0453570 α      in ANC's #3, #26, #35, ...

........................................................................
.............................. CYCLE   22 ..............................
........................................................................

 iter      E             dE          RMSdq      gap      omega  full diag
   1   -225.9691695 -0.225969E+03  0.973E-03    1.40       0.0  T
   2   -225.9679831  0.118637E-02  0.553E-02    1.39       1.0  T
   3   -225.9691702 -0.118713E-02  0.687E-03    1.40       1.2  T
   4   -225.9691760 -0.575300E-05  0.282E-03    1.40       2.8  T
   5   -225.9691784 -0.246081E-05  0.645E-04    1.40      12.4  T
   6   -225.9691785 -0.104443E-06  0.208E-04    1.40      38.6  T
   7   -225.9691785 -0.951465E-08  0.942E-05    1.40      85.0  T
     SCC iter.                  ...        0 min,  0.601 sec
     gradient                   ...        0 min,  0.082 sec
 * total energy  :  -222.6083549 Eh     change       -0.7416791E-04 Eh
   gradient norm :     0.0017799 Eh/α   predicted    -0.4242366E-04 ( -42.80%)
   displ. norm   :     0.3726194 α      lambda       -0.2140987E-03
   maximum displ.:     0.2189942 α      in ANC's #3, #26, #35, ...

........................................................................
.............................. CYCLE   23 ..............................
........................................................................

 iter      E             dE          RMSdq      gap      omega  full diag
   1   -225.9681749 -0.225968E+03  0.448E-02    1.40       0.0  T
   2   -225.9524971  0.156778E-01  0.202E-01    1.33       1.0  T
   3   -225.9680606 -0.155635E-01  0.351E-02    1.40       1.0  T
   4   -225.9682890 -0.228417E-03  0.102E-02    1.40       1.0  T
   5   -225.9683195 -0.304965E-04  0.316E-03    1.40       2.5  T
   6   -225.9683226 -0.308113E-05  0.982E-04    1.40       8.2  T
   7   -225.9683228 -0.208714E-06  0.470E-04    1.40      17.0  T
   8   -225.9683228 -0.295860E-07  0.205E-04    1.40      39.1  T
     SCC iter.                  ...        0 min,  0.808 sec
     gradient                   ...        0 min,  0.081 sec
 * total energy  :  -222.6085447 Eh     change       -0.1897547E-03 Eh
   gradient norm :     0.0061890 Eh/α   predicted    -0.1136626E-03 ( -40.10%)
   displ. norm   :     0.1388247 α      lambda       -0.8452512E-04
   maximum displ.:     0.0927026 α      in ANC's #3, #26, #18, ...

........................................................................
.............................. CYCLE   24 ..............................
........................................................................

 iter      E             dE          RMSdq      gap      omega  full diag
   1   -225.9684492 -0.225968E+03  0.126E-02    1.40       0.0  T
   2   -225.9680965  0.352724E-03  0.308E-02    1.40       1.0  T
   3   -225.9682796 -0.183090E-03  0.221E-02    1.40       1.0  T
   4   -225.9684493 -0.169735E-03  0.273E-03    1.40       2.9  T
   5   -225.9684519 -0.258787E-05  0.523E-04    1.40      15.3  T
   6   -225.9684519 -0.672597E-07  0.223E-04    1.40      35.9  T
   7   -225.9684520 -0.659278E-08  0.109E-04    1.40      73.4  T
     SCC iter.                  ...        0 min,  0.623 sec
     gradient                   ...        0 min,  0.082 sec
 * total energy  :  -222.6086218 Eh     change       -0.7708773E-04 Eh
   gradient norm :     0.0051808 Eh/α   predicted    -0.4308064E-04 ( -44.11%)
   displ. norm   :     0.2541187 α      lambda       -0.1703057E-03
   maximum displ.:     0.1693779 α      in ANC's #3, #26, #11, ...

........................................................................
.............................. CYCLE   25 ..............................
........................................................................

 iter      E             dE          RMSdq      gap      omega  full diag
   1   -225.9689775 -0.225969E+03  0.223E-02    1.40       0.0  T
   2   -225.9689748  0.271817E-05  0.137E-02    1.40       1.0  T
   3   -225.9667906  0.218421E-02  0.746E-02    1.38       1.0  T
   4   -225.9689285 -0.213791E-02  0.117E-02    1.40       1.0  T
   5   -225.9689794 -0.509119E-04  0.125E-03    1.40       6.4  T
   6   -225.9689798 -0.433651E-06  0.358E-04    1.40      22.4  T
   7   -225.9689798 -0.452650E-08  0.219E-04    1.40      36.6  T
     SCC iter.                  ...        0 min,  0.622 sec
     gradient                   ...        0 min,  0.077 sec
 * total energy  :  -222.6087628 Eh     change       -0.1410339E-03 Eh
   gradient norm :     0.0018662 Eh/α   predicted    -0.9067846E-04 ( -35.70%)
   displ. norm   :     0.4833947 α      lambda       -0.1592687E-03
   maximum displ.:     0.3281046 α      in ANC's #3, #26, #11, ...

........................................................................
.............................. CYCLE   26 ..............................
........................................................................

 iter      E             dE          RMSdq      gap      omega  full diag
   1   -225.9688690 -0.225969E+03  0.418E-02    1.40       0.0  T
   2   -225.9686291  0.239924E-03  0.354E-02    1.40       1.0  T
   3   -225.9573948  0.112343E-01  0.172E-01    1.35       1.0  T
   4   -225.9688071 -0.114124E-01  0.138E-02    1.40       1.0  T
   5   -225.9688680 -0.608725E-04  0.449E-03    1.40       1.8  T
   6   -225.9688753 -0.732310E-05  0.109E-03    1.40       7.3  T
   7   -225.9688757 -0.330782E-06  0.468E-04    1.40      17.1  T
   8   -225.9688757 -0.203904E-07  0.260E-04    1.40      30.8  T
     SCC iter.                  ...        0 min,  0.688 sec
     gradient                   ...        0 min,  0.080 sec
 * total energy  :  -222.6089407 Eh     change       -0.1778818E-03 Eh
   gradient norm :     0.0046670 Eh/α   predicted    -0.8790900E-04 ( -50.58%)
   displ. norm   :     0.2307672 α      lambda       -0.1022269E-03
   maximum displ.:     0.1619809 α      in ANC's #3, #11, #7, ...

........................................................................
.............................. CYCLE   27 ..............................
........................................................................

 iter      E             dE          RMSdq      gap      omega  full diag
   1   -225.9692342 -0.225969E+03  0.191E-02    1.40       0.0  T
   2   -225.9690198  0.214393E-03  0.262E-02    1.40       1.0  T
   3   -225.9680070  0.101287E-02  0.566E-02    1.39       1.0  T
   4   -225.9692319 -0.122497E-02  0.370E-03    1.40       2.2  T
   5   -225.9692358 -0.389736E-05  0.117E-03    1.40       6.8  T
   6   -225.9692363 -0.465263E-06  0.330E-04    1.40      24.3  T
   7   -225.9692363 -0.178231E-07  0.139E-04    1.40      57.7  T
     SCC iter.                  ...        0 min,  0.638 sec
     gradient                   ...        0 min,  0.078 sec
 * total energy  :  -222.6090376 Eh     change       -0.9684539E-04 Eh
   gradient norm :     0.0046476 Eh/α   predicted    -0.5383869E-04 ( -44.41%)
   displ. norm   :     0.2797674 α      lambda       -0.1568430E-03
   maximum displ.:     0.1956845 α      in ANC's #3, #11, #8, ...

........................................................................
.............................. CYCLE   28 ..............................
........................................................................

 iter      E             dE          RMSdq      gap      omega  full diag
   1   -225.9700783 -0.225970E+03  0.225E-02    1.40       0.0  T
   2   -225.9696861  0.392202E-03  0.345E-02    1.40       1.0  T
   3   -225.9687396  0.946486E-03  0.594E-02    1.39       1.0  T
   4   -225.9700762 -0.133654E-02  0.428E-03    1.40       1.9  T
   5   -225.9700812 -0.502004E-05  0.141E-03    1.40       5.7  T
   6   -225.9700818 -0.661468E-06  0.455E-04    1.40      17.6  T
   7   -225.9700819 -0.451897E-07  0.179E-04    1.40      44.8  T
     SCC iter.                  ...        0 min,  0.565 sec
     gradient                   ...        0 min,  0.076 sec
 * total energy  :  -222.6091833 Eh     change       -0.1457846E-03 Eh
   gradient norm :     0.0032867 Eh/α   predicted    -0.8456167E-04 ( -42.00%)
   displ. norm   :     0.4058045 α      lambda       -0.2194416E-03
   maximum displ.:     0.2823425 α      in ANC's #3, #11, #8, ...

........................................................................
.............................. CYCLE   29 ..............................
........................................................................

 iter      E             dE          RMSdq      gap      omega  full diag
   1   -225.9703221 -0.225970E+03  0.315E-02    1.40       0.0  T
   2   -225.9694425  0.879586E-03  0.510E-02    1.39       1.0  T
   3   -225.9679954  0.144709E-02  0.787E-02    1.39       1.0  T
   4   -225.9703154 -0.231995E-02  0.663E-03    1.40       1.2  T
   5   -225.9703278 -0.124273E-04  0.237E-03    1.40       3.4  T
   6   -225.9703298 -0.198696E-05  0.623E-04    1.40      12.9  T
   7   -225.9703299 -0.621847E-07  0.314E-04    1.40      25.5  T
   8   -225.9703299 -0.163520E-07  0.168E-04    1.40      47.7  T
     SCC iter.                  ...        0 min,  0.666 sec
     gradient                   ...        0 min,  0.075 sec
 * total energy  :  -222.6093792 Eh     change       -0.1958314E-03 Eh
   gradient norm :     0.0019451 Eh/α   predicted    -0.1277932E-03 ( -34.74%)
   displ. norm   :     0.6750933 α      lambda       -0.2078996E-03
   maximum displ.:     0.4726306 α      in ANC's #3, #11, #8, ...

........................................................................
.............................. CYCLE   30 ..............................
........................................................................

 iter      E             dE          RMSdq      gap      omega  full diag
   1   -225.9696732 -0.225970E+03  0.493E-02    1.40       0.0  T
   2   -225.9658716  0.380153E-02  0.103E-01    1.37       1.0  T
   3   -225.9663634 -0.491720E-03  0.960E-02    1.39       1.0  T
   4   -225.9696608 -0.329746E-02  0.113E-02    1.40       1.0  T
   5   -225.9696983 -0.374940E-04  0.404E-03    1.40       2.0  T
   6   -225.9697043 -0.599727E-05  0.866E-04    1.40       9.2  T
   7   -225.9697043 -0.278614E-07  0.567E-04    1.40      14.1  T
   8   -225.9697044 -0.818744E-07  0.210E-04    1.40      38.2  T
     SCC iter.                  ...        0 min,  0.654 sec
     gradient                   ...        0 min,  0.081 sec
 * total energy  :  -222.6096381 Eh     change       -0.2589312E-03 Eh
   gradient norm :     0.0033487 Eh/α   predicted    -0.1250060E-03 ( -51.72%)
   displ. norm   :     0.3376041 α      lambda       -0.1395203E-03
   maximum displ.:     0.2409939 α      in ANC's #3, #11, #8, ...

........................................................................
.............................. CYCLE   31 ..............................
........................................................................

 iter      E             dE          RMSdq      gap      omega  full diag
   1   -225.9700385 -0.225970E+03  0.217E-02    1.40       0.0  T
   2   -225.9686810  0.135748E-02  0.600E-02    1.39       1.0  T
   3   -225.9695940 -0.913042E-03  0.361E-02    1.40       1.0  T
   4   -225.9700441 -0.450053E-03  0.386E-03    1.40       2.1  T
   5   -225.9700484 -0.435090E-05  0.107E-03    1.40       7.5  T
   6   -225.9700488 -0.361576E-06  0.355E-04    1.40      22.5  T
   7   -225.9700488 -0.110556E-07  0.193E-04    1.40      41.4  T
     SCC iter.                  ...        0 min,  0.560 sec
     gradient                   ...        0 min,  0.081 sec
 * total energy  :  -222.6097703 Eh     change       -0.1322238E-03 Eh
   gradient norm :     0.0033138 Eh/α   predicted    -0.7771255E-04 ( -41.23%)
   displ. norm   :     0.3225178 α      lambda       -0.1509205E-03
   maximum displ.:     0.2285614 α      in ANC's #3, #11, #8, ...

........................................................................
.............................. CYCLE   32 ..............................
........................................................................

 iter      E             dE          RMSdq      gap      omega  full diag
   1   -225.9705077 -0.225971E+03  0.201E-02    1.40       0.0  T
   2   -225.9686842  0.182344E-02  0.688E-02    1.39       1.0  T
   3   -225.9702258 -0.154160E-02  0.297E-02    1.40       1.0  T
   4   -225.9705166 -0.290802E-03  0.367E-03    1.40       2.2  T
   5   -225.9705209 -0.431378E-05  0.912E-04    1.40       8.8  T
   6   -225.9705212 -0.261506E-06  0.291E-04    1.40      27.5  T
   7   -225.9705212 -0.679890E-08  0.165E-04    1.40      48.4  T
     SCC iter.                  ...        0 min,  0.538 sec
     gradient                   ...        0 min,  0.081 sec
 * total energy  :  -222.6099161 Eh     change       -0.1457404E-03 Eh
   gradient norm :     0.0026957 Eh/α   predicted    -0.8331190E-04 ( -42.84%)
   displ. norm   :     0.3930896 α      lambda       -0.1966756E-03
   maximum displ.:     0.2750985 α      in ANC's #3, #8, #11, ...

........................................................................
.............................. CYCLE   33 ..............................
........................................................................

 iter      E             dE          RMSdq      gap      omega  full diag
   1   -225.9707429 -0.225971E+03  0.248E-02    1.40       0.0  T
   2   -225.9671374  0.360550E-02  0.964E-02    1.38       1.0  T
   3   -225.9703949 -0.325744E-02  0.339E-02    1.40       1.0  T
   4   -225.9707639 -0.369013E-03  0.417E-03    1.40       1.9  T
   5   -225.9707694 -0.554992E-05  0.107E-03    1.40       7.5  T
   6   -225.9707698 -0.364957E-06  0.318E-04    1.40      25.2  T
   7   -225.9707698 -0.510883E-08  0.195E-04    1.40      41.1  T
     SCC iter.                  ...        0 min,  0.547 sec
     gradient                   ...        0 min,  0.080 sec
 * total energy  :  -222.6101043 Eh     change       -0.1882778E-03 Eh
   gradient norm :     0.0019643 Eh/α   predicted    -0.1135350E-03 ( -39.70%)
   displ. norm   :     0.7090778 α      lambda       -0.2323059E-03
   maximum displ.:     0.4950502 α      in ANC's #3, #8, #11, ...

........................................................................
.............................. CYCLE   34 ..............................
........................................................................

 iter      E             dE          RMSdq      gap      omega  full diag
   1   -225.9705626 -0.225971E+03  0.452E-02    1.40       0.0  T
   2   -225.9580768  0.124858E-01  0.180E-01    1.35       1.0  T
   3   -225.9696302 -0.115535E-01  0.571E-02    1.40       1.0  T
   4   -225.9706611 -0.103082E-02  0.518E-03    1.40       1.5  T
   5   -225.9706683 -0.719559E-05  0.121E-03    1.40       6.6  T
   6   -225.9706685 -0.266103E-06  0.608E-04    1.40      13.2  T
   7   -225.9706686 -0.418317E-07  0.331E-04    1.40      24.2  T
     SCC iter.                  ...        0 min,  0.595 sec
     gradient                   ...        0 min,  0.077 sec
 * total energy  :  -222.6104234 Eh     change       -0.3190161E-03 Eh
   gradient norm :     0.0022389 Eh/α   predicted    -0.1421138E-03 ( -55.45%)
   displ. norm   :     0.4574991 α      lambda       -0.2008336E-03
   maximum displ.:     0.3233926 α      in ANC's #3, #8, #11, ...

........................................................................
.............................. CYCLE   35 ..............................
........................................................................

 iter      E             dE          RMSdq      gap      omega  full diag
   1   -225.9709574 -0.225971E+03  0.284E-02    1.40       0.0  T
   2   -225.9650398  0.591760E-02  0.123E-01    1.37       1.0  T
   3   -225.9706444 -0.560464E-02  0.339E-02    1.40       1.0  T
   4   -225.9709976 -0.353133E-03  0.402E-03    1.40       2.0  T
   5   -225.9710021 -0.451890E-05  0.125E-03    1.40       6.4  T
   6   -225.9710026 -0.522208E-06  0.336E-04    1.40      23.8  T
   7   -225.9710026  0.186049E-09  0.237E-04    1.40      33.8  T
     SCC iter.                  ...        0 min,  0.688 sec
     gradient                   ...        0 min,  0.086 sec
 * total energy  :  -222.6106154 Eh     change       -0.1920793E-03 Eh
   gradient norm :     0.0024243 Eh/α   predicted    -0.1214401E-03 ( -36.78%)
   displ. norm   :     0.4134189 α      lambda       -0.1803955E-03
   maximum displ.:     0.2949489 α      in ANC's #3, #8, #6, ...

........................................................................
.............................. CYCLE   36 ..............................
........................................................................

 iter      E             dE          RMSdq      gap      omega  full diag
   1   -225.9715530 -0.225972E+03  0.251E-02    1.40       0.0  T
   2   -225.9666235  0.492952E-02  0.113E-01    1.37       1.0  T
   3   -225.9713411 -0.471763E-02  0.286E-02    1.40       1.0  T
   4   -225.9715867 -0.245549E-03  0.349E-03    1.40       2.3  T
   5   -225.9715898 -0.312033E-05  0.119E-03    1.40       6.7  T
   6   -225.9715903 -0.494546E-06  0.293E-04    1.40      27.3  T
   7   -225.9715903  0.946159E-09  0.214E-04    1.40      37.3  T
     SCC iter.                  ...        0 min,  0.574 sec
     gradient                   ...        0 min,  0.076 sec
 * total energy  :  -222.6107902 Eh     change       -0.1748058E-03 Eh
   gradient norm :     0.0023692 Eh/α   predicted    -0.1056148E-03 ( -39.58%)
   displ. norm   :     0.3779289 α      lambda       -0.1702826E-03
   maximum displ.:     0.2713285 α      in ANC's #3, #8, #6, ...

........................................................................
.............................. CYCLE   37 ..............................
........................................................................

 iter      E             dE          RMSdq      gap      omega  full diag
   1   -225.9721339 -0.225972E+03  0.224E-02    1.40       0.0  T
   2   -225.9681647  0.396916E-02  0.101E-01    1.38       1.0  T
   3   -225.9719792 -0.381448E-02  0.247E-02    1.40       1.0  T
   4   -225.9721607 -0.181507E-03  0.321E-03    1.40       2.5  T
   5   -225.9721632 -0.253459E-05  0.113E-03    1.40       7.1  T
   6   -225.9721637 -0.450034E-06  0.262E-04    1.40      30.6  T
   7   -225.9721637  0.179739E-08  0.199E-04    1.40      40.3  T
     SCC iter.                  ...        0 min,  0.638 sec
     gradient                   ...        0 min,  0.082 sec
 * total energy  :  -222.6109572 Eh     change       -0.1669835E-03 Eh
   gradient norm :     0.0021087 Eh/α   predicted    -0.9730276E-04 ( -41.73%)
   displ. norm   :     0.3700702 α      lambda       -0.1763704E-03
   maximum displ.:     0.2663605 α      in ANC's #3, #8, #6, ...

........................................................................
.............................. CYCLE   38 ..............................
........................................................................

 iter      E             dE          RMSdq      gap      omega  full diag
   1   -225.9726871 -0.225973E+03  0.213E-02    1.40       0.0  T
   2   -225.9689332  0.375381E-02  0.983E-02    1.38       1.0  T
   3   -225.9725663 -0.363306E-02  0.225E-02    1.40       1.0  T
   4   -225.9727125 -0.146233E-03  0.314E-03    1.40       2.6  T
   5   -225.9727149 -0.235037E-05  0.106E-03    1.40       7.6  T
   6   -225.9727153 -0.392228E-06  0.258E-04    1.40      31.0  T
   7   -225.9727153  0.243745E-09  0.191E-04    1.40      41.9  T
     SCC iter.                  ...        0 min,  0.419 sec
     gradient                   ...        0 min,  0.078 sec
 * total energy  :  -222.6111311 Eh     change       -0.1739145E-03 Eh
   gradient norm :     0.0018720 Eh/α   predicted    -0.1002627E-03 ( -42.35%)
   displ. norm   :     0.5881013 α      lambda       -0.1971078E-03
   maximum displ.:     0.4225895 α      in ANC's #3, #6, #8, ...

........................................................................
.............................. CYCLE   39 ..............................
........................................................................

 iter      E             dE          RMSdq      gap      omega  full diag
   1   -225.9731268 -0.225973E+03  0.330E-02    1.39       0.0  T
   2   -225.9642422  0.888460E-02  0.151E-01    1.36       1.0  T
   3   -225.9728832 -0.864106E-02  0.331E-02    1.39       1.0  T
   4   -225.9731923 -0.309085E-03  0.481E-03    1.40       1.7  T
   5   -225.9731978 -0.543768E-05  0.134E-03    1.40       6.0  T
   6   -225.9731983 -0.561423E-06  0.444E-04    1.40      18.0  T
   7   -225.9731983 -0.922785E-08  0.309E-04    1.40      25.9  T
     SCC iter.                  ...        0 min,  0.505 sec
     gradient                   ...        0 min,  0.076 sec
 * total energy  :  -222.6114207 Eh     change       -0.2895973E-03 Eh
   gradient norm :     0.0015394 Eh/α   predicted    -0.1137042E-03 ( -60.74%)
   displ. norm   :     0.6383555 α      lambda       -0.2197132E-03
   maximum displ.:     0.4583006 α      in ANC's #3, #6, #2, ...

........................................................................
.............................. CYCLE   40 ..............................
........................................................................

 iter      E             dE          RMSdq      gap      omega  full diag
   1   -225.9734279 -0.225973E+03  0.351E-02    1.39       0.0  T
   2   -225.9621860  0.112419E-01  0.170E-01    1.35       1.0  T
   3   -225.9732426 -0.110566E-01  0.321E-02    1.39       1.0  T
   4   -225.9735146 -0.271917E-03  0.535E-03    1.39       1.5  T
   5   -225.9735214 -0.680517E-05  0.129E-03    1.39       6.2  T
   6   -225.9735218 -0.451875E-06  0.525E-04    1.39      15.2  T
   7   -225.9735219 -0.312723E-07  0.326E-04    1.39      24.6  T
     SCC iter.                  ...        0 min,  0.467 sec
     gradient                   ...        0 min,  0.078 sec
 * total energy  :  -222.6117431 Eh     change       -0.3223715E-03 Eh
   gradient norm :     0.0015626 Eh/α   predicted    -0.1297544E-03 ( -59.75%)
   displ. norm   :     0.6808282 α      lambda       -0.2378990E-03
   maximum displ.:     0.4886133 α      in ANC's #3, #6, #2, ...

........................................................................
.............................. CYCLE   41 ..............................
........................................................................

 iter      E             dE          RMSdq      gap      omega  full diag
   1   -225.9735933 -0.225974E+03  0.364E-02    1.39       0.0  T
   2   -225.9603918  0.132015E-01  0.184E-01    1.34       1.0  T
   3   -225.9734562 -0.130644E-01  0.312E-02    1.39       1.0  T
   4   -225.9736985 -0.242260E-03  0.594E-03    1.39       1.3  T
   5   -225.9737069 -0.846684E-05  0.137E-03    1.39       5.9  T
   6   -225.9737074 -0.503200E-06  0.540E-04    1.39      14.8  T
   7   -225.9737075 -0.278494E-07  0.351E-04    1.39      22.8  T
     SCC iter.                  ...        0 min,  0.562 sec
     gradient                   ...        0 min,  0.081 sec
 * total energy  :  -222.6120900 Eh     change       -0.3468873E-03 Eh
   gradient norm :     0.0014680 Eh/α   predicted    -0.1434563E-03 ( -58.64%)
   displ. norm   :     0.7118926 α      lambda       -0.2496355E-03
   maximum displ.:     0.5102297 α      in ANC's #3, #2, #6, ...

........................................................................
.............................. CYCLE   42 ..............................
........................................................................

 iter      E             dE          RMSdq      gap      omega  full diag
   1   -225.9740517 -0.225974E+03  0.386E-02    1.39       0.0  T
   2   -225.9581099  0.159418E-01  0.203E-01    1.33       1.0  T
   3   -225.9739703 -0.158604E-01  0.306E-02    1.39       1.0  T
   4   -225.9741875 -0.217146E-03  0.600E-03    1.39       1.3  T
   5   -225.9741959 -0.839532E-05  0.134E-03    1.39       6.0  T
   6   -225.9741962 -0.369359E-06  0.709E-04    1.39      11.3  T
   7   -225.9741963 -0.968483E-07  0.371E-04    1.39      21.6  T
     SCC iter.                  ...        0 min,  0.398 sec
     gradient                   ...        0 min,  0.083 sec
 * total energy  :  -222.6124504 Eh     change       -0.3603888E-03 Eh
   gradient norm :     0.0018487 Eh/α   predicted    -0.1529330E-03 ( -57.56%)
   displ. norm   :     0.7224927 α      lambda       -0.2525851E-03
   maximum displ.:     0.5189005 α      in ANC's #3, #2, #6, ...
 * RMSD in coord.:     0.7192370 α      energy gain  -0.4359398E-02 Eh

generating ANC from model Hessian ...
Using Lindh-Hessian (1995)
 Shifting diagonal of input Hessian by    1.0013704481602433E-002
 Lowest  eigenvalues of input Hessian
    0.010000    0.000000    0.000000    0.000000    0.000000    0.000000
    0.000000    0.010031    0.010056    0.010150    0.010183    0.010196
    0.010277    0.010295    0.010326    0.010331    0.010366    0.010444
 Highest eigenvalues
    2.098677    2.104899    2.206005    2.207673    2.232825    2.233747


........................................................................
.............................. CYCLE   43 ..............................
........................................................................

 iter      E             dE          RMSdq      gap      omega  full diag
   1   -225.9741990 -0.225974E+03  0.376E-02    1.39       0.0  T
   2   -225.9585392  0.156598E-01  0.201E-01    1.33       1.0  T
   3   -225.9741214 -0.155822E-01  0.300E-02    1.39       1.0  T
   4   -225.9743304 -0.209022E-03  0.633E-03    1.39       1.3  T
   5   -225.9743399 -0.943601E-05  0.152E-03    1.39       5.3  T
   6   -225.9743405 -0.652097E-06  0.578E-04    1.39      13.8  T
   7   -225.9743406 -0.296558E-07  0.388E-04    1.39      20.6  T
     SCC iter.                  ...        0 min,  0.500 sec
     gradient                   ...        0 min,  0.081 sec
 * total energy  :  -222.6128137 Eh     change       -0.3632834E-03 Eh
   gradient norm :     0.0018216 Eh/α   predicted     0.0000000E+00 (-100.00%)
   displ. norm   :     0.1029070 α      lambda       -0.5555489E-04
   maximum displ.:     0.0852198 α      in ANC's #3, #5, #41, ...

........................................................................
.............................. CYCLE   44 ..............................
........................................................................

 iter      E             dE          RMSdq      gap      omega  full diag
   1   -225.9745910 -0.225975E+03  0.722E-03    1.39       0.0  T
   2   -225.9743829  0.208110E-03  0.233E-02    1.39       1.0  T
   3   -225.9745464 -0.163543E-03  0.116E-02    1.39       1.0  T
   4   -225.9745924 -0.459974E-04  0.949E-04    1.39       8.4  T
   5   -225.9745926 -0.189107E-06  0.328E-04    1.39      24.4  T
   6   -225.9745926 -0.273003E-07  0.135E-04    1.39      59.4  T
     SCC iter.                  ...        0 min,  0.422 sec
     gradient                   ...        0 min,  0.084 sec
 * total energy  :  -222.6128920 Eh     change       -0.7835092E-04 Eh
   gradient norm :     0.0008940 Eh/α   predicted    -0.2791895E-04 ( -64.37%)
   displ. norm   :     0.2413681 α      lambda       -0.1160721E-03
   maximum displ.:     0.1728666 α      in ANC's #3, #5, #12, ...

........................................................................
.............................. CYCLE   45 ..............................
........................................................................

 iter      E             dE          RMSdq      gap      omega  full diag
   1   -225.9745885 -0.225975E+03  0.192E-02    1.39       0.0  T
   2   -225.9728451  0.174336E-02  0.673E-02    1.38       1.0  T
   3   -225.9743823 -0.153719E-02  0.259E-02    1.39       1.0  T
   4   -225.9746006 -0.218347E-03  0.240E-03    1.39       3.3  T
   5   -225.9746016 -0.100007E-05  0.744E-04    1.39      10.8  T
   6   -225.9746018 -0.135568E-06  0.339E-04    1.39      23.6  T
   7   -225.9746018 -0.126212E-07  0.163E-04    1.39      49.0  T
     SCC iter.                  ...        0 min,  0.409 sec
     gradient                   ...        0 min,  0.079 sec
 * total energy  :  -222.6130509 Eh     change       -0.1588985E-03 Eh
   gradient norm :     0.0017858 Eh/α   predicted    -0.5953883E-04 ( -62.53%)
   displ. norm   :     0.4171492 α      lambda       -0.1744673E-03
   maximum displ.:     0.2896518 α      in ANC's #3, #5, #12, ...

........................................................................
.............................. CYCLE   46 ..............................
........................................................................

 iter      E             dE          RMSdq      gap      omega  full diag
   1   -225.9744148 -0.225974E+03  0.321E-02    1.39       0.0  T
   2   -225.9716580  0.275684E-02  0.856E-02    1.38       1.0  T
   3   -225.9734633 -0.180534E-02  0.528E-02    1.39       1.0  T
   4   -225.9744317 -0.968375E-03  0.461E-03    1.39       1.7  T
   5   -225.9744359 -0.421393E-05  0.159E-03    1.39       5.0  T
   6   -225.9744367 -0.794455E-06  0.532E-04    1.39      15.1  T
   7   -225.9744367  0.115494E-07  0.380E-04    1.39      21.1  T
     SCC iter.                  ...        0 min,  0.399 sec
     gradient                   ...        0 min,  0.081 sec
 * total energy  :  -222.6132796 Eh     change       -0.2286514E-03 Eh
   gradient norm :     0.0027390 Eh/α   predicted    -0.9398104E-04 ( -58.90%)
   displ. norm   :     0.3330076 α      lambda       -0.1830137E-03
   maximum displ.:     0.2308554 α      in ANC's #3, #5, #12, ...

........................................................................
.............................. CYCLE   47 ..............................
........................................................................

 iter      E             dE          RMSdq      gap      omega  full diag
   1   -225.9745682 -0.225975E+03  0.242E-02    1.39       0.0  T
   2   -225.9732370  0.133124E-02  0.598E-02    1.39       1.0  T
   3   -225.9739347 -0.697681E-03  0.426E-02    1.39       1.0  T
   4   -225.9745768 -0.642161E-03  0.287E-03    1.39       2.8  T
   5   -225.9745782 -0.133382E-05  0.126E-03    1.39       6.3  T
   6   -225.9745787 -0.518726E-06  0.450E-04    1.39      17.8  T
   7   -225.9745787 -0.274235E-07  0.253E-04    1.39      31.6  T
     SCC iter.                  ...        0 min,  0.489 sec
     gradient                   ...        0 min,  0.084 sec
 * total energy  :  -222.6134485 Eh     change       -0.1689177E-03 Eh
   gradient norm :     0.0029155 Eh/α   predicted    -0.1016569E-03 ( -39.82%)
   displ. norm   :     0.3781822 α      lambda       -0.2008761E-03
   maximum displ.:     0.2612209 α      in ANC's #3, #5, #12, ...

........................................................................
.............................. CYCLE   48 ..............................
........................................................................

 iter      E             dE          RMSdq      gap      omega  full diag
   1   -225.9748680 -0.225975E+03  0.254E-02    1.39       0.0  T
   2   -225.9738739  0.994081E-03  0.524E-02    1.39       1.0  T
   3   -225.9738898 -0.158926E-04  0.519E-02    1.39       1.0  T
   4   -225.9748736 -0.983766E-03  0.303E-03    1.39       2.6  T
   5   -225.9748753 -0.170035E-05  0.146E-03    1.39       5.5  T
   6   -225.9748760 -0.739976E-06  0.447E-04    1.39      17.9  T
   7   -225.9748760 -0.187228E-07  0.290E-04    1.39      27.6  T
     SCC iter.                  ...        0 min,  0.425 sec
     gradient                   ...        0 min,  0.080 sec
 * total energy  :  -222.6136401 Eh     change       -0.1916605E-03 Eh
   gradient norm :     0.0026205 Eh/α   predicted    -0.1148086E-03 ( -40.10%)
   displ. norm   :     0.4313863 α      lambda       -0.2366923E-03
   maximum displ.:     0.2964522 α      in ANC's #3, #5, #12, ...

........................................................................
.............................. CYCLE   49 ..............................
........................................................................

 iter      E             dE          RMSdq      gap      omega  full diag
   1   -225.9752991 -0.225975E+03  0.269E-02    1.39       0.0  T
   2   -225.9745517  0.747423E-03  0.464E-02    1.39       1.0  T
   3   -225.9737389  0.812836E-03  0.647E-02    1.39       1.0  T
   4   -225.9753019 -0.156304E-02  0.344E-03    1.39       2.3  T
   5   -225.9753043 -0.237382E-05  0.178E-03    1.39       4.5  T
   6   -225.9753054 -0.116091E-05  0.451E-04    1.39      17.7  T
   7   -225.9753054 -0.866532E-08  0.335E-04    1.39      23.9  T
   8   -225.9753055 -0.382373E-07  0.557E-05    1.39     143.7  T
     SCC iter.                  ...        0 min,  0.623 sec
     gradient                   ...        0 min,  0.084 sec
 * total energy  :  -222.6138690 Eh     change       -0.2288684E-03 Eh
   gradient norm :     0.0019407 Eh/α   predicted    -0.1403728E-03 ( -38.67%)
   displ. norm   :     0.7697656 α      lambda       -0.2918500E-03
   maximum displ.:     0.5260203 α      in ANC's #3, #5, #12, ...

........................................................................
.............................. CYCLE   50 ..............................
........................................................................

 iter      E             dE          RMSdq      gap      omega  full diag
   1   -225.9755965 -0.225976E+03  0.452E-02    1.38       0.0  T
   2   -225.9739970  0.159947E-02  0.691E-02    1.38       1.0  T
   3   -225.9706992  0.329780E-02  0.115E-01    1.38       1.0  T
   4   -225.9755676 -0.486836E-02  0.110E-02    1.39       1.0  T
   5   -225.9756000 -0.324753E-04  0.523E-03    1.39       1.5  T
   6   -225.9756108 -0.107197E-04  0.760E-04    1.39      10.5  T
   7   -225.9756108 -0.239622E-07  0.600E-04    1.39      13.3  T
   8   -225.9756109 -0.116583E-06  0.112E-04    1.39      71.4  T
     SCC iter.                  ...        0 min,  0.634 sec
     gradient                   ...        0 min,  0.081 sec
 * total energy  :  -222.6142890 Eh     change       -0.4199790E-03 Eh
   gradient norm :     0.0015288 Eh/α   predicted    -0.1843552E-03 ( -56.10%)
   displ. norm   :     0.8811190 α      lambda       -0.3386041E-03
   maximum displ.:     0.6007536 α      in ANC's #3, #5, #10, ...

........................................................................
.............................. CYCLE   51 ..............................
........................................................................

 iter      E             dE          RMSdq      gap      omega  full diag
   1   -225.9755543 -0.225976E+03  0.490E-02    1.38       0.0  T
   2   -225.9740163  0.153798E-02  0.688E-02    1.38       1.0  T
   3   -225.9690541  0.496222E-02  0.132E-01    1.37       1.0  T
   4   -225.9755021 -0.644803E-02  0.138E-02    1.38       1.0  T
   5   -225.9755515 -0.494224E-04  0.672E-03    1.38       1.2  T
   6   -225.9755694 -0.178386E-04  0.741E-04    1.38      10.8  T
   7   -225.9755693  0.185579E-07  0.643E-04    1.38      12.4  T
   8   -225.9755695 -0.125260E-06  0.152E-04    1.38      52.7  T
     SCC iter.                  ...        0 min,  0.518 sec
     gradient                   ...        0 min,  0.082 sec
 * total energy  :  -222.6147818 Eh     change       -0.4927875E-03 Eh
   gradient norm :     0.0018821 Eh/α   predicted    -0.2277210E-03 ( -53.79%)
   displ. norm   :     0.9834126 α      lambda       -0.3889467E-03
   maximum displ.:     0.6709994 α      in ANC's #3, #5, #10, ...

........................................................................
.............................. CYCLE   52 ..............................
........................................................................

 iter      E             dE          RMSdq      gap      omega  full diag
   1   -225.9759499 -0.225976E+03  0.520E-02    1.38       0.0  T
   2   -225.9741520  0.179798E-02  0.741E-02    1.38       1.0  T
   3   -225.9688666  0.528541E-02  0.138E-01    1.37       1.0  T
   4   -225.9758852 -0.701867E-02  0.156E-02    1.38       1.0  T
   5   -225.9759443 -0.590695E-04  0.785E-03    1.38       1.0  T
   6   -225.9759687 -0.244295E-04  0.676E-04    1.38      11.8  T
   7   -225.9759686  0.104630E-06  0.699E-04    1.38      11.5  T
   8   -225.9759688 -0.146732E-06  0.172E-04    1.38      46.4  T
     SCC iter.                  ...        0 min,  0.450 sec
     gradient                   ...        0 min,  0.089 sec
 * total energy  :  -222.6153504 Eh     change       -0.5685969E-03 Eh
   gradient norm :     0.0021508 Eh/α   predicted    -0.2780667E-03 ( -51.10%)
   displ. norm   :     0.7160945 α      lambda       -0.4350208E-03
   maximum displ.:     0.4892056 α      in ANC's #3, #5, #10, ...

........................................................................
.............................. CYCLE   53 ..............................
........................................................................

 iter      E             dE          RMSdq      gap      omega  full diag
   1   -225.9763027 -0.225976E+03  0.367E-02    1.38       0.0  T
   2   -225.9751431  0.115959E-02  0.583E-02    1.38       1.0  T
   3   -225.9728472  0.229590E-02  0.965E-02    1.38       1.0  T
   4   -225.9763026 -0.345544E-02  0.666E-03    1.38       1.2  T
   5   -225.9763082 -0.553725E-05  0.403E-03    1.38       2.0  T
   6   -225.9763146 -0.640256E-05  0.471E-04    1.38      17.0  T
   7   -225.9763145  0.671532E-07  0.520E-04    1.38      15.4  T
   8   -225.9763146 -0.882331E-07  0.926E-05    1.38      86.5  T
     SCC iter.                  ...        0 min,  0.515 sec
     gradient                   ...        0 min,  0.079 sec
 * total energy  :  -222.6157785 Eh     change       -0.4281405E-03 Eh
   gradient norm :     0.0020957 Eh/α   predicted    -0.3290483E-03 ( -23.14%)
   displ. norm   :     0.7685759 α      lambda       -0.4823368E-03
   maximum displ.:     0.5259171 α      in ANC's #3, #5, #10, ...

........................................................................
.............................. CYCLE   54 ..............................
........................................................................

 iter      E             dE          RMSdq      gap      omega  full diag
   1   -225.9769981 -0.225977E+03  0.382E-02    1.38       0.0  T
   2   -225.9755636  0.143447E-02  0.642E-02    1.37       1.0  T
   3   -225.9735638  0.199976E-02  0.966E-02    1.38       1.0  T
   4   -225.9769987 -0.343484E-02  0.736E-03    1.38       1.1  T
   5   -225.9770054 -0.667670E-05  0.438E-03    1.38       1.8  T
   6   -225.9770129 -0.754646E-05  0.522E-04    1.38      15.3  T
   7   -225.9770128  0.587325E-07  0.535E-04    1.38      15.0  T
   8   -225.9770129 -0.911128E-07  0.102E-04    1.38      78.4  T
     SCC iter.                  ...        0 min,  0.592 sec
     gradient                   ...        0 min,  0.084 sec
 * total energy  :  -222.6162517 Eh     change       -0.4731514E-03 Eh
   gradient norm :     0.0019397 Eh/α   predicted    -0.3836291E-03 ( -18.92%)
   displ. norm   :     1.2118831 α      lambda       -0.5127882E-03
   maximum displ.:     0.8302438 α      in ANC's #3, #5, #10, ...

........................................................................
.............................. CYCLE   55 ..............................
........................................................................

 iter      E             dE          RMSdq      gap      omega  full diag
   1   -225.9771369 -0.225977E+03  0.593E-02    1.37       0.0  T
   2   -225.9727393  0.439758E-02  0.111E-01    1.36       1.0  T
   3   -225.9710842  0.165513E-02  0.130E-01    1.37       1.0  T
   4   -225.9770918 -0.600758E-02  0.171E-02    1.38       1.0  T
   5   -225.9771467 -0.548819E-04  0.945E-03    1.38       1.0  T
   6   -225.9771819 -0.352268E-04  0.964E-04    1.38       8.3  T
   7   -225.9771819  0.307329E-07  0.795E-04    1.38      10.1  T
   8   -225.9771821 -0.189502E-06  0.170E-04    1.38      47.1  T
     SCC iter.                  ...        0 min,  0.570 sec
[...]
    67   1 H    0.998 --    34 C    0.984
    68   1 H    0.999 --    34 C    0.985
    69   1 H    0.998 --    34 C    0.984
    70   1 H    0.998 --    33 C    0.985
    71   1 H    0.999 --    33 C    0.987
    72   1 H    0.999 --    33 C    0.984
    73   1 H    0.995 --    15 C    0.959
    74   1 H    0.997 --    17 C    0.959
    75   1 H    0.996 --     5 C    0.958
    76   1 H    0.999 --     1 C    0.958
    77   1 H    0.999 --    19 C    0.958
    78   1 H    0.996 --    21 C    0.957
    79   6 C    3.975 --    80 C    1.427    84 C    1.355   154 H    0.959
    80   6 C    3.902 --    79 C    1.427    81 C    1.235   101 O    1.063
    81   6 C    3.979 --    82 C    1.289    80 C    1.235    85 C    1.200
    82   6 C    3.956 --    83 C    1.362    81 C    1.289    88 C    1.073
    83   6 C    3.974 --    84 C    1.441    82 C    1.362   153 H    0.959
    84   6 C    3.946 --    83 C    1.441    79 C    1.355   110 C    0.984
    85   6 C    3.857 --    86 C    1.242    81 C    1.200    89 C    1.188
    86   6 C    3.980 --    87 C    1.258    92 C    1.249    85 C    1.242
    87   6 C    3.960 --    95 C    1.396    86 C    1.258    88 C    1.067
    88   6 C    3.928 --   102 O    1.665    82 C    1.073    87 C    1.067
    89   6 C    3.979 --    90 C    1.292    96 C    1.240    85 C    1.188
    90   6 C    3.956 --    99 C    1.357    89 C    1.292    91 C    1.075
    91   6 C    3.928 --   103 O    1.663    90 C    1.075    92 C    1.064
    92   6 C    3.962 --    93 C    1.411    86 C    1.249    91 C    1.064
    93   6 C    3.985 --    92 C    1.411    94 C    1.393   151 H    0.959
    94   6 C    3.954 --    95 C    1.410    93 C    1.393   114 C    0.982
    95   6 C    3.984 --    94 C    1.410    87 C    1.396   152 H    0.960
    96   6 C    3.902 --    97 C    1.438    89 C    1.240   100 O    1.045
    97   6 C    3.974 --    96 C    1.438    98 C    1.345   155 H    0.958
    98   6 C    3.949 --    99 C    1.449    97 C    1.345   106 C    0.984
    99   6 C    3.977 --    98 C    1.449    90 C    1.357   156 H    0.957
   100   8 O    2.218 --    96 C    1.045   104 C    0.997
   101   8 O    2.235 --    80 C    1.063   105 C    0.986
   102   8 O    1.931 --    88 C    1.665
   103   8 O    1.937 --    91 C    1.663
   104   6 C    3.956 --   100 O    0.997   136 H    0.980   137 H    0.975
                           138 H    0.973
   105   6 C    3.947 --   101 O    0.986   139 H    0.977   141 H    0.975
                           140 H    0.968
   106   6 C    3.990 --   107 C    0.997   109 C    0.993    98 C    0.984
                           108 C    0.983
   107   6 C    3.992 --   106 C    0.997   133 H    0.985   134 H    0.983
                           135 H    0.976
   108   6 C    3.994 --   132 H    0.987   131 H    0.987   130 H    0.985
                           106 C    0.983
   109   6 C    3.995 --   106 C    0.993   129 H    0.982   127 H    0.982
                           128 H    0.981
   110   6 C    3.990 --   112 C    1.000   113 C    0.988   111 C    0.985
                            84 C    0.984
   111   6 C    3.994 --   149 H    0.987   148 H    0.986   150 H    0.986
                           110 C    0.985
   112   6 C    3.996 --   110 C    1.000   147 H    0.985   146 H    0.985
                           145 H    0.984
   113   6 C    3.991 --   110 C    0.988   142 H    0.985   143 H    0.983
                           144 H    0.978
   114   6 C    3.990 --   115 C    1.000   117 C    0.988   116 C    0.988
                            94 C    0.982
   115   6 C    3.997 --   114 C    1.000   121 H    0.985   122 H    0.985
                           123 H    0.985
   116   6 C    3.994 --   114 C    0.988   125 H    0.986   124 H    0.985
                           126 H    0.983
   117   6 C    3.994 --   114 C    0.988   120 H    0.987   118 H    0.985
                           119 H    0.983
   118   1 H    0.998 --   117 C    0.985
   119   1 H    0.998 --   117 C    0.983
   120   1 H    0.999 --   117 C    0.987
   121   1 H    0.999 --   115 C    0.985
   122   1 H    0.999 --   115 C    0.985
   123   1 H    0.999 --   115 C    0.985
   124   1 H    0.998 --   116 C    0.985
   125   1 H    0.999 --   116 C    0.986
   126   1 H    0.998 --   116 C    0.983
   127   1 H    0.999 --   109 C    0.982
   128   1 H    0.998 --   109 C    0.981
   129   1 H    1.000 --   109 C    0.982
   130   1 H    0.998 --   108 C    0.985
   131   1 H    0.999 --   108 C    0.987
   132   1 H    0.999 --   108 C    0.987
   133   1 H    0.999 --   107 C    0.985
   134   1 H    0.999 --   107 C    0.983
   135   1 H    0.995 --   107 C    0.976
   136   1 H    0.997 --   104 C    0.980
   137   1 H    0.998 --   104 C    0.975
   138   1 H    0.998 --   104 C    0.973
   139   1 H    0.997 --   105 C    0.977
   140   1 H    0.997 --   105 C    0.968
   141   1 H    0.998 --   105 C    0.975
   142   1 H    0.999 --   113 C    0.985
   143   1 H    0.999 --   113 C    0.983
   144   1 H    0.995 --   113 C    0.978
   145   1 H    0.999 --   112 C    0.984
   146   1 H    0.999 --   112 C    0.985
   147   1 H    0.998 --   112 C    0.985
   148   1 H    0.998 --   111 C    0.986
   149   1 H    0.999 --   111 C    0.987
   150   1 H    0.999 --   111 C    0.986
   151   1 H    0.997 --    93 C    0.959
   152   1 H    0.996 --    95 C    0.960
   153   1 H    0.996 --    83 C    0.959
   154   1 H    0.998 --    79 C    0.959
   155   1 H    0.999 --    97 C    0.958
   156   1 H    0.995 --    99 C    0.957
 ---------------------------------------------------------------------------

Topologies differ in bond orders
Writing corrected topology to xtbtopo.mol

molecular dipole:
                 x           y           z       tot (Debye)
 q only:       -2.861       4.549      -8.985
   full:       -3.823       5.094      -9.509      29.091
molecular quadrupole (traceless):
                xx          xy          yy          xz          yz          zz
 q only:       72.088     -10.933       1.970     -58.941      53.921     -74.057
  q+dip:       86.651     -11.062      -0.196     -64.109      54.287     -86.454
   full:       83.408     -12.802      -7.645     -71.611      55.660     -75.763

           -------------------------------------------------
          |                Geometry Summary                 |
           -------------------------------------------------

      molecular mass/u    :     1047.3661309
   center of mass at/Å    :       -0.2089154      -1.5837378       4.0420189
  moments of inertia/u·Å² :        0.1430336E+05   0.2006495E+05   0.2660932E+05
rotational constants/cm⁻¹ :        0.1178579E-02   0.8401531E-03   0.6335236E-03

 * 150 selected distances

     #   Z          #   Z                                           value/Å
     1   6 C        2   6 C                                       1.3769237
     2   6 C        3   6 C                                       1.4211271
     3   6 C        4   6 C                                       1.4090064
     4   6 C        5   6 C                                       1.3977270
     1   6 C        6   6 C                                       1.4032595
     5   6 C        6   6 C                                       1.3760403
     3   6 C        7   6 C                                       1.4304973
     7   6 C        8   6 C                                       1.4142655
     8   6 C        9   6 C                                       1.4145012
     7   6 C       11   6 C                                       1.4267008
    11   6 C       12   6 C                                       1.4079054
     8   6 C       14   6 C                                       1.4136636
    14   6 C       15   6 C                                       1.3926880
    15   6 C       16   6 C                                       1.3891616
     9   6 C       17   6 C                                       1.3869117
    16   6 C       17   6 C                                       1.3914453
    11   6 C       18   6 C                                       1.4225611
    18   6 C       19   6 C                                       1.3758393
    19   6 C       20   6 C                                       1.4035132
    12   6 C       21   6 C                                       1.3983782
    20   6 C       21   6 C                                       1.3769252
    18   6 C       22   8 O                                       1.3737979
     2   6 C       23   8 O                                       1.3714112
    10   6 C       24   8 O                                       1.2330287
    13   6 C       25   8 O                                       1.2332325
    22   8 O       26   6 C                                       1.3975551
    23   8 O       27   6 C                                       1.3972013
    28   6 C       29   6 C                                       1.5304702
    28   6 C       30   6 C                                       1.5354728
    28   6 C       31   6 C                                       1.5362319
    32   6 C       33   6 C                                       1.5357837
    32   6 C       34   6 C                                       1.5307579
    32   6 C       35   6 C                                       1.5354712
    36   6 C       37   6 C                                       1.5321494
    36   6 C       38   6 C                                       1.5390243 (max)
    36   6 C       39   6 C                                       1.5301052
    39   6 C       40   1 H                                       1.0894136
    39   6 C       41   1 H                                       1.0876289
    39   6 C       42   1 H                                       1.0853438
    37   6 C       43   1 H                                       1.0889296
    37   6 C       44   1 H                                       1.0843460
    37   6 C       45   1 H                                       1.0864581
    38   6 C       46   1 H                                       1.0890106
    38   6 C       47   1 H                                       1.0876323
    38   6 C       48   1 H                                       1.0885776
    31   6 C       49   1 H                                       1.0891157
    31   6 C       50   1 H                                       1.0879099
    31   6 C       51   1 H                                       1.0873841
    30   6 C       52   1 H                                       1.0890220
    30   6 C       53   1 H                                       1.0868976
    30   6 C       54   1 H                                       1.0870475
    29   6 C       55   1 H                                       1.0894394
    29   6 C       56   1 H                                       1.0864474
    29   6 C       57   1 H                                       1.0868122
    26   6 C       58   1 H                                       1.0902968
    26   6 C       59   1 H                                       1.0973448
    26   6 C       60   1 H                                       1.0968624
    27   6 C       61   1 H                                       1.0903095
    27   6 C       62   1 H                                       1.0972600
    27   6 C       63   1 H                                       1.0974003
    35   6 C       64   1 H                                       1.0890777
    35   6 C       65   1 H                                       1.0870428
    35   6 C       66   1 H                                       1.0878919
    34   6 C       67   1 H                                       1.0867741
    34   6 C       68   1 H                                       1.0893208
    34   6 C       69   1 H                                       1.0867603
    33   6 C       70   1 H                                       1.0890602
    33   6 C       71   1 H                                       1.0879683
    33   6 C       72   1 H                                       1.0869855
    15   6 C       73   1 H                                       1.0789924
    17   6 C       74   1 H                                       1.0800608
     5   6 C       75   1 H                                       1.0773340
     1   6 C       76   1 H                                       1.0790177
    19   6 C       77   1 H                                       1.0788205
    21   6 C       78   1 H                                       1.0777097
    79   6 C       80   6 C                                       1.3807824
    80   6 C       81   6 C                                       1.4218456
    81   6 C       82   6 C                                       1.4114379
    82   6 C       83   6 C                                       1.3949605
    79   6 C       84   6 C                                       1.3970680
    83   6 C       84   6 C                                       1.3785371
    81   6 C       85   6 C                                       1.4300751
    85   6 C       86   6 C                                       1.4159727
    86   6 C       87   6 C                                       1.4124421
    85   6 C       89   6 C                                       1.4310295
    89   6 C       90   6 C                                       1.4088235
    86   6 C       92   6 C                                       1.4144202
    92   6 C       93   6 C                                       1.3871195
    93   6 C       94   6 C                                       1.3914532
    87   6 C       95   6 C                                       1.3906750
    94   6 C       95   6 C                                       1.3879141
    89   6 C       96   6 C                                       1.4186252
    96   6 C       97   6 C                                       1.3789957
    97   6 C       98   6 C                                       1.4008826
    90   6 C       99   6 C                                       1.3947150
    98   6 C       99   6 C                                       1.3783770
    96   6 C      100   8 O                                       1.3702083
    80   6 C      101   8 O                                       1.3605493
    88   6 C      102   8 O                                       1.2322982
    91   6 C      103   8 O                                       1.2318396
   100   8 O      104   6 C                                       1.3989149
   101   8 O      105   6 C                                       1.4023314
   106   6 C      107   6 C                                       1.5325333
   106   6 C      108   6 C                                       1.5370108
   106   6 C      109   6 C                                       1.5336927
   110   6 C      111   6 C                                       1.5360898
   110   6 C      112   6 C                                       1.5307148
   110   6 C      113   6 C                                       1.5358458
   114   6 C      115   6 C                                       1.5308236
   114   6 C      116   6 C                                       1.5349745
   114   6 C      117   6 C                                       1.5351733
   117   6 C      118   1 H                                       1.0890941
   117   6 C      119   1 H                                       1.0863439
   117   6 C      120   1 H                                       1.0883573
   115   6 C      121   1 H                                       1.0893164
   115   6 C      122   1 H                                       1.0874489
   115   6 C      123   1 H                                       1.0872333
   116   6 C      124   1 H                                       1.0891743
   116   6 C      125   1 H                                       1.0879924
   116   6 C      126   1 H                                       1.0862282
   109   6 C      127   1 H                                       1.0893463
   109   6 C      128   1 H                                       1.0874967
   109   6 C      129   1 H                                       1.0875582
   108   6 C      130   1 H                                       1.0891034
   108   6 C      131   1 H                                       1.0885201
   108   6 C      132   1 H                                       1.0876844
   107   6 C      133   1 H                                       1.0895695
   107   6 C      134   1 H                                       1.0866355
   107   6 C      135   1 H                                       1.0875588
   104   6 C      136   1 H                                       1.0903133
   104   6 C      137   1 H                                       1.0973623
   104   6 C      138   1 H                                       1.0963663
   105   6 C      139   1 H                                       1.0898766
   105   6 C      140   1 H                                       1.0935436
   105   6 C      141   1 H                                       1.0969614
   113   6 C      142   1 H                                       1.0893816
   113   6 C      143   1 H                                       1.0874835
   113   6 C      144   1 H                                       1.0873722
   112   6 C      145   1 H                                       1.0873003
   112   6 C      146   1 H                                       1.0894754
   112   6 C      147   1 H                                       1.0867483
   111   6 C      148   1 H                                       1.0892095
   111   6 C      149   1 H                                       1.0885123
   111   6 C      150   1 H                                       1.0875680
    93   6 C      151   1 H                                       1.0806582
    95   6 C      152   1 H                                       1.0788087
    83   6 C      153   1 H                                       1.0778578
    79   6 C      154   1 H                                       1.0775255
    97   6 C      155   1 H                                       1.0781499
    99   6 C      156   1 H                                       1.0772165 (min)

 * 3 distinct bonds (by element types)

   Z      Z             #   av. dist./Å        max./Å        min./Å
   1 H    6 C          78     1.0874623     1.0974003     1.0772165
   6 C    6 C          60     1.4411253     1.5390243     1.3758393
   6 C    8 O          12     1.3335307     1.4023314     1.2318396


optimized geometry written to: xtbopt.mol


           -------------------------------------------------
          | TOTAL ENERGY             -222.626113656618 Eh   |
Note: The following floating-point exceptions are signalling: IEEE_UNDERFLOW_FLAG
normal termination of xtb
          | GRADIENT NORM               0.000500383096 Eh/α |
          | HOMO-LUMO GAP               1.353937993117 eV   |
           -------------------------------------------------
########################################################################
[WARNING] Runtime exception occurred
-2- restart_readRestart: Dimension missmatch in restart file.
-1- restart_readRestart: Number of electron missmatch in restart file.
########################################################################

------------------------------------------------------------------------
 * finished run on 2024/11/12 at 09:03:38.190     
------------------------------------------------------------------------
 total:
 * wall-time:     0 d,  0 h,  1 min, 47.407 sec
 *  cpu-time:     0 d,  0 h,  6 min, 18.875 sec
 * ratio c/w:     3.527 speedup
 SCF:
 * wall-time:     0 d,  0 h,  0 min,  1.493 sec
 *  cpu-time:     0 d,  0 h,  0 min,  5.334 sec
 * ratio c/w:     3.573 speedup
 ANC optimizer:
 * wall-time:     0 d,  0 h,  1 min, 45.872 sec
 *  cpu-time:     0 d,  0 h,  6 min, 13.490 sec
 * ratio c/w:     3.528 speedup

