      -----------------------------------------------------------      
     |                   =====================                   |     
     |                           x T B                           |     
     |                   =====================                   |     
     |                         S. Grimme                         |     
     |          Mulliken Center for Theoretical Chemistry        |     
     |                    University of Bonn                     |     
      -----------------------------------------------------------      

   * xtb version 6.6.1 (8d0f1dd) compiled by 'runner@Mac-1690902418499.local' on 2023-08-01

   xtb is free software: you can redistribute it and/or modify it under
   the terms of the GNU Lesser General Public License as published by
   the Free Software Foundation, either version 3 of the License, or
   (at your option) any later version.
   
   xtb is distributed in the hope that it will be useful,
   but WITHOUT ANY WARRANTY; without even the implied warranty of
   MERCHANTABILITY or FITNESS FOR A PARTICULAR PURPOSE.  See the
   GNU Lesser General Public License for more details.
   
   Cite this work as:
   * C. Bannwarth, E. Caldeweyher, S. Ehlert, A. Hansen, P. Pracht,
     J. Seibert, S. Spicher, S. Grimme, WIREs Comput. Mol. Sci., 2020, 11,
     e01493. DOI: 10.1002/wcms.1493
   
   for GFN2-xTB:
   * C. Bannwarth, S. Ehlert and S. Grimme., J. Chem. Theory Comput., 2019,
     15, 1652-1671. DOI: 10.1021/acs.jctc.8b01176
   for GFN1-xTB:
   * S. Grimme, C. Bannwarth, P. Shushkov, J. Chem. Theory Comput., 2017,
     13, 1989-2009. DOI: 10.1021/acs.jctc.7b00118
   for GFN0-xTB:
   * P. Pracht, E. Caldeweyher, S. Ehlert, S. Grimme, ChemRxiv, 2019, preprint.
     DOI: 10.26434/chemrxiv.8326202.v1
   for GFN-FF:
   * S. Spicher and S. Grimme, Angew. Chem. Int. Ed., 2020, 59, 15665-15673.
     DOI: 10.1002/anie.202004239
   
   for ALPB and GBSA implicit solvation:
   * S. Ehlert, M. Stahn, S. Spicher, S. Grimme, J. Chem. Theory Comput.,
     2021, 17, 4250-4261. DOI: 10.1021/acs.jctc.1c00471
   
   for DFT-D4:
   * E. Caldeweyher, C. Bannwarth and S. Grimme, J. Chem. Phys., 2017,
     147, 034112. DOI: 10.1063/1.4993215
   * E. Caldeweyher, S. Ehlert, A. Hansen, H. Neugebauer, S. Spicher,
     C. Bannwarth and S. Grimme, J. Chem. Phys., 2019, 150, 154122.
     DOI: 10.1063/1.5090222
   * E. Caldeweyher, J.-M. Mewes, S. Ehlert and S. Grimme, Phys. Chem. Chem. Phys.
     2020, 22, 8499-8512. DOI: 10.1039/D0CP00502A
   
   for sTDA-xTB:
   * S. Grimme and C. Bannwarth, J. Chem. Phys., 2016, 145, 054103.
     DOI: 10.1063/1.4959605
   
   in the mass-spec context:
   * V. Asgeirsson, C. Bauer and S. Grimme, Chem. Sci., 2017, 8, 4879.
     DOI: 10.1039/c7sc00601b
   * J. Koopman and S. Grimme, ACS Omega 2019, 4, 12, 15120-15133.
     DOI: 10.1021/acsomega.9b02011
   
   for metadynamics refer to:
   * S. Grimme, J. Chem. Theory Comput., 2019, 155, 2847-2862
     DOI: 10.1021/acs.jctc.9b00143
   
   for SPH calculations refer to:
   * S. Spicher and S. Grimme, J. Chem. Theory Comput., 2021, 17, 1701-1714
     DOI: 10.1021/acs.jctc.0c01306
   
   with help from (in alphabetical order)
   P. Atkinson, C. Bannwarth, F. Bohle, G. Brandenburg, E. Caldeweyher
   M. Checinski, S. Dohm, S. Ehlert, S. Ehrlich, I. Gerasimov, C. Hölzer
   A. Katbashev, J. Koopman, C. Lavigne, S. Lehtola, F. März, M. Müller,
   F. Musil, H. Neugebauer, J. Pisarek, C. Plett, P. Pracht, F. Pultar,
   J. Seibert, P. Shushkov, S. Spicher, M. Stahn, M. Steiner, T. Strunk,
   J. Stückrath, T. Rose, and J. Unsleber
   
 * started run on 2024/11/12 at 08:57:53.509     

           -------------------------------------------------
          |                Calculation Setup                |
           -------------------------------------------------

          program call               : xtb Katherine4.mol --opt --gfn2 --chrg -1 --uhf 0 --tight
          coordinate file            : Katherine4.mol
          omp threads                :                     8

   ID    Z sym.   atoms
    1    6 C      1-21, 26-39
    2    8 O      22-25
    3    1 H      40-78
########################################################################
[WARNING] Please study the warnings concerning your input carefully
-2- prog_main: Charge in sdf/mol input was overwritten
-1- prog_main_parseArguments: Unknown option '--tight' provided
########################################################################

           -------------------------------------------------
          |                 G F N 2 - x T B                 |
           -------------------------------------------------

        Reference                      10.1021/acs.jctc.8b01176
      * Hamiltonian:
        H0-scaling (s, p, d)           1.850000    2.230000    2.230000
        zeta-weighting                 0.500000
      * Dispersion:
        s8                             2.700000
        a1                             0.520000
        a2                             5.000000
        s9                             5.000000
      * Repulsion:
        kExp                           1.500000    1.000000
        rExp                           1.000000
      * Coulomb:
        alpha                          2.000000
        third order                    shell-resolved
        anisotropic                    true
        a3                             3.000000
        a5                             4.000000
        cn-shift                       1.200000
        cn-exp                         4.000000
        max-rad                        5.000000


          ...................................................
          :                      SETUP                      :
          :.................................................:
          :  # basis functions                 195          :
          :  # atomic orbitals                 195          :
          :  # shells                          117          :
          :  # electrons                       204          :
          :  max. iterations                   250          :
          :  Hamiltonian                  GFN2-xTB          :
          :  restarted?                      false          :
          :  GBSA solvation                  false          :
          :  PC potential                    false          :
          :  electronic temp.          300.0000000     K    :
          :  accuracy                    1.0000000          :
          :  -> integral cutoff          0.2500000E+02      :
          :  -> integral neglect         0.1000000E-07      :
          :  -> SCF convergence          0.1000000E-05 Eh   :
          :  -> wf. convergence          0.1000000E-03 e    :
          :  Broyden damping             0.4000000          :
          ...................................................

 iter      E             dE          RMSdq      gap      omega  full diag
   1   -112.6731059 -0.112673E+03  0.385E+00    1.39       0.0  T
   2   -112.8576996 -0.184594E+00  0.220E+00    0.73       1.0  T
   3   -112.8089332  0.487664E-01  0.140E+00    1.77       1.0  T
   4   -112.8849250 -0.759918E-01  0.648E-01    0.83       1.0  T
   5   -112.9149058 -0.299807E-01  0.213E-01    1.18       1.0  T
   6   -112.9181913 -0.328558E-02  0.705E-02    1.12       1.0  T
   7   -112.9182004 -0.907993E-05  0.425E-02    1.12       1.0  T
   8   -112.9182607 -0.602459E-04  0.115E-02    1.12       1.0  T
   9   -112.9182680 -0.734631E-05  0.590E-03    1.12       1.9  T
  10   -112.9182699 -0.190919E-05  0.292E-03    1.12       3.9  T
  11   -112.9182702 -0.298872E-06  0.155E-03    1.12       7.3  T
  12   -112.9182703 -0.133612E-06  0.674E-04    1.12      16.8  T
  13   -112.9182704 -0.184312E-07  0.250E-04    1.12      45.2  T

   *** convergence criteria satisfied after 13 iterations ***

         #    Occupation            Energy/Eh            Energy/eV
      -------------------------------------------------------------
         1        2.0000           -0.6070515             -16.5187
       ...           ...                  ...                  ...
        96        2.0000           -0.2720817              -7.4037
        97        2.0000           -0.2668876              -7.2624
        98        2.0000           -0.2600419              -7.0761
        99        2.0000           -0.2532036              -6.8900
       100        2.0000           -0.2435059              -6.6261
       101        2.0000           -0.2382243              -6.4824
       102        2.0000           -0.1947530              -5.2995 (HOMO)
       103                         -0.1535393              -4.1780 (LUMO)
       104                         -0.1235341              -3.3615
       105                         -0.1033771              -2.8130
       106                         -0.0991235              -2.6973
       107                         -0.0909483              -2.4748
       ...                                ...                  ...
       195                          0.8411493              22.8888
      -------------------------------------------------------------
                  HL-Gap            0.0412137 Eh            1.1215 eV
             Fermi-level           -0.1741462 Eh           -4.7388 eV

 SCC (total)                   0 d,  0 h,  0 min,  0.365 sec
 SCC setup                      ...        0 min,  0.000 sec (  0.108%)
 Dispersion                     ...        0 min,  0.002 sec (  0.445%)
 classical contributions        ...        0 min,  0.001 sec (  0.149%)
 integral evaluation            ...        0 min,  0.005 sec (  1.453%)
 iterations                     ...        0 min,  0.339 sec ( 92.923%)
 molecular gradient             ...        0 min,  0.017 sec (  4.657%)
 printout                       ...        0 min,  0.001 sec (  0.261%)

         :::::::::::::::::::::::::::::::::::::::::::::::::::::
         ::                     SUMMARY                     ::
         :::::::::::::::::::::::::::::::::::::::::::::::::::::
         :: total energy            -111.362524107026 Eh    ::
         :: gradient norm              0.220255283209 Eh/a0 ::
         :: HOMO-LUMO gap              1.121482886071 eV    ::
         ::.................................................::
         :: SCC energy              -112.918270368402 Eh    ::
         :: -> isotropic ES            0.169608355704 Eh    ::
         :: -> anisotropic ES          0.038467694781 Eh    ::
         :: -> anisotropic XC          0.038794243817 Eh    ::
         :: -> dispersion             -0.098455726562 Eh    ::
         :: repulsion energy           1.554803538172 Eh    ::
         :: add. restraining           0.000000000000 Eh    ::
         :: total charge              -1.000000000000 e     ::
         :::::::::::::::::::::::::::::::::::::::::::::::::::::

      ----------------------------------------------------------- 
     |                   =====================                   |
     |                        A N C O P T                        |
     |                   =====================                   |
     |               Approximate Normal Coordinate               |
     |                Rational Function Optimizer                |
      ----------------------------------------------------------- 

          ...................................................
          :                      SETUP                      :
          :.................................................:
          :   optimization level            normal          :
          :   max. optcycles                   234          :
          :   ANC micro-cycles                  20          :
          :   degrees of freedom               228          :
          :.................................................:
          :   RF solver                   davidson          :
          :   write xtbopt.log                true          :
          :   linear?                        false          :
          :   energy convergence         0.5000000E-05 Eh   :
          :   grad. convergence          0.1000000E-02 Eh/α :
          :   maxmium RF displ.          1.0000000          :
          :   Hlow (freq-cutoff)         0.1000000E-01      :
          :   Hmax (freq-cutoff)         5.0000000          :
          :   S6 in model hess.         20.0000000          :
          ...................................................

generating ANC from model Hessian ...
Using Lindh-Hessian (1995)
 Shifting diagonal of input Hessian by    9.8972815909836830E-003
 Lowest  eigenvalues of input Hessian
    0.000000    0.000000    0.000000    0.000000    0.000000    0.000000
    0.010000    0.010079    0.010107    0.010284    0.010356    0.010470
    0.010880    0.011015    0.011255    0.011371    0.012162    0.012440
 Highest eigenvalues
    1.975689    1.998336    2.048022    2.051655    2.166543    2.194574


........................................................................
.............................. CYCLE    1 ..............................
........................................................................

 iter      E             dE          RMSdq      gap      omega  full diag
   1   -112.9182704 -0.112918E+03  0.108E-04    1.12       0.0  T
   2   -112.9182704 -0.100599E-09  0.697E-05    1.12     162.3  T
   3   -112.9182704 -0.101096E-09  0.500E-05    1.12     226.5  T
     SCC iter.                  ...        0 min,  0.054 sec
     gradient                   ...        0 min,  0.019 sec
 * total energy  :  -111.3625241 Eh     change       -0.1802746E-08 Eh
   gradient norm :     0.2202524 Eh/α   predicted     0.0000000E+00 (-100.00%)
   displ. norm   :     0.4153251 α      lambda       -0.6485828E-01
   maximum displ.:     0.1151271 α      in ANC's #129, #49, #132, ...

........................................................................
.............................. CYCLE    2 ..............................
........................................................................

 iter      E             dE          RMSdq      gap      omega  full diag
   1   -113.0023618 -0.113002E+03  0.293E-01    1.12       0.0  T
   2   -113.0028615 -0.499728E-03  0.238E-01    1.32       1.0  T
   3   -113.0057659 -0.290438E-02  0.113E-01    1.20       1.0  T
   4   -113.0058037 -0.378331E-04  0.485E-02    1.23       1.0  T
   5   -113.0059881 -0.184422E-03  0.885E-03    1.22       1.3  T
   6   -113.0059922 -0.410980E-05  0.431E-03    1.22       2.6  T
   7   -113.0059924 -0.190400E-06  0.164E-03    1.22       6.9  T
   8   -113.0059925 -0.853244E-07  0.555E-04    1.22      20.4  T
   9   -113.0059925 -0.197860E-07  0.227E-04    1.22      49.8  T
     SCC iter.                  ...        0 min,  0.204 sec
     gradient                   ...        0 min,  0.016 sec
 * total energy  :  -111.4082982 Eh     change       -0.4577409E-01 Eh
   gradient norm :     0.0944757 Eh/α   predicted    -0.3803874E-01 ( -16.90%)
   displ. norm   :     0.4182081 α      lambda       -0.2282436E-01
   maximum displ.:     0.1893594 α      in ANC's #49, #19, #84, ...

........................................................................
.............................. CYCLE    3 ..............................
........................................................................

 iter      E             dE          RMSdq      gap      omega  full diag
   1   -113.0643428 -0.113064E+03  0.190E-01    1.26       0.0  T
   2   -113.0647924 -0.449530E-03  0.150E-01    1.36       1.0  T
   3   -113.0655908 -0.798414E-03  0.752E-02    1.31       1.0  T
   4   -113.0655792  0.115715E-04  0.323E-02    1.32       1.0  T
   5   -113.0656802 -0.101003E-03  0.438E-03    1.32       2.6  T
   6   -113.0656809 -0.726793E-06  0.226E-03    1.32       5.0  T
   7   -113.0656810 -0.328299E-07  0.951E-04    1.32      11.9  T
   8   -113.0656810 -0.247684E-07  0.348E-04    1.32      32.6  T
     SCC iter.                  ...        0 min,  0.177 sec
     gradient                   ...        0 min,  0.018 sec
 * total energy  :  -111.4218102 Eh     change       -0.1351203E-01 Eh
   gradient norm :     0.0201374 Eh/α   predicted    -0.1340815E-01 (  -0.77%)
   displ. norm   :     0.3546198 α      lambda       -0.3835384E-02
   maximum displ.:     0.1750065 α      in ANC's #19, #49, #21, ...

........................................................................
.............................. CYCLE    4 ..............................
........................................................................

 iter      E             dE          RMSdq      gap      omega  full diag
   1   -113.0822748 -0.113082E+03  0.104E-01    1.34       0.0  T
   2   -113.0822875 -0.127743E-04  0.626E-02    1.35       1.0  T
   3   -113.0821897  0.978635E-04  0.348E-02    1.33       1.0  T
   4   -113.0823043 -0.114646E-03  0.502E-03    1.34       2.3  T
   5   -113.0823071 -0.281122E-05  0.122E-03    1.34       9.3  T
   6   -113.0823072 -0.448995E-07  0.640E-04    1.34      17.7  T
   7   -113.0823072 -0.112874E-08  0.242E-04    1.34      46.8  T
     SCC iter.                  ...        0 min,  0.240 sec
     gradient                   ...        0 min,  0.015 sec
 * total energy  :  -111.4245073 Eh     change       -0.2697065E-02 Eh
   gradient norm :     0.0138239 Eh/α   predicted    -0.2158870E-02 ( -19.95%)
   displ. norm   :     0.3934707 α      lambda       -0.2006582E-02
   maximum displ.:     0.2183657 α      in ANC's #19, #21, #49, ...

........................................................................
.............................. CYCLE    5 ..............................
........................................................................

 iter      E             dE          RMSdq      gap      omega  full diag
   1   -113.0950619 -0.113095E+03  0.985E-02    1.36       0.0  T
   2   -113.0950669 -0.506247E-05  0.595E-02    1.36       1.0  T
   3   -113.0949687  0.982949E-04  0.293E-02    1.35       1.0  T
   4   -113.0950770 -0.108304E-03  0.393E-03    1.36       2.9  T
   5   -113.0950786 -0.163908E-05  0.120E-03    1.36       9.5  T
   6   -113.0950786 -0.390941E-07  0.695E-04    1.36      16.3  T
   7   -113.0950787 -0.191668E-07  0.303E-04    1.36      37.4  T
     SCC iter.                  ...        0 min,  0.234 sec
     gradient                   ...        0 min,  0.016 sec
 * total energy  :  -111.4258582 Eh     change       -0.1350902E-02 Eh
   gradient norm :     0.0091092 Eh/α   predicted    -0.1158666E-02 ( -14.23%)
   displ. norm   :     0.3285147 α      lambda       -0.7996031E-03
   maximum displ.:     0.1617939 α      in ANC's #19, #8, #11, ...

........................................................................
.............................. CYCLE    6 ..............................
........................................................................

 iter      E             dE          RMSdq      gap      omega  full diag
   1   -113.0985416 -0.113099E+03  0.716E-02    1.36       0.0  T
   2   -113.0985461 -0.450414E-05  0.426E-02    1.36       1.0  T
   3   -113.0985220  0.240302E-04  0.177E-02    1.36       1.0  T
   4   -113.0985493 -0.272288E-04  0.244E-03    1.36       4.6  T
   5   -113.0985498 -0.522254E-06  0.117E-03    1.36       9.7  T
   6   -113.0985499 -0.108386E-06  0.508E-04    1.36      22.3  T
   7   -113.0985499 -0.845529E-08  0.256E-04    1.36      44.2  T
     SCC iter.                  ...        0 min,  0.192 sec
     gradient                   ...        0 min,  0.015 sec
 * total energy  :  -111.4264101 Eh     change       -0.5518750E-03 Eh
   gradient norm :     0.0051504 Eh/α   predicted    -0.4429503E-03 ( -19.74%)
   displ. norm   :     0.2953101 α      lambda       -0.4255713E-03
   maximum displ.:     0.1343869 α      in ANC's #8, #13, #11, ...

........................................................................
.............................. CYCLE    7 ..............................
........................................................................

 iter      E             dE          RMSdq      gap      omega  full diag
   1   -113.0998550 -0.113100E+03  0.559E-02    1.36       0.0  T
   2   -113.0998569 -0.194862E-05  0.338E-02    1.36       1.0  T
   3   -113.0998159  0.410436E-04  0.180E-02    1.36       1.0  T
   4   -113.0998613 -0.453931E-04  0.256E-03    1.36       4.4  T
   5   -113.0998619 -0.632710E-06  0.854E-04    1.36      13.3  T
   6   -113.0998620 -0.210643E-07  0.456E-04    1.36      24.9  T
     SCC iter.                  ...        0 min,  0.176 sec
     gradient                   ...        0 min,  0.015 sec
 * total energy  :  -111.4267152 Eh     change       -0.3051703E-03 Eh
   gradient norm :     0.0047532 Eh/α   predicted    -0.2313484E-03 ( -24.19%)
   displ. norm   :     0.2775480 α      lambda       -0.2849666E-03
   maximum displ.:     0.1348103 α      in ANC's #8, #1, #13, ...

........................................................................
.............................. CYCLE    8 ..............................
........................................................................

 iter      E             dE          RMSdq      gap      omega  full diag
   1   -113.0991409 -0.113099E+03  0.466E-02    1.36       0.0  T
   2   -113.0991422 -0.126445E-05  0.278E-02    1.36       1.0  T
   3   -113.0991265  0.156377E-04  0.110E-02    1.36       1.0  T
   4   -113.0991435 -0.169790E-04  0.177E-03    1.36       6.4  T
   5   -113.0991438 -0.285287E-06  0.756E-04    1.36      15.0  T
   6   -113.0991438 -0.193679E-07  0.366E-04    1.36      30.9  T
     SCC iter.                  ...        0 min,  0.157 sec
     gradient                   ...        0 min,  0.014 sec
 * total energy  :  -111.4269287 Eh     change       -0.2134195E-03 Eh
   gradient norm :     0.0047003 Eh/α   predicted    -0.1534596E-03 ( -28.09%)
   displ. norm   :     0.2727891 α      lambda       -0.2230585E-03
   maximum displ.:     0.1348425 α      in ANC's #1, #8, #13, ...

........................................................................
.............................. CYCLE    9 ..............................
........................................................................

 iter      E             dE          RMSdq      gap      omega  full diag
   1   -113.0982782 -0.113098E+03  0.418E-02    1.36       0.0  T
   2   -113.0982792 -0.101014E-05  0.251E-02    1.36       1.0  T
   3   -113.0982640  0.151887E-04  0.112E-02    1.36       1.0  T
   4   -113.0982806 -0.165734E-04  0.172E-03    1.36       6.6  T
   5   -113.0982809 -0.278282E-06  0.703E-04    1.36      16.1  T
   6   -113.0982809 -0.131537E-07  0.329E-04    1.36      34.5  T
     SCC iter.                  ...        0 min,  0.111 sec
     gradient                   ...        0 min,  0.015 sec
 * total energy  :  -111.4270950 Eh     change       -0.1663325E-03 Eh
   gradient norm :     0.0037452 Eh/α   predicted    -0.1198291E-03 ( -27.96%)
   displ. norm   :     0.2454702 α      lambda       -0.1562832E-03
   maximum displ.:     0.1379548 α      in ANC's #1, #8, #13, ...

........................................................................
.............................. CYCLE   10 ..............................
........................................................................

 iter      E             dE          RMSdq      gap      omega  full diag
   1   -113.0976574 -0.113098E+03  0.346E-02    1.36       0.0  T
   2   -113.0976584 -0.972872E-06  0.204E-02    1.36       1.0  T
   3   -113.0976567  0.170662E-05  0.542E-03    1.36       2.1  T
   4   -113.0976587 -0.200089E-05  0.112E-03    1.36      10.1  T
   5   -113.0976588 -0.684864E-07  0.576E-04    1.36      19.7  T
   6   -113.0976588 -0.146658E-07  0.287E-04    1.36      39.5  T
     SCC iter.                  ...        0 min,  0.151 sec
     gradient                   ...        0 min,  0.014 sec
 * total energy  :  -111.4272111 Eh     change       -0.1161325E-03 Eh
   gradient norm :     0.0025719 Eh/α   predicted    -0.8289057E-04 ( -28.62%)
   displ. norm   :     0.1976747 α      lambda       -0.1045500E-03
   maximum displ.:     0.1240958 α      in ANC's #1, #8, #2, ...

........................................................................
.............................. CYCLE   11 ..............................
........................................................................

 iter      E             dE          RMSdq      gap      omega  full diag
   1   -113.0976523 -0.113098E+03  0.247E-02    1.36       0.0  T
   2   -113.0976527 -0.416840E-06  0.145E-02    1.36       1.0  T
   3   -113.0976510  0.171170E-05  0.445E-03    1.36       2.5  T
   4   -113.0976528 -0.186896E-05  0.974E-04    1.36      11.6  T
   5   -113.0976529 -0.896432E-07  0.438E-04    1.36      25.8  T
   6   -113.0976529 -0.593289E-08  0.218E-04    1.36      52.1  T
     SCC iter.                  ...        0 min,  0.137 sec
     gradient                   ...        0 min,  0.015 sec
 * total energy  :  -111.4272935 Eh     change       -0.8239893E-04 Eh
   gradient norm :     0.0023455 Eh/α   predicted    -0.5432144E-04 ( -34.08%)
   displ. norm   :     0.1895507 α      lambda       -0.9471724E-04
   maximum displ.:     0.1245530 α      in ANC's #1, #3, #2, ...

........................................................................
.............................. CYCLE   12 ..............................
........................................................................

 iter      E             dE          RMSdq      gap      omega  full diag
   1   -113.0980191 -0.113098E+03  0.210E-02    1.36       0.0  T
   2   -113.0980194 -0.296806E-06  0.125E-02    1.36       1.0  T
   3   -113.0980139  0.552388E-05  0.677E-03    1.36       1.7  T
   4   -113.0980200 -0.611367E-05  0.983E-04    1.36      11.5  T
   5   -113.0980201 -0.984731E-07  0.367E-04    1.36      30.9  T
   6   -113.0980201 -0.173024E-08  0.194E-04    1.36      58.4  T
     SCC iter.                  ...        0 min,  0.118 sec
     gradient                   ...        0 min,  0.014 sec
 * total energy  :  -111.4273732 Eh     change       -0.7969085E-04 Eh
   gradient norm :     0.0027138 Eh/α   predicted    -0.4906425E-04 ( -38.43%)
   displ. norm   :     0.2305109 α      lambda       -0.1124626E-03
   maximum displ.:     0.1504907 α      in ANC's #1, #3, #2, ...

........................................................................
.............................. CYCLE   13 ..............................
........................................................................

 iter      E             dE          RMSdq      gap      omega  full diag
   1   -113.0983188 -0.113098E+03  0.238E-02    1.36       0.0  T
   2   -113.0983190 -0.242104E-06  0.143E-02    1.36       1.0  T
   3   -113.0983114  0.761683E-05  0.779E-03    1.36       1.5  T
   4   -113.0983198 -0.842182E-05  0.930E-04    1.36      12.2  T
   5   -113.0983199 -0.721848E-07  0.403E-04    1.36      28.1  T
   6   -113.0983199 -0.167392E-08  0.216E-04    1.36      52.5  T
     SCC iter.                  ...        0 min,  0.128 sec
     gradient                   ...        0 min,  0.014 sec
 * total energy  :  -111.4274704 Eh     change       -0.9721479E-04 Eh
   gradient norm :     0.0030986 Eh/α   predicted    -0.5922617E-04 ( -39.08%)
   displ. norm   :     0.2979165 α      lambda       -0.1369828E-03
   maximum displ.:     0.1934806 α      in ANC's #1, #3, #2, ...

........................................................................
.............................. CYCLE   14 ..............................
........................................................................

 iter      E             dE          RMSdq      gap      omega  full diag
   1   -113.0984010 -0.113098E+03  0.300E-02    1.36       0.0  T
   2   -113.0984013 -0.365303E-06  0.181E-02    1.36       1.0  T
   3   -113.0983904  0.109537E-04  0.938E-03    1.36       1.2  T
   4   -113.0984025 -0.120688E-04  0.113E-03    1.36      10.0  T
   5   -113.0984026 -0.103444E-06  0.526E-04    1.36      21.5  T
   6   -113.0984026 -0.541877E-08  0.274E-04    1.36      41.3  T
     SCC iter.                  ...        0 min,  0.140 sec
     gradient                   ...        0 min,  0.015 sec
 * total energy  :  -111.4275888 Eh     change       -0.1183637E-03 Eh
   gradient norm :     0.0030962 Eh/α   predicted    -0.7457268E-04 ( -37.00%)
   displ. norm   :     0.3445412 α      lambda       -0.1440755E-03
   maximum displ.:     0.2257732 α      in ANC's #1, #3, #2, ...

........................................................................
.............................. CYCLE   15 ..............................
........................................................................

 iter      E             dE          RMSdq      gap      omega  full diag
   1   -113.0981952 -0.113098E+03  0.341E-02    1.36       0.0  T
   2   -113.0981955 -0.379236E-06  0.203E-02    1.36       1.0  T
   3   -113.0981894  0.612047E-05  0.717E-03    1.36       1.6  T
   4   -113.0981961 -0.668743E-05  0.105E-03    1.36      10.7  T
   5   -113.0981962 -0.677152E-07  0.592E-04    1.36      19.1  T
   6   -113.0981962 -0.108517E-07  0.246E-04    1.36      46.0  T
     SCC iter.                  ...        0 min,  0.175 sec
     gradient                   ...        0 min,  0.025 sec
 * total energy  :  -111.4277124 Eh     change       -0.1236137E-03 Eh
   gradient norm :     0.0027379 Eh/α   predicted    -0.8059460E-04 ( -34.80%)
   displ. norm   :     0.3541767 α      lambda       -0.1328462E-03
   maximum displ.:     0.2353854 α      in ANC's #1, #3, #2, ...

........................................................................
.............................. CYCLE   16 ..............................
........................................................................

 iter      E             dE          RMSdq      gap      omega  full diag
   1   -113.0981059 -0.113098E+03  0.351E-02    1.36       0.0  T
   2   -113.0981063 -0.409431E-06  0.209E-02    1.36       1.0  T
   3   -113.0981039  0.239247E-05  0.491E-03    1.36       2.3  T
   4   -113.0981066 -0.268842E-05  0.948E-04    1.36      11.9  T
   5   -113.0981066 -0.345315E-07  0.591E-04    1.36      19.2  T
   6   -113.0981067 -0.142518E-07  0.249E-04    1.36      45.5  T
     SCC iter.                  ...        0 min,  0.176 sec
     gradient                   ...        0 min,  0.014 sec
 * total energy  :  -111.4278267 Eh     change       -0.1142614E-03 Eh
   gradient norm :     0.0025408 Eh/α   predicted    -0.7475898E-04 ( -34.57%)
   displ. norm   :     0.3521578 α      lambda       -0.1214651E-03
   maximum displ.:     0.2366309 α      in ANC's #1, #2, #3, ...

........................................................................
.............................. CYCLE   17 ..............................
........................................................................

 iter      E             dE          RMSdq      gap      omega  full diag
   1   -113.0982142 -0.113098E+03  0.346E-02    1.36       0.0  T
   2   -113.0982147 -0.414494E-06  0.205E-02    1.36       1.0  T
   3   -113.0982140  0.689967E-06  0.301E-03    1.36       3.8  T
   4   -113.0982148 -0.865953E-06  0.853E-04    1.36      13.3  T
   5   -113.0982149 -0.225468E-07  0.496E-04    1.36      22.8  T
     SCC iter.                  ...        0 min,  0.105 sec
     gradient                   ...        0 min,  0.014 sec
 * total energy  :  -111.4279321 Eh     change       -0.1054727E-03 Eh
   gradient norm :     0.0025187 Eh/α   predicted    -0.6826896E-04 ( -35.27%)
   displ. norm   :     0.3668443 α      lambda       -0.1176532E-03
   maximum displ.:     0.2475784 α      in ANC's #1, #2, #3, ...

........................................................................
.............................. CYCLE   18 ..............................
........................................................................

 iter      E             dE          RMSdq      gap      omega  full diag
   1   -113.0983848 -0.113098E+03  0.360E-02    1.36       0.0  T
   2   -113.0983852 -0.401962E-06  0.213E-02    1.36       1.0  T
   3   -113.0983850  0.226956E-06  0.220E-03    1.36       5.2  T
   4   -113.0983853 -0.375052E-06  0.812E-04    1.36      13.9  T
   5   -113.0983854 -0.134307E-07  0.461E-04    1.36      24.5  T
     SCC iter.                  ...        0 min,  0.173 sec
     gradient                   ...        0 min,  0.015 sec
 * total energy  :  -111.4280343 Eh     change       -0.1021802E-03 Eh
   gradient norm :     0.0025956 Eh/α   predicted    -0.6674702E-04 ( -34.68%)
   displ. norm   :     0.3928694 α      lambda       -0.1148255E-03
   maximum displ.:     0.2659384 α      in ANC's #1, #2, #3, ...

........................................................................
.............................. CYCLE   19 ..............................
........................................................................

 iter      E             dE          RMSdq      gap      omega  full diag
   1   -113.0985101 -0.113099E+03  0.373E-02    1.36       0.0  T
   2   -113.0985105 -0.431129E-06  0.221E-02    1.36       1.0  T
   3   -113.0985101  0.374167E-06  0.243E-03    1.36       4.7  T
   4   -113.0985106 -0.498260E-06  0.957E-04    1.36      11.8  T
   5   -113.0985107 -0.414579E-07  0.551E-04    1.36      20.5  T
     SCC iter.                  ...        0 min,  0.100 sec
     gradient                   ...        0 min,  0.016 sec
 * total energy  :  -111.4281318 Eh     change       -0.9743985E-04 Eh
   gradient norm :     0.0023963 Eh/α   predicted    -0.6627458E-04 ( -31.98%)
   displ. norm   :     0.3872085 α      lambda       -0.9668949E-04
   maximum displ.:     0.2633339 α      in ANC's #1, #3, #2, ...

........................................................................
.............................. CYCLE   20 ..............................
........................................................................

 iter      E             dE          RMSdq      gap      omega  full diag
   1   -113.0984539 -0.113098E+03  0.360E-02    1.36       0.0  T
   2   -113.0984542 -0.337920E-06  0.213E-02    1.36       1.0  T
   3   -113.0984528  0.139864E-05  0.352E-03    1.36       3.2  T
   4   -113.0984544 -0.155735E-05  0.985E-04    1.36      11.5  T
   5   -113.0984544 -0.597096E-07  0.516E-04    1.36      21.9  T
   6   -113.0984544 -0.726017E-08  0.179E-04    1.36      63.1  T
     SCC iter.                  ...        0 min,  0.121 sec
     gradient                   ...        0 min,  0.015 sec
 * total energy  :  -111.4282107 Eh     change       -0.7896151E-04 Eh
   gradient norm :     0.0018679 Eh/α   predicted    -0.5559395E-04 ( -29.59%)
   displ. norm   :     0.4901190 α      lambda       -0.6589256E-04
   maximum displ.:     0.3370134 α      in ANC's #1, #3, #2, ...
 * RMSD in coord.:     0.5466176 α      energy gain  -0.6568662E-01 Eh

generating ANC from model Hessian ...
Using Lindh-Hessian (1995)
 Shifting diagonal of input Hessian by    9.8592370505170591E-003
 Lowest  eigenvalues of input Hessian
    0.000000    0.000000    0.000000    0.000000    0.000000    0.000000
    0.010000    0.010098    0.010151    0.010324    0.010403    0.010514
    0.010987    0.011132    0.011384    0.011466    0.012544    0.012632
 Highest eigenvalues
    2.014937    2.040727    2.093048    2.095454    2.192494    2.220812


........................................................................
.............................. CYCLE   21 ..............................
........................................................................

 iter      E             dE          RMSdq      gap      omega  full diag
   1   -113.0987299 -0.113099E+03  0.427E-02    1.36       0.0  T
   2   -113.0987304 -0.503958E-06  0.253E-02    1.36       1.0  T
   3   -113.0987245  0.590672E-05  0.664E-03    1.36       1.7  T
   4   -113.0987309 -0.639673E-05  0.117E-03    1.36       9.6  T
   5   -113.0987310 -0.926197E-07  0.575E-04    1.36      19.7  T
   6   -113.0987310 -0.278490E-08  0.204E-04    1.36      55.6  T
     SCC iter.                  ...        0 min,  0.174 sec
     gradient                   ...        0 min,  0.016 sec
 * total energy  :  -111.4282782 Eh     change       -0.6749340E-04 Eh
   gradient norm :     0.0017468 Eh/α   predicted     0.0000000E+00 (-100.00%)
   displ. norm   :     0.0427594 α      lambda       -0.1634955E-04
   maximum displ.:     0.0249231 α      in ANC's #1, #20, #7, ...

........................................................................
.............................. CYCLE   22 ..............................
........................................................................

 iter      E             dE          RMSdq      gap      omega  full diag
   1   -113.0992412 -0.113099E+03  0.668E-03    1.36       0.0  T
   2   -113.0992414 -0.104827E-06  0.393E-03    1.36       2.9  T
   3   -113.0992411  0.219858E-06  0.173E-03    1.36       6.5  T
   4   -113.0992414 -0.238747E-06  0.496E-04    1.36      22.8  T
   5   -113.0992414 -0.298277E-07  0.167E-04    1.36      67.6  T
     SCC iter.                  ...        0 min,  0.148 sec
     gradient                   ...        0 min,  0.015 sec
 * total energy  :  -111.4282966 Eh     change       -0.1838199E-04 Eh
   gradient norm :     0.0006081 Eh/α   predicted    -0.8196762E-05 ( -55.41%)
   displ. norm   :     0.0941097 α      lambda       -0.1995700E-04
   maximum displ.:     0.0559422 α      in ANC's #1, #4, #7, ...

........................................................................
.............................. CYCLE   23 ..............................
........................................................................

 iter      E             dE          RMSdq      gap      omega  full diag
   1   -113.0996392 -0.113100E+03  0.120E-02    1.36       0.0  T
   2   -113.0996394 -0.148795E-06  0.712E-03    1.36       1.6  T
   3   -113.0996386  0.789142E-06  0.284E-03    1.36       4.0  T
   4   -113.0996394 -0.848763E-06  0.672E-04    1.36      16.8  T
   5   -113.0996395 -0.512181E-07  0.227E-04    1.36      49.8  T
     SCC iter.                  ...        0 min,  0.123 sec
     gradient                   ...        0 min,  0.014 sec
 * total energy  :  -111.4283182 Eh     change       -0.2155914E-04 Eh
   gradient norm :     0.0011604 Eh/α   predicted    -0.1001905E-04 ( -53.53%)
   displ. norm   :     0.1034667 α      lambda       -0.1438457E-04
   maximum displ.:     0.0658875 α      in ANC's #1, #4, #7, ...

........................................................................
.............................. CYCLE   24 ..............................
........................................................................

 iter      E             dE          RMSdq      gap      omega  full diag
   1   -113.0996945 -0.113100E+03  0.120E-02    1.36       0.0  T
   2   -113.0996946 -0.659185E-07  0.714E-03    1.36       1.6  T
   3   -113.0996944  0.168935E-06  0.145E-03    1.36       7.8  T
   4   -113.0996946 -0.192102E-06  0.393E-04    1.36      28.8  T
   5   -113.0996946 -0.923524E-08  0.194E-04    1.36      58.4  T
     SCC iter.                  ...        0 min,  0.178 sec
     gradient                   ...        0 min,  0.020 sec
 * total energy  :  -111.4283347 Eh     change       -0.1649435E-04 Eh
   gradient norm :     0.0010971 Eh/α   predicted    -0.7226795E-05 ( -56.19%)
   displ. norm   :     0.1095538 α      lambda       -0.1357425E-04
   maximum displ.:     0.0721483 α      in ANC's #1, #4, #7, ...

........................................................................
.............................. CYCLE   25 ..............................
........................................................................

 iter      E             dE          RMSdq      gap      omega  full diag
   1   -113.0996073 -0.113100E+03  0.121E-02    1.36       0.0  T
   2   -113.0996073 -0.311509E-07  0.724E-03    1.36       1.6  T
   3   -113.0996067  0.607364E-06  0.216E-03    1.36       5.3  T
   4   -113.0996074 -0.660817E-06  0.316E-04    1.36      35.8  T
   5   -113.0996074 -0.282641E-08  0.186E-04    1.36      60.8  T
     SCC iter.                  ...        0 min,  0.103 sec
     gradient                   ...        0 min,  0.015 sec
 * total energy  :  -111.4283513 Eh     change       -0.1663783E-04 Eh
   gradient norm :     0.0007412 Eh/α   predicted    -0.6824229E-05 ( -58.98%)
   displ. norm   :     0.1318084 α      lambda       -0.1595292E-04
   maximum displ.:     0.0872473 α      in ANC's #1, #4, #7, ...

........................................................................
.............................. CYCLE   26 ..............................
........................................................................

 iter      E             dE          RMSdq      gap      omega  full diag
   1   -113.0993764 -0.113099E+03  0.145E-02    1.36       0.0  T
   2   -113.0993765 -0.595202E-07  0.871E-03    1.36       1.3  T
   3   -113.0993757  0.823339E-06  0.255E-03    1.36       4.4  T
   4   -113.0993766 -0.893154E-06  0.434E-04    1.36      26.1  T
   5   -113.0993766 -0.119624E-07  0.233E-04    1.36      48.6  T
     SCC iter.                  ...        0 min,  0.134 sec
     gradient                   ...        0 min,  0.016 sec
 * total energy  :  -111.4283710 Eh     change       -0.1974176E-04 Eh
   gradient norm :     0.0005788 Eh/α   predicted    -0.8040318E-05 ( -59.27%)
   displ. norm   :     0.1534125 α      lambda       -0.1677741E-04
   maximum displ.:     0.1018611 α      in ANC's #1, #4, #7, ...

........................................................................
.............................. CYCLE   27 ..............................
........................................................................

 iter      E             dE          RMSdq      gap      omega  full diag
   1   -113.0992062 -0.113099E+03  0.166E-02    1.36       0.0  T
   2   -113.0992062 -0.708015E-07  0.992E-03    1.36       1.1  T
   3   -113.0992053  0.929774E-06  0.269E-03    1.36       4.2  T
   4   -113.0992063 -0.100676E-05  0.463E-04    1.36      24.4  T
   5   -113.0992063 -0.145048E-07  0.243E-04    1.36      46.6  T
   6   -113.0992063 -0.133296E-08  0.103E-04    1.36     110.2  T
     SCC iter.                  ...        0 min,  0.118 sec
     gradient                   ...        0 min,  0.025 sec
 * total energy  :  -111.4283914 Eh     change       -0.2034536E-04 Eh
   gradient norm :     0.0007831 Eh/α   predicted    -0.8480056E-05 ( -58.32%)
   displ. norm   :     0.1570494 α      lambda       -0.1454963E-04
   maximum displ.:     0.1050607 α      in ANC's #1, #4, #7, ...

........................................................................
.............................. CYCLE   28 ..............................
........................................................................

 iter      E             dE          RMSdq      gap      omega  full diag
   1   -113.0992033 -0.113099E+03  0.165E-02    1.36       0.0  T
   2   -113.0992033 -0.694670E-07  0.986E-03    1.36       1.1  T
   3   -113.0992033  0.829784E-07  0.116E-03    1.36       9.7  T
   4   -113.0992034 -0.112366E-06  0.318E-04    1.36      35.6  T
   5   -113.0992034 -0.121949E-08  0.174E-04    1.36      65.2  T
     SCC iter.                  ...        0 min,  0.127 sec
     gradient                   ...        0 min,  0.015 sec
 * total energy  :  -111.4284089 Eh     change       -0.1749429E-04 Eh
   gradient norm :     0.0007014 Eh/α   predicted    -0.7354972E-05 ( -57.96%)
   displ. norm   :     0.1380097 α      lambda       -0.1136881E-04
   maximum displ.:     0.0938399 α      in ANC's #1, #4, #7, ...

........................................................................
.............................. CYCLE   29 ..............................
........................................................................

 iter      E             dE          RMSdq      gap      omega  full diag
   1   -113.0993430 -0.113099E+03  0.138E-02    1.36       0.0  T
   2   -113.0993430 -0.358260E-07  0.823E-03    1.36       1.4  T
   3   -113.0993428  0.236148E-06  0.146E-03    1.36       7.7  T
   4   -113.0993430 -0.260427E-06  0.315E-04    1.36      35.9  T
   5   -113.0993430 -0.450862E-08  0.177E-04    1.36      64.0  T
     SCC iter.                  ...        0 min,  0.099 sec
     gradient                   ...        0 min,  0.015 sec
 * total energy  :  -111.4284229 Eh     change       -0.1401331E-04 Eh
   gradient norm :     0.0005350 Eh/α   predicted    -0.5735153E-05 ( -59.07%)
   displ. norm   :     0.1186707 α      lambda       -0.9247016E-05
   maximum displ.:     0.0826985 α      in ANC's #1, #4, #8, ...

........................................................................
.............................. CYCLE   30 ..............................
........................................................................

 iter      E             dE          RMSdq      gap      omega  full diag
   1   -113.0995335 -0.113100E+03  0.114E-02    1.36       0.0  T
   2   -113.0995335 -0.234304E-07  0.682E-03    1.36       1.7  T
   3   -113.0995331  0.452963E-06  0.188E-03    1.36       6.0  T
   4   -113.0995336 -0.489640E-06  0.270E-04    1.36      42.0  T
   5   -113.0995336 -0.347924E-08  0.151E-04    1.36      75.0  T
     SCC iter.                  ...        0 min,  0.186 sec
     gradient                   ...        0 min,  0.015 sec
 * total energy  :  -111.4284348 Eh     change       -0.1194006E-04 Eh
   gradient norm :     0.0003448 Eh/α   predicted    -0.4654758E-05 ( -61.02%)
   displ. norm   :     0.1113364 α      lambda       -0.8720834E-05
   maximum displ.:     0.0787878 α      in ANC's #1, #4, #8, ...

........................................................................
.............................. CYCLE   31 ..............................
........................................................................

 iter      E             dE          RMSdq      gap      omega  full diag
   1   -113.0996465 -0.113100E+03  0.107E-02    1.36       0.0  T
   2   -113.0996465 -0.191697E-07  0.644E-03    1.36       1.8  T
   3   -113.0996459  0.679177E-06  0.226E-03    1.36       5.0  T
   4   -113.0996466 -0.732734E-06  0.260E-04    1.36      43.6  T
   5   -113.0996466 -0.323142E-08  0.145E-04    1.36      78.3  T
     SCC iter.                  ...        0 min,  0.115 sec
     gradient                   ...        0 min,  0.016 sec
 * total energy  :  -111.4284461 Eh     change       -0.1124812E-04 Eh
   gradient norm :     0.0003504 Eh/α   predicted    -0.4388475E-05 ( -60.98%)
   displ. norm   :     0.1103955 α      lambda       -0.8146571E-05
   maximum displ.:     0.0789440 α      in ANC's #1, #4, #8, ...

........................................................................
.............................. CYCLE   32 ..............................
........................................................................

 iter      E             dE          RMSdq      gap      omega  full diag
   1   -113.0996555 -0.113100E+03  0.108E-02    1.36       0.0  T
   2   -113.0996555 -0.201073E-07  0.649E-03    1.36       1.7  T
   3   -113.0996553  0.248116E-06  0.142E-03    1.36       8.0  T
   4   -113.0996555 -0.270345E-06  0.241E-04    1.36      47.0  T
   5   -113.0996555 -0.203600E-08  0.146E-04    1.36      77.5  T
     SCC iter.                  ...        0 min,  0.106 sec
     gradient                   ...        0 min,  0.014 sec
 * total energy  :  -111.4284561 Eh     change       -0.1002015E-04 Eh
   gradient norm :     0.0003918 Eh/α   predicted    -0.4100633E-05 ( -59.08%)
   displ. norm   :     0.0938587 α      lambda       -0.6169706E-05
   maximum displ.:     0.0686368 α      in ANC's #1, #4, #8, ...

........................................................................
.............................. CYCLE   33 ..............................
........................................................................

 iter      E             dE          RMSdq      gap      omega  full diag
   1   -113.0996000 -0.113100E+03  0.957E-03    1.36       0.0  T
   2   -113.0996000 -0.140244E-07  0.574E-03    1.36       2.0  T
   3   -113.0995998  0.231769E-06  0.133E-03    1.36       8.5  T
   4   -113.0996001 -0.251607E-06  0.206E-04    1.36      54.8  T
   5   -113.0996001 -0.138454E-08  0.122E-04    1.36      93.0  T
     SCC iter.                  ...        0 min,  0.128 sec
     gradient                   ...        0 min,  0.016 sec
 * total energy  :  -111.4284634 Eh     change       -0.7313429E-05 Eh
   gradient norm :     0.0003817 Eh/α   predicted    -0.3097250E-05 ( -57.65%)
   displ. norm   :     0.0665135 α      lambda       -0.4057021E-05
   maximum displ.:     0.0500271 α      in ANC's #1, #4, #2, ...

........................................................................
.............................. CYCLE   34 ..............................
........................................................................

 iter      E             dE          RMSdq      gap      omega  full diag
   1   -113.0995317 -0.113100E+03  0.690E-03    1.36       0.0  T
   2   -113.0995317 -0.755895E-08  0.411E-03    1.36       2.8  T
   3   -113.0995316  0.516244E-07  0.663E-04    1.36      17.1  T
   4   -113.0995317 -0.573069E-07  0.142E-04    1.36      80.0  T
     SCC iter.                  ...        0 min,  0.085 sec
     gradient                   ...        0 min,  0.016 sec
 * total energy  :  -111.4284685 Eh     change       -0.5131447E-05 Eh
   gradient norm :     0.0002322 Eh/α   predicted    -0.2033393E-05 ( -60.37%)
   displ. norm   :     0.0537235 α      lambda       -0.3363383E-05
   maximum displ.:     0.0405900 α      in ANC's #1, #3, #2, ...

........................................................................
.............................. CYCLE   35 ..............................
........................................................................

 iter      E             dE          RMSdq      gap      omega  full diag
   1   -113.0994869 -0.113099E+03  0.571E-03    1.36       0.0  T
   2   -113.0994869 -0.396003E-08  0.340E-03    1.36       3.3  T
   3   -113.0994868  0.871009E-07  0.796E-04    1.36      14.2  T
   4   -113.0994869 -0.943868E-07  0.106E-04    1.36     107.0  T
     SCC iter.                  ...        0 min,  0.103 sec
     gradient                   ...        0 min,  0.015 sec
 * total energy  :  -111.4284731 Eh     change       -0.4552860E-05 Eh
   gradient norm :     0.0001812 Eh/α   predicted    -0.1687820E-05 ( -62.93%)
   displ. norm   :     0.0581248 α      lambda       -0.3772702E-05
   maximum displ.:     0.0420648 α      in ANC's #1, #3, #2, ...

   *** GEOMETRY OPTIMIZATION CONVERGED AFTER 35 ITERATIONS ***

------------------------------------------------------------------------
 total energy gain   :        -0.0659490 Eh      -41.3836 kcal/mol
 total RMSD          :         0.6174866 a0        0.3268 Å
 total power (kW/mol):        -4.9471153 (step)  -29.7457 (real)
------------------------------------------------------------------------

 ANCopt (total)                0 d,  0 h,  0 min,  5.821 sec
 optimizer setup                ...        0 min,  0.000 sec (  0.005%)
 model hessian                  ...        0 min,  0.061 sec (  1.046%)
 ANC generation                 ...        0 min,  0.027 sec (  0.455%)
 coordinate transformation      ...        0 min,  0.001 sec (  0.014%)
 single point calculation       ...        0 min,  5.717 sec ( 98.219%)
 optimization log               ...        0 min,  0.006 sec (  0.107%)
 hessian update                 ...        0 min,  0.002 sec (  0.036%)
 rational function              ...        0 min,  0.005 sec (  0.091%)

================
 final structure:
================
 xtb: 6.6.1 (8d0f1dd)
          11122408573D

 78 82  0     0  0            999 V2000
   -0.9317    1.8475   -0.1766 C   0  0  0  0  0  0  0  0  0  0  0  0
   -0.9807    0.4780   -0.0763 C   0  0  0  0  0  0  0  0  0  0  0  0
   -0.0233   -0.2290    0.7022 C   0  0  0  0  0  0  0  0  0  0  0  0
    1.0894    0.5144    1.1435 C   0  0  0  0  0  0  0  0  0  0  0  0
    1.1155    1.9099    1.0228 C   0  0  0  0  0  0  0  0  0  0  0  0
    0.0947    2.6017    0.4202 C   0  0  0  0  0  0  0  0  0  0  0  0
   -0.0861   -1.6363    0.9335 C   0  0  0  0  0  0  0  0  0  0  0  0
    1.1306   -2.3033    1.1718 C   0  0  0  0  0  0  0  0  0  0  0  0
    2.3052   -1.5937    1.5262 C   0  0  0  0  0  0  0  0  0  0  0  0
    2.2755   -0.1437    1.6845 C   0  0  0  0  0  0  0  0  0  0  0  0
   -1.2779   -2.4220    0.9575 C   0  0  0  0  0  0  0  0  0  0  0  0
   -1.2131   -3.8183    0.7731 C   0  0  0  0  0  0  0  0  0  0  0  0
    0.0678   -4.5158    0.6993 C   0  0  0  0  0  0  0  0  0  0  0  0
    1.2302   -3.7143    1.0681 C   0  0  0  0  0  0  0  0  0  0  0  0
    2.4460   -4.3455    1.2879 C   0  0  0  0  0  0  0  0  0  0  0  0
    3.5971   -3.6517    1.6452 C   0  0  0  0  0  0  0  0  0  0  0  0
    3.4940   -2.2737    1.7669 C   0  0  0  0  0  0  0  0  0  0  0  0
   -2.5535   -1.8936    1.2992 C   0  0  0  0  0  0  0  0  0  0  0  0
   -3.6800   -2.6781    1.2389 C   0  0  0  0  0  0  0  0  0  0  0  0
   -3.6222   -4.0429    0.9055 C   0  0  0  0  0  0  0  0  0  0  0  0
   -2.3787   -4.5940    0.7220 C   0  0  0  0  0  0  0  0  0  0  0  0
   -2.5657   -0.6031    1.7778 O   0  0  0  0  0  0  0  0  0  0  0  0
   -1.8781   -0.2959   -0.7772 O   0  0  0  0  0  0  0  0  0  0  0  0
    3.2160    0.4899    2.1850 O   0  0  0  0  0  0  0  0  0  0  0  0
    0.1549   -5.7177    0.4098 O   0  0  0  0  0  0  0  0  0  0  0  0
   -3.7838   -0.0212    2.1269 C   0  0  0  0  0  0  0  0  0  0  0  0
   -2.8153    0.3325   -1.5967 C   0  0  0  0  0  0  0  0  0  0  0  0
   -4.9176   -4.8375    0.8279 C   0  0  0  0  0  0  0  0  0  0  0  0
   -4.6782   -6.2968    0.4320 C   0  0  0  0  0  0  0  0  0  0  0  0
   -5.6119   -4.8232    2.1979 C   0  0  0  0  0  0  0  0  0  0  0  0
   -5.8390   -4.2041   -0.2246 C   0  0  0  0  0  0  0  0  0  0  0  0
    0.0480    4.1194    0.3234 C   0  0  0  0  0  0  0  0  0  0  0  0
   -1.2587    4.6246    0.9525 C   0  0  0  0  0  0  0  0  0  0  0  0
    1.2146    4.7810    1.0617 C   0  0  0  0  0  0  0  0  0  0  0  0
    0.1108    4.5468   -1.1502 C   0  0  0  0  0  0  0  0  0  0  0  0
    4.8907   -4.4168    1.8858 C   0  0  0  0  0  0  0  0  0  0  0  0
    6.0549   -3.4973    2.2648 C   0  0  0  0  0  0  0  0  0  0  0  0
    5.2731   -5.1730    0.6057 C   0  0  0  0  0  0  0  0  0  0  0  0
    4.6761   -5.4174    3.0301 C   0  0  0  0  0  0  0  0  0  0  0  0
    5.5889   -5.9814    3.2211 H   0  0  0  0  0  0  0  0  0  0  0  0
    3.8821   -6.1188    2.7894 H   0  0  0  0  0  0  0  0  0  0  0  0
    4.3979   -4.8888    3.9399 H   0  0  0  0  0  0  0  0  0  0  0  0
    6.9555   -4.0904    2.4240 H   0  0  0  0  0  0  0  0  0  0  0  0
    5.8384   -2.9550    3.1820 H   0  0  0  0  0  0  0  0  0  0  0  0
    6.2559   -2.7798    1.4728 H   0  0  0  0  0  0  0  0  0  0  0  0
    6.1952   -5.7348    0.7547 H   0  0  0  0  0  0  0  0  0  0  0  0
    5.4233   -4.4701   -0.2116 H   0  0  0  0  0  0  0  0  0  0  0  0
    4.4900   -5.8676    0.3149 H   0  0  0  0  0  0  0  0  0  0  0  0
   -6.7714   -4.7632   -0.3021 H   0  0  0  0  0  0  0  0  0  0  0  0
   -5.3494   -4.2084   -1.1962 H   0  0  0  0  0  0  0  0  0  0  0  0
   -6.0788   -3.1749    0.0293 H   0  0  0  0  0  0  0  0  0  0  0  0
   -6.5238   -5.4193    2.1697 H   0  0  0  0  0  0  0  0  0  0  0  0
   -5.8757   -3.8120    2.4966 H   0  0  0  0  0  0  0  0  0  0  0  0
   -4.9488   -5.2382    2.9541 H   0  0  0  0  0  0  0  0  0  0  0  0
   -5.6314   -6.8200    0.3553 H   0  0  0  0  0  0  0  0  0  0  0  0
   -4.0703   -6.8045    1.1763 H   0  0  0  0  0  0  0  0  0  0  0  0
   -4.1753   -6.3572   -0.5298 H   0  0  0  0  0  0  0  0  0  0  0  0
   -3.5460    0.9972    2.4369 H   0  0  0  0  0  0  0  0  0  0  0  0
   -4.2673   -0.5457    2.9623 H   0  0  0  0  0  0  0  0  0  0  0  0
   -4.4829    0.0163    1.2811 H   0  0  0  0  0  0  0  0  0  0  0  0
   -3.4078   -0.4701   -2.0378 H   0  0  0  0  0  0  0  0  0  0  0  0
   -2.3379    0.9087   -2.4010 H   0  0  0  0  0  0  0  0  0  0  0  0
   -3.4808    0.9988   -1.0321 H   0  0  0  0  0  0  0  0  0  0  0  0
    0.1041    5.6335   -1.2328 H   0  0  0  0  0  0  0  0  0  0  0  0
   -0.7355    4.1575   -1.7104 H   0  0  0  0  0  0  0  0  0  0  0  0
    1.0230    4.1692   -1.6073 H   0  0  0  0  0  0  0  0  0  0  0  0
    1.2206    4.4906    2.1092 H   0  0  0  0  0  0  0  0  0  0  0  0
    1.1204    5.8655    1.0057 H   0  0  0  0  0  0  0  0  0  0  0  0
    2.1648    4.4986    0.6159 H   0  0  0  0  0  0  0  0  0  0  0  0
   -1.3082    5.7124    0.9089 H   0  0  0  0  0  0  0  0  0  0  0  0
   -1.3111    4.3159    1.9944 H   0  0  0  0  0  0  0  0  0  0  0  0
   -2.1266    4.2230    0.4361 H   0  0  0  0  0  0  0  0  0  0  0  0
    2.4538   -5.4203    1.1691 H   0  0  0  0  0  0  0  0  0  0  0  0
    4.3357   -1.6623    2.0547 H   0  0  0  0  0  0  0  0  0  0  0  0
    1.9890    2.3977    1.4248 H   0  0  0  0  0  0  0  0  0  0  0  0
   -1.6867    2.3657   -0.7489 H   0  0  0  0  0  0  0  0  0  0  0  0
   -4.6396   -2.2474    1.4829 H   0  0  0  0  0  0  0  0  0  0  0  0
   -2.2319   -5.6475    0.5447 H   0  0  0  0  0  0  0  0  0  0  0  0
  1  2  2  0  0  0  0
  1 76  1  0  0  0  0
  2  3  1  0  0  0  0
  2 23  1  0  0  0  0
  3  4  2  0  0  0  0
  3  7  1  0  0  0  0
  4  5  1  0  0  0  0
  5  6  2  0  0  0  0
  5 75  1  0  0  0  0
  6 32  1  0  0  0  0
  6  1  1  0  0  0  0
  7  8  1  0  0  0  0
  8  9  2  0  0  0  0
  9 10  1  0  0  0  0
 10  4  1  0  0  0  0
 10 24  2  0  0  0  0
 11 12  2  0  0  0  0
 11 18  1  0  0  0  0
 11  7  1  0  0  0  0
 12 13  1  0  0  0  0
 13 14  1  0  0  0  0
 13 25  2  0  0  0  0
 14  8  1  0  0  0  0
 14 15  2  0  0  0  0
 15 16  1  0  0  0  0
 15 73  1  0  0  0  0
 16 36  1  0  0  0  0
 16 17  2  0  0  0  0
 17  9  1  0  0  0  0
 17 74  1  0  0  0  0
 18 19  2  0  0  0  0
 19 20  1  0  0  0  0
 19 77  1  0  0  0  0
 20 28  1  0  0  0  0
 20 21  2  0  0  0  0
 21 12  1  0  0  0  0
 21 78  1  0  0  0  0
 22 26  1  0  0  0  0
 22 18  1  0  0  0  0
 23 27  1  0  0  0  0
 26 58  1  0  0  0  0
 26 59  1  0  0  0  0
 26 60  1  0  0  0  0
 27 61  1  0  0  0  0
 27 62  1  0  0  0  0
 27 63  1  0  0  0  0
 28 29  1  0  0  0  0
 28 30  1  0  0  0  0
 28 31  1  0  0  0  0
 29 55  1  0  0  0  0
 29 56  1  0  0  0  0
 29 57  1  0  0  0  0
 30 52  1  0  0  0  0
 30 53  1  0  0  0  0
 30 54  1  0  0  0  0
 31 49  1  0  0  0  0
 31 50  1  0  0  0  0
 31 51  1  0  0  0  0
 32 33  1  0  0  0  0
 32 34  1  0  0  0  0
 32 35  1  0  0  0  0
 33 70  1  0  0  0  0
 33 71  1  0  0  0  0
 33 72  1  0  0  0  0
 34 67  1  0  0  0  0
 34 68  1  0  0  0  0
 34 69  1  0  0  0  0
 35 64  1  0  0  0  0
 35 65  1  0  0  0  0
 35 66  1  0  0  0  0
 36 37  1  0  0  0  0
 36 38  1  0  0  0  0
 36 39  1  0  0  0  0
 37 43  1  0  0  0  0
 37 44  1  0  0  0  0
 37 45  1  0  0  0  0
 38 46  1  0  0  0  0
 38 47  1  0  0  0  0
 38 48  1  0  0  0  0
 39 40  1  0  0  0  0
 39 41  1  0  0  0  0
 39 42  1  0  0  0  0
M  CHG  1   7  -1
M  END

 Bond Distances (Angstroems)
 ---------------------------
C1-C2=1.3741         C1-C6=1.4065         C1-H76=1.0799        C2-C1=1.3741         C2-C3=1.4221         C2-O23=1.3768        
C3-C2=1.4221         C3-C4=1.4091         C3-C7=1.4276         C4-C3=1.4091         C4-C5=1.4009         C4-C10=1.4604        
C5-C4=1.4009         C5-C6=1.3725         C5-H75=1.0783        C6-C1=1.4065         C6-C5=1.3725         C6-C32=1.5215        
C7-C3=1.4276         C7-C8=1.4078         C7-C11=1.4277        C8-C7=1.4078         C8-C9=1.4174         C8-C14=1.4183        
C9-C8=1.4174         C9-C10=1.4589        C9-C17=1.3905        C10-C4=1.4604        C10-C9=1.4589        C10-O24=1.2395       
C11-C7=1.4277        C11-C12=1.4099       C11-C18=1.4224       C12-C11=1.4099       C12-C13=1.4604       C12-C21=1.4010       
C13-C12=1.4604       C13-C14=1.4593       C13-O25=1.2394       C14-C8=1.4183        C14-C13=1.4593       C14-C15=1.3874       
C15-C14=1.3874       C15-C16=1.3907       C15-H73=1.0814       C16-C15=1.3907       C16-C17=1.3871       C16-C36=1.5220       
C17-C9=1.3905        C17-C16=1.3871       C17-H74=1.0794       C18-C11=1.4224       C18-C19=1.3741       C18-O22=1.3764       
C19-C18=1.3741       C19-C20=1.4061       C19-H77=1.0797       C20-C19=1.4061       C20-C21=1.3725       C20-C28=1.5217       
C21-C12=1.4010       C21-C20=1.3725       C21-H78=1.0783       O22-C18=1.3764       O22-C26=1.3944       O23-C2=1.3768        
O23-C27=1.3945       O24-C10=1.2395       O25-C13=1.2394       C26-O22=1.3944       C26-H58=1.0908       C26-H59=1.0985       
C26-H60=1.0980       C27-O23=1.3945       C27-H61=1.0908       C27-H62=1.0986       C27-H63=1.0980       C28-C20=1.5217       
C28-C29=1.5308       C28-C30=1.5359       C28-C31=1.5355       C29-C28=1.5308       C29-H55=1.0901       C29-H56=1.0869       
C29-H57=1.0870       C30-C28=1.5359       C30-H52=1.0898       C30-H53=1.0870       C30-H54=1.0880       C31-C28=1.5355       
C31-H49=1.0899       C31-H50=1.0880       C31-H51=1.0869       C32-C6=1.5215        C32-C33=1.5357       C32-C34=1.5309       
C32-C35=1.5356       C33-C32=1.5357       C33-H70=1.0898       C33-H71=1.0880       C33-H72=1.0869       C34-C32=1.5309       
C34-H67=1.0870       C34-H68=1.0900       C34-H69=1.0869       C35-C32=1.5356       C35-H64=1.0898       C35-H65=1.0870       
C35-H66=1.0880       C36-C16=1.5220       C36-C37=1.5311       C36-C38=1.5352       C36-C39=1.5352       C37-C36=1.5311       
C37-H43=1.0900       C37-H44=1.0873       C37-H45=1.0874       C38-C36=1.5352       C38-H46=1.0899       C38-H47=1.0884       
C38-H48=1.0864       C39-C36=1.5352       C39-H40=1.0899       C39-H41=1.0864       C39-H42=1.0883       H40-C39=1.0899       
H41-C39=1.0864       H42-C39=1.0883       H43-C37=1.0900       H44-C37=1.0873       H45-C37=1.0874       H46-C38=1.0899       
H47-C38=1.0884       H48-C38=1.0864       H49-C31=1.0899       H50-C31=1.0880       H51-C31=1.0869       H52-C30=1.0898       
H53-C30=1.0870       H54-C30=1.0880       H55-C29=1.0901       H56-C29=1.0869       H57-C29=1.0870       H58-C26=1.0908       
H59-C26=1.0985       H60-C26=1.0980       H61-C27=1.0908       H62-C27=1.0986       H63-C27=1.0980       H64-C35=1.0898       
H65-C35=1.0870       H66-C35=1.0880       H67-C34=1.0870       H68-C34=1.0900       H69-C34=1.0869       H70-C33=1.0898       
H71-C33=1.0880       H72-C33=1.0869       H73-C15=1.0814       H74-C17=1.0794       H75-C5=1.0783        H76-C1=1.0799        
H77-C19=1.0797       H78-C21=1.0783       
 C  H  Rav=1.0880 sigma=0.0049  Rmin=1.0783  Rmax=1.0986    39
 C  C  Rav=1.4496 sigma=0.0607  Rmin=1.3725  Rmax=1.5359    37
 O  C  Rav=1.3368 sigma=0.0693  Rmin=1.2394  Rmax=1.3945     6

 selected bond angles (degree)
 --------------------
C6-C1-C2=121.97                H76-C1-C2=119.48               H76-C1-C6=118.54               C3-C2-C1=120.76                
O23-C2-C1=123.12               O23-C2-C3=115.98               C4-C3-C2=116.15                C7-C3-C2=123.31                
C7-C3-C4=120.27                C5-C4-C3=120.88                C10-C4-C3=121.31               C10-C4-C5=117.76               
C6-C5-C4=121.74                H75-C5-C4=115.70               H75-C5-C6=122.56               C5-C6-C1=117.31                
C32-C6-C1=119.04               C32-C6-C5=123.61               C8-C7-C3=117.16                C11-C7-C3=125.59               
C11-C7-C8=117.25               C9-C8-C7=121.42                C14-C8-C7=121.31               C14-C8-C9=117.27               
C10-C9-C8=120.52               C17-C9-C8=120.46               C17-C9-C10=118.99              C9-C10-C4=115.10               
O24-C10-C4=122.38              O24-C10-C9=122.44              

 selected dihedral angles (degree)
 ---------------------------------
C3-C2-C1-C6=  3.36            C3-C2-C1-H76=181.85           O23-C2-C1-C6=187.91           O23-C2-C1-H76=  6.39          
C4-C3-C2-C1=348.76            C4-C3-C2-O23=164.52           C7-C3-C2-C1=174.70            C7-C3-C2-O23=350.46           
C5-C4-C3-C2= 11.08            C5-C4-C3-C7=185.32            C10-C4-C3-C2=193.87           C10-C4-C3-C7=  8.12           
C6-C5-C4-C3=357.01            C6-C5-C4-C10=174.32           H75-C5-C4-C3=177.52           H75-C5-C4-C10=354.82          
C5-C6-C1-C2=  5.11            C5-C6-C1-H76=186.61           C32-C6-C1-C2=182.88           C32-C6-C1-H76=  4.38          
C1-C6-C5-C4=354.72            C1-C6-C5-H75=174.18           C32-C6-C5-C4=177.05           C32-C6-C5-H75=356.51          
C8-C7-C3-C2=152.45            C8-C7-C3-C4=338.63            C11-C7-C3-C2=331.76           C11-C7-C3-C4=157.94           
C9-C8-C7-C3= 16.64            C9-C8-C7-C11=197.27           C14-C8-C7-C3=196.57           C14-C8-C7-C11= 17.21          
C10-C9-C8-C7=  1.43           C10-C9-C8-C14=181.49          C17-C9-C8-C7=179.51           C17-C9-C8-C14=359.58          
C9-C10-C4-C3=  9.67           C9-C10-C4-C5=192.38           O24-C10-C4-C3=186.43          O24-C10-C4-C5=  9.14          
C4-C10-C9-C8=345.60           C4-C10-C9-C17=167.48          O24-C10-C9-C8=168.84          O24-C10-C9-C17=350.72         
           -------------------------------------------------
          |                Final Singlepoint                |
           -------------------------------------------------

          ...................................................
          :                      SETUP                      :
          :.................................................:
          :  # basis functions                 195          :
          :  # atomic orbitals                 195          :
          :  # shells                          117          :
          :  # electrons                       204          :
          :  max. iterations                   250          :
          :  Hamiltonian                  GFN2-xTB          :
          :  restarted?                      false          :
          :  GBSA solvation                  false          :
          :  PC potential                    false          :
          :  electronic temp.          300.0000000     K    :
          :  accuracy                    1.0000000          :
          :  -> integral cutoff          0.2500000E+02      :
          :  -> integral neglect         0.1000000E-07      :
          :  -> SCF convergence          0.1000000E-05 Eh   :
          :  -> wf. convergence          0.1000000E-03 e    :
          :  Broyden damping             0.4000000          :
          ...................................................

 iter      E             dE          RMSdq      gap      omega  full diag
   1   -113.0994869 -0.113099E+03  0.597E-05    1.36       0.0  T
   2   -113.0994869 -0.221974E-10  0.381E-05    1.36     297.2  T
   3   -113.0994869 -0.231495E-10  0.266E-05    1.36     426.1  T

   *** convergence criteria satisfied after 3 iterations ***

         #    Occupation            Energy/Eh            Energy/eV
      -------------------------------------------------------------
         1        2.0000           -0.6056626             -16.4809
       ...           ...                  ...                  ...
        96        2.0000           -0.2733029              -7.4370
        97        2.0000           -0.2705233              -7.3613
        98        2.0000           -0.2652230              -7.2171
        99        2.0000           -0.2562103              -6.9718
       100        2.0000           -0.2414939              -6.5714
       101        2.0000           -0.2368727              -6.4456
       102        2.0000           -0.2048404              -5.5740 (HOMO)
       103                         -0.1548267              -4.2130 (LUMO)
       104                         -0.1189584              -3.2370
       105                         -0.1045604              -2.8452
       106                         -0.1014966              -2.7619
       107                         -0.0880512              -2.3960
       ...                                ...                  ...
       195                          0.8619322              23.4544
      -------------------------------------------------------------
                  HL-Gap            0.0500136 Eh            1.3609 eV
             Fermi-level           -0.1798335 Eh           -4.8935 eV

 SCC (total)                   0 d,  0 h,  0 min,  0.095 sec
 SCC setup                      ...        0 min,  0.000 sec (  0.172%)
 Dispersion                     ...        0 min,  0.001 sec (  0.555%)
 classical contributions        ...        0 min,  0.000 sec (  0.159%)
 integral evaluation            ...        0 min,  0.003 sec (  2.625%)
 iterations                     ...        0 min,  0.075 sec ( 78.818%)
 molecular gradient             ...        0 min,  0.016 sec ( 16.969%)
 printout                       ...        0 min,  0.001 sec (  0.695%)

         :::::::::::::::::::::::::::::::::::::::::::::::::::::
         ::                     SUMMARY                     ::
         :::::::::::::::::::::::::::::::::::::::::::::::::::::
         :: total energy            -111.428473092340 Eh    ::
         :: gradient norm              0.000181141953 Eh/a0 ::
         :: HOMO-LUMO gap              1.360940641224 eV    ::
         ::.................................................::
         :: SCC energy              -113.099486902733 Eh    ::
         :: -> isotropic ES            0.176281240900 Eh    ::
         :: -> anisotropic ES          0.033701843978 Eh    ::
         :: -> anisotropic XC          0.036651739403 Eh    ::
         :: -> dispersion             -0.100362451769 Eh    ::
         :: repulsion energy           1.670185975148 Eh    ::
         :: add. restraining           0.000000000000 Eh    ::
         :: total charge              -1.000000000000 e     ::
         :::::::::::::::::::::::::::::::::::::::::::::::::::::

           -------------------------------------------------
          |                Property Printout                |
           -------------------------------------------------

    * Orbital Energies and Occupations

         #    Occupation            Energy/Eh            Energy/eV
      -------------------------------------------------------------
         1        2.0000           -0.6056626             -16.4809
       ...           ...                  ...                  ...
        90        2.0000           -0.3135272              -8.5315
        91        2.0000           -0.3108323              -8.4582
        92        2.0000           -0.3046356              -8.2896
        93        2.0000           -0.2968657              -8.0781
        94        2.0000           -0.2861455              -7.7864
        95        2.0000           -0.2749635              -7.4821
        96        2.0000           -0.2733029              -7.4370
        97        2.0000           -0.2705233              -7.3613
        98        2.0000           -0.2652230              -7.2171
        99        2.0000           -0.2562103              -6.9718
       100        2.0000           -0.2414939              -6.5714
       101        2.0000           -0.2368727              -6.4456
       102        2.0000           -0.2048404              -5.5740 (HOMO)
       103                         -0.1548267              -4.2130 (LUMO)
       104                         -0.1189584              -3.2370
       105                         -0.1045604              -2.8452
       106                         -0.1014966              -2.7619
       107                         -0.0880512              -2.3960
       108                         -0.0550279              -1.4974
       109                         -0.0429848              -1.1697
       110                         -0.0234678              -0.6386
       111                          0.0272129               0.7405
       112                          0.0420351               1.1438
       113                          0.0901394               2.4528
       ...                                ...                  ...
       195                          0.8619322              23.4544
      -------------------------------------------------------------
                  HL-Gap            0.0500136 Eh            1.3609 eV
             Fermi-level           -0.1798335 Eh           -4.8935 eV

     #   Z          covCN         q      C6AA      α(0)
     1   6 C        2.923    -0.080    30.001     8.982
     2   6 C        2.863     0.134    25.067     8.207
     3   6 C        2.979    -0.005    28.145     8.702
     4   6 C        2.982    -0.039    28.972     8.829
     5   6 C        2.929    -0.049    29.224     8.865
     6   6 C        2.970    -0.018    28.453     8.749
     7   6 C        2.974    -0.032    28.789     8.801
     8   6 C        2.994    -0.006    28.170     8.706
     9   6 C        2.977    -0.037    28.909     8.820
    10   6 C        2.837     0.202    23.713     7.980
    11   6 C        2.978    -0.005    28.148     8.703
    12   6 C        2.982    -0.040    28.975     8.830
    13   6 C        2.837     0.203    23.702     7.978
    14   6 C        2.976    -0.036    28.890     8.817
    15   6 C        2.932    -0.028    28.702     8.786
    16   6 C        2.968    -0.016    28.410     8.743
    17   6 C        2.930    -0.032    28.804     8.802
    18   6 C        2.862     0.133    25.080     8.209
    19   6 C        2.924    -0.080    29.996     8.982
    20   6 C        2.969    -0.018    28.452     8.749
    21   6 C        2.929    -0.049    29.219     8.865
    22   8 O        1.705    -0.275    18.569     5.818
    23   8 O        1.705    -0.276    18.572     5.819
    24   8 O        0.857    -0.482    23.387     6.484
    25   8 O        0.857    -0.482    23.385     6.484
    26   6 C        3.642     0.058    19.941     6.420
    27   6 C        3.642     0.058    19.945     6.421
    28   6 C        3.902     0.026    20.078     6.369
    29   6 C        3.762    -0.104    22.529     6.766
    30   6 C        3.761    -0.099    22.428     6.751
    31   6 C        3.761    -0.098    22.427     6.751
    32   6 C        3.902     0.026    20.078     6.369
    33   6 C        3.761    -0.098    22.425     6.751
    34   6 C        3.762    -0.104    22.530     6.766
    35   6 C        3.761    -0.098    22.427     6.751
    36   6 C        3.903     0.025    20.093     6.372
    37   6 C        3.761    -0.102    22.493     6.761
    38   6 C        3.761    -0.101    22.475     6.758
    39   6 C        3.761    -0.101    22.471     6.757
    40   1 H        0.925     0.020     2.726     2.582
    41   1 H        0.925     0.037     2.489     2.467
    42   1 H        0.925     0.028     2.610     2.526
    43   1 H        0.925     0.020     2.736     2.587
    44   1 H        0.925     0.035     2.518     2.481
    45   1 H        0.925     0.034     2.534     2.489
    46   1 H        0.925     0.020     2.729     2.583
    47   1 H        0.925     0.028     2.613     2.528
    48   1 H        0.925     0.038     2.472     2.459
    49   1 H        0.925     0.020     2.727     2.582
    50   1 H        0.925     0.030     2.585     2.514
    51   1 H        0.925     0.029     2.607     2.525
    52   1 H        0.925     0.021     2.719     2.578
    53   1 H        0.925     0.028     2.618     2.530
    54   1 H        0.925     0.030     2.581     2.512
    55   1 H        0.925     0.020     2.732     2.585
    56   1 H        0.925     0.037     2.491     2.468
    57   1 H        0.925     0.037     2.484     2.465
    58   1 H        0.924     0.044     2.399     2.422
    59   1 H        0.923     0.021     2.725     2.582
    60   1 H        0.923     0.021     2.717     2.578
    61   1 H        0.924     0.044     2.402     2.424
    62   1 H        0.923     0.021     2.717     2.578
    63   1 H        0.923     0.021     2.723     2.581
    64   1 H        0.925     0.021     2.718     2.578
    65   1 H        0.925     0.028     2.619     2.531
    66   1 H        0.925     0.030     2.583     2.513
    67   1 H        0.925     0.038     2.480     2.463
    68   1 H        0.925     0.020     2.732     2.585
    69   1 H        0.925     0.037     2.493     2.469
    70   1 H        0.925     0.020     2.728     2.583
    71   1 H        0.925     0.030     2.585     2.514
    72   1 H        0.925     0.028     2.609     2.526
    73   1 H        0.925     0.036     2.496     2.471
    74   1 H        0.926     0.044     2.400     2.423
    75   1 H        0.926     0.046     2.366     2.406
    76   1 H        0.926     0.008     2.926     2.675
    77   1 H        0.926     0.008     2.920     2.672
    78   1 H        0.926     0.046     2.370     2.407

 Mol. C6AA /au·bohr⁶  :      65956.641880
 Mol. C8AA /au·bohr⁸  :    1551594.144084
 Mol. α(0) /au        :        397.916727


Wiberg/Mayer (AO) data.
largest (>0.10) Wiberg bond orders for each atom

 ---------------------------------------------------------------------------
     #   Z sym  total        # sym  WBO       # sym  WBO       # sym  WBO
 ---------------------------------------------------------------------------
     1   6 C    3.970 --     2 C    1.470     6 C    1.313    76 H    0.959
     2   6 C    3.917 --     1 C    1.470     3 C    1.228    23 O    1.025
     3   6 C    3.977 --     4 C    1.297     2 C    1.228     7 C    1.198
     4   6 C    3.972 --     5 C    1.329     3 C    1.297    10 C    1.090
     5   6 C    3.987 --     6 C    1.489     4 C    1.329    75 H    0.960
     6   6 C    3.964 --     5 C    1.489     1 C    1.313    32 C    0.980
     7   6 C    3.974 --     8 C    1.280    11 C    1.200     3 C    1.198
     8   6 C    3.986 --     7 C    1.280     9 C    1.239    14 C    1.233
     9   6 C    3.981 --    17 C    1.396     8 C    1.239    10 C    1.088
    10   6 C    3.941 --    24 O    1.618     4 C    1.090     9 C    1.088
    11   6 C    3.976 --    12 C    1.296    18 C    1.229     7 C    1.200
    12   6 C    3.972 --    21 C    1.330    11 C    1.296    13 C    1.090
    13   6 C    3.942 --    25 O    1.619    12 C    1.090    14 C    1.086
    14   6 C    3.982 --    15 C    1.410     8 C    1.233    13 C    1.086
    15   6 C    3.987 --    14 C    1.410    16 C    1.397    73 H    0.960
    16   6 C    3.973 --    17 C    1.412    15 C    1.397    36 C    0.979
    17   6 C    3.986 --    16 C    1.412     9 C    1.396    74 H    0.961
    18   6 C    3.918 --    19 C    1.469    11 C    1.229    22 O    1.025
    19   6 C    3.970 --    18 C    1.469    20 C    1.314    77 H    0.959
    20   6 C    3.963 --    21 C    1.488    19 C    1.314    28 C    0.980
    21   6 C    3.987 --    20 C    1.488    12 C    1.330    78 H    0.960
    22   8 O    2.211 --    18 C    1.025    26 C    1.004
    23   8 O    2.209 --     2 C    1.025    27 C    1.004
    24   8 O    1.908 --    10 C    1.618
    25   8 O    1.910 --    13 C    1.619
    26   6 C    3.962 --    22 O    1.004    58 H    0.980    59 H    0.974
                            60 H    0.974
    27   6 C    3.962 --    23 O    1.004    61 H    0.980    62 H    0.974
                            63 H    0.974
    28   6 C    3.989 --    29 C    1.000    31 C    0.990    30 C    0.989
                            20 C    0.980
    29   6 C    3.997 --    28 C    1.000    55 H    0.986    57 H    0.985
                            56 H    0.985
    30   6 C    3.995 --    28 C    0.989    54 H    0.987    52 H    0.986
                            53 H    0.984
    31   6 C    3.995 --    28 C    0.990    50 H    0.987    49 H    0.986
                            51 H    0.984
    32   6 C    3.989 --    34 C    0.999    33 C    0.989    35 C    0.989
                             6 C    0.980
    33   6 C    3.995 --    32 C    0.989    71 H    0.987    70 H    0.986
                            72 H    0.984
    34   6 C    3.997 --    32 C    0.999    68 H    0.986    67 H    0.985
                            69 H    0.985
    35   6 C    3.995 --    32 C    0.989    66 H    0.987    64 H    0.986
                            65 H    0.984
    36   6 C    3.989 --    37 C    1.000    38 C    0.989    39 C    0.989
                            16 C    0.979
    37   6 C    3.997 --    36 C    1.000    43 H    0.986    45 H    0.985
                            44 H    0.985
    38   6 C    3.995 --    36 C    0.989    47 H    0.987    46 H    0.986
                            48 H    0.983
    39   6 C    3.995 --    36 C    0.989    42 H    0.987    40 H    0.986
                            41 H    0.984
    40   1 H    0.999 --    39 C    0.986
    41   1 H    0.999 --    39 C    0.984
    42   1 H    0.999 --    39 C    0.987
    43   1 H    0.999 --    37 C    0.986
    44   1 H    0.999 --    37 C    0.985
    45   1 H    0.999 --    37 C    0.985
    46   1 H    0.999 --    38 C    0.986
    47   1 H    0.999 --    38 C    0.987
    48   1 H    0.999 --    38 C    0.983
    49   1 H    0.999 --    31 C    0.986
    50   1 H    0.999 --    31 C    0.987
    51   1 H    0.999 --    31 C    0.984
    52   1 H    0.999 --    30 C    0.986
    53   1 H    0.999 --    30 C    0.984
    54   1 H    0.999 --    30 C    0.987
    55   1 H    0.999 --    29 C    0.986
    56   1 H    0.999 --    29 C    0.985
    57   1 H    0.999 --    29 C    0.985
    58   1 H    0.998 --    26 C    0.980
    59   1 H    0.999 --    26 C    0.974
    60   1 H    0.999 --    26 C    0.974
    61   1 H    0.998 --    27 C    0.980
    62   1 H    0.999 --    27 C    0.974
    63   1 H    0.999 --    27 C    0.974
    64   1 H    0.999 --    35 C    0.986
    65   1 H    0.999 --    35 C    0.984
    66   1 H    0.999 --    35 C    0.987
    67   1 H    0.999 --    34 C    0.985
    68   1 H    0.999 --    34 C    0.986
    69   1 H    0.999 --    34 C    0.985
    70   1 H    0.999 --    33 C    0.986
    71   1 H    0.999 --    33 C    0.987
    72   1 H    0.999 --    33 C    0.984
    73   1 H    0.998 --    15 C    0.960
    74   1 H    0.997 --    17 C    0.961
    75   1 H    0.997 --     5 C    0.960
    76   1 H    0.999 --     1 C    0.959
    77   1 H    0.999 --    19 C    0.959
    78   1 H    0.997 --    21 C    0.960
 ---------------------------------------------------------------------------

Topologies differ in bond orders
Writing corrected topology to xtbtopo.mol

molecular dipole:
                 x           y           z       tot (Debye)
 q only:       -1.867       4.216      -2.209
   full:       -2.432       4.518      -2.316      14.310
molecular quadrupole (traceless):
                xx          xy          yy          xz          yz          zz
 q only:       10.541      -7.071     -39.311     -12.782       5.198      28.770
  q+dip:       17.815      -8.031     -40.269     -13.493       2.969      22.454
   full:       15.170      -8.373     -43.994     -15.475       2.464      28.824

           -------------------------------------------------
          |                Geometry Summary                 |
           -------------------------------------------------

      molecular mass/u    :      523.6830654
   center of mass at/Å    :       -0.1783277      -1.5949490       0.9438666
  moments of inertia/u·Å² :        0.5554569E+04   0.5708519E+04   0.1045513E+05
rotational constants/cm⁻¹ :        0.3034913E-02   0.2953066E-02   0.1612379E-02

 * 75 selected distances

     #   Z          #   Z                                           value/Å
     1   6 C        2   6 C                                       1.3740503
     2   6 C        3   6 C                                       1.4221069
     3   6 C        4   6 C                                       1.4091165
     4   6 C        5   6 C                                       1.4008982
     1   6 C        6   6 C                                       1.4064802
     5   6 C        6   6 C                                       1.3725098
     3   6 C        7   6 C                                       1.4276421
     7   6 C        8   6 C                                       1.4077892
     8   6 C        9   6 C                                       1.4173520
     7   6 C       11   6 C                                       1.4276978
    11   6 C       12   6 C                                       1.4098596
     8   6 C       14   6 C                                       1.4183246
    14   6 C       15   6 C                                       1.3873776
    15   6 C       16   6 C                                       1.3907396
     9   6 C       17   6 C                                       1.3905054
    16   6 C       17   6 C                                       1.3871375
    11   6 C       18   6 C                                       1.4223809
    18   6 C       19   6 C                                       1.3741118
    19   6 C       20   6 C                                       1.4060885
    12   6 C       21   6 C                                       1.4010493
    20   6 C       21   6 C                                       1.3724979
    18   6 C       22   8 O                                       1.3764245
     2   6 C       23   8 O                                       1.3768038
    10   6 C       24   8 O                                       1.2394533
    13   6 C       25   8 O                                       1.2393568
    22   8 O       26   6 C                                       1.3943744
    23   8 O       27   6 C                                       1.3945245
    28   6 C       29   6 C                                       1.5308484
    28   6 C       30   6 C                                       1.5359498 (max)
    28   6 C       31   6 C                                       1.5355396
    32   6 C       33   6 C                                       1.5357074
    32   6 C       34   6 C                                       1.5309297
    32   6 C       35   6 C                                       1.5356040
    36   6 C       37   6 C                                       1.5311288
    36   6 C       38   6 C                                       1.5351816
    36   6 C       39   6 C                                       1.5351647
    39   6 C       40   1 H                                       1.0899243
    39   6 C       41   1 H                                       1.0864412
    39   6 C       42   1 H                                       1.0883349
    37   6 C       43   1 H                                       1.0900416
    37   6 C       44   1 H                                       1.0873255
    37   6 C       45   1 H                                       1.0874205
    38   6 C       46   1 H                                       1.0899453
    38   6 C       47   1 H                                       1.0883547
    38   6 C       48   1 H                                       1.0863510
    31   6 C       49   1 H                                       1.0898755
    31   6 C       50   1 H                                       1.0879957
    31   6 C       51   1 H                                       1.0869051
    30   6 C       52   1 H                                       1.0898131
    30   6 C       53   1 H                                       1.0870013
    30   6 C       54   1 H                                       1.0880096
    29   6 C       55   1 H                                       1.0900502
    29   6 C       56   1 H                                       1.0868780
    29   6 C       57   1 H                                       1.0869501
    26   6 C       58   1 H                                       1.0907946
    26   6 C       59   1 H                                       1.0985448
    26   6 C       60   1 H                                       1.0979535
Note: The following floating-point exceptions are signalling: IEEE_UNDERFLOW_FLAG
normal termination of xtb
    27   6 C       61   1 H                                       1.0907616
    27   6 C       62   1 H                                       1.0985787
    27   6 C       63   1 H                                       1.0980376
    35   6 C       64   1 H                                       1.0898081
    35   6 C       65   1 H                                       1.0870350
    35   6 C       66   1 H                                       1.0879797
    34   6 C       67   1 H                                       1.0869787
    34   6 C       68   1 H                                       1.0900389
    34   6 C       69   1 H                                       1.0868529
    33   6 C       70   1 H                                       1.0898426
    33   6 C       71   1 H                                       1.0879748
    33   6 C       72   1 H                                       1.0868685
    15   6 C       73   1 H                                       1.0814228
    17   6 C       74   1 H                                       1.0794378
     5   6 C       75   1 H                                       1.0782619 (min)
     1   6 C       76   1 H                                       1.0798640
    19   6 C       77   1 H                                       1.0797494
    21   6 C       78   1 H                                       1.0783387

 * 3 distinct bonds (by element types)

   Z      Z             #   av. dist./Å        max./Å        min./Å
   1 H    6 C          39     1.0880190     1.0985787     1.0782619
   6 C    6 C          30     1.4410590     1.5359498     1.3724979
   6 C    8 O           6     1.3368229     1.3945245     1.2393568


optimized geometry written to: xtbopt.mol


           -------------------------------------------------
          | TOTAL ENERGY             -111.428473092340 Eh   |
          | GRADIENT NORM               0.000181141953 Eh/α |
          | HOMO-LUMO GAP               1.360940641224 eV   |
           -------------------------------------------------
########################################################################
[WARNING] Runtime exception occurred
-2- restart_readRestart: Dimension missmatch in restart file.
-1- restart_readRestart: Number of electron missmatch in restart file.
########################################################################

------------------------------------------------------------------------
 * finished run on 2024/11/12 at 08:57:59.821     
------------------------------------------------------------------------
 total:
 * wall-time:     0 d,  0 h,  0 min,  6.310 sec
 *  cpu-time:     0 d,  0 h,  0 min, 19.025 sec
 * ratio c/w:     3.015 speedup
 SCF:
 * wall-time:     0 d,  0 h,  0 min,  0.366 sec
 *  cpu-time:     0 d,  0 h,  0 min,  1.232 sec
 * ratio c/w:     3.369 speedup
 ANC optimizer:
 * wall-time:     0 d,  0 h,  0 min,  5.919 sec
 *  cpu-time:     0 d,  0 h,  0 min, 17.768 sec
 * ratio c/w:     3.002 speedup

