156
 energy: -25.534395550076 gnorm: 9839.181401898562 xtb: 6.7.1 (edcfbbe)
C           -0.94430000000000        1.83630000000000       -0.18240000000000
C           -0.99000000000000        0.46790000000000       -0.06940000000000
C           -0.02160000000000       -0.23070000000000        0.70320000000000
C            1.09580000000000        0.51770000000000        1.12410000000000
C            1.11790000000000        1.91230000000000        0.99060000000000
C            0.08820000000000        2.59710000000000        0.39490000000000
C           -0.07990000000000       -1.63600000000000        0.94620000000000
C            1.13920000000000       -2.30020000000000        1.17880000000000
C            2.31650000000000       -1.58710000000000        1.51710000000000
C            2.28860000000000       -0.13490000000000        1.65780000000000
C           -1.27050000000000       -2.42290000000000        0.98110000000000
C           -1.20610000000000       -3.81900000000000        0.79730000000000
C            0.07490000000000       -4.51600000000000        0.72400000000000
C            1.23800000000000       -3.71190000000000        1.08470000000000
C            2.45440000000000       -4.34160000000000        1.30450000000000
C            3.60700000000000       -3.64530000000000        1.65180000000000
C            3.50610000000000       -2.26580000000000        1.75830000000000
C           -2.54470000000000       -1.89450000000000        1.32820000000000
C           -3.67230000000000       -2.67700000000000        1.26320000000000
C           -3.61570000000000       -4.04000000000000        0.92190000000000
C           -2.37250000000000       -4.59320000000000        0.74260000000000
O           -2.55330000000000       -0.60670000000000        1.81420000000000
O           -1.89530000000000       -0.31310000000000       -0.75200000000000
O            3.23510000000000        0.50440000000000        2.13900000000000
O            0.16210000000000       -5.71920000000000        0.43970000000000
C           -3.76970000000000       -0.02500000000000        2.16990000000000
C           -2.85300000000000        0.30700000000000       -1.55380000000000
C           -4.91250000000000       -4.83010000000000        0.82620000000000
C           -4.67270000000000       -6.28820000000000        0.42650000000000
C           -5.62500000000000       -4.81980000000000        2.18670000000000
C           -5.81730000000000       -4.18820000000000       -0.23550000000000
C            0.03510000000000        4.11380000000000        0.28570000000000
C           -1.26730000000000        4.61890000000000        0.92410000000000
C            1.20650000000000        4.78600000000000        1.00630000000000
C            0.08050000000000        4.52900000000000       -1.19200000000000
C            4.89940000000000       -4.41110000000000        1.89680000000000
C            6.06470000000000       -3.49210000000000        2.27300000000000
C            5.28110000000000       -5.17400000000000        0.62040000000000
C            4.68220000000000       -5.40640000000000        3.04540000000000
H            5.59450000000000       -5.96980000000000        3.24070000000000
H            3.88860000000000       -6.10890000000000        2.80670000000000
H            4.40250000000000       -4.87370000000000        3.95230000000000
H            6.96310000000000       -4.08650000000000        2.43940000000000
H            5.84640000000000       -2.94270000000000        3.18560000000000
H            6.27040000000000       -2.78070000000000        1.47670000000000
H            6.20130000000000       -5.73790000000000        0.77300000000000
H            5.43420000000000       -4.47540000000000       -0.19990000000000
H            4.49620000000000       -5.86760000000000        0.33200000000000
H           -6.74930000000000       -4.74520000000000       -0.33090000000000
H           -5.31310000000000       -4.18680000000000       -1.19960000000000
H           -6.05910000000000       -3.16030000000000        0.02180000000000
H           -6.53950000000000       -5.41090000000000        2.14280000000000
H           -5.88780000000000       -3.80890000000000        2.48770000000000
H           -4.97440000000000       -5.24250000000000        2.94930000000000
H           -5.62640000000000       -6.80780000000000        0.33410000000000
H           -4.07670000000000       -6.80160000000000        1.17650000000000
H           -4.15690000000000       -6.34560000000000       -0.52860000000000
H           -3.53020000000000        0.99230000000000        2.48220000000000
H           -4.25030000000000       -0.55210000000000        3.00540000000000
H           -4.47220000000000        0.01570000000000        1.32710000000000
H           -3.45520000000000       -0.50030000000000       -1.97260000000000
H           -2.39640000000000        0.87630000000000       -2.37490000000000
H           -3.50510000000000        0.97780000000000       -0.97900000000000
H            0.06800000000000        5.61490000000000       -1.28360000000000
H           -0.76990000000000        4.13130000000000       -1.74000000000000
H            0.98950000000000        4.15160000000000       -1.65570000000000
H            1.22380000000000        4.50520000000000        2.05620000000000
H            1.10790000000000        5.86970000000000        0.94130000000000
H            2.15330000000000        4.50300000000000        0.55370000000000
H           -1.31930000000000        5.70640000000000        0.87710000000000
H           -1.31040000000000        4.31360000000000        1.96750000000000
H           -2.13880000000000        4.21390000000000        0.41640000000000
H            2.46130000000000       -5.41730000000000        1.19390000000000
H            4.35060000000000       -1.65240000000000        2.03380000000000
H            1.99540000000000        2.40550000000000        1.37720000000000
H           -1.70670000000000        2.34820000000000       -0.75040000000000
H           -4.63170000000000       -2.24600000000000        1.50760000000000
H           -2.22660000000000       -5.64640000000000        0.56350000000000
C           -0.94430000000000        1.83630000000000        3.81760000000000
C           -0.99000000000000        0.46790000000000        3.93060000000000
C           -0.02160000000000       -0.23070000000000        4.70320000000000
C            1.09580000000000        0.51770000000000        5.12410000000000
C            1.11790000000000        1.91230000000000        4.99060000000000
C            0.08820000000000        2.59710000000000        4.39490000000000
C           -0.07990000000000       -1.63600000000000        4.94620000000000
C            1.13920000000000       -2.30020000000000        5.17880000000000
C            2.31650000000000       -1.58710000000000        5.51710000000000
C            2.28860000000000       -0.13490000000000        5.65780000000000
C           -1.27050000000000       -2.42290000000000        4.98110000000000
C           -1.20610000000000       -3.81900000000000        4.79730000000000
C            0.07490000000000       -4.51600000000000        4.72400000000000
C            1.23800000000000       -3.71190000000000        5.08470000000000
C            2.45440000000000       -4.34160000000000        5.30450000000000
C            3.60700000000000       -3.64530000000000        5.65180000000000
C            3.50610000000000       -2.26580000000000        5.75830000000000
C           -2.54470000000000       -1.89450000000000        5.32820000000000
C           -3.67230000000000       -2.67700000000000        5.26320000000000
C           -3.61570000000000       -4.04000000000000        4.92190000000000
C           -2.37250000000000       -4.59320000000000        4.74260000000000
O           -2.55330000000000       -0.60670000000000        5.81420000000000
O           -1.89530000000000       -0.31310000000000        3.24800000000000
O            3.23510000000000        0.50440000000000        6.13900000000000
O            0.16210000000000       -5.71920000000000        4.43970000000000
C           -3.76970000000000       -0.02500000000000        6.16990000000000
C           -2.85300000000000        0.30700000000000        2.44620000000000
C           -4.91250000000000       -4.83010000000000        4.82620000000000
C           -4.67270000000000       -6.28820000000000        4.42650000000000
C           -5.62500000000000       -4.81980000000000        6.18670000000000
C           -5.81730000000000       -4.18820000000000        3.76450000000000
C            0.03510000000000        4.11380000000000        4.28570000000000
C           -1.26730000000000        4.61890000000000        4.92410000000000
C            1.20650000000000        4.78600000000000        5.00630000000000
C            0.08050000000000        4.52900000000000        2.80800000000000
C            4.89940000000000       -4.41110000000000        5.89680000000000
C            6.06470000000000       -3.49210000000000        6.27300000000000
C            5.28110000000000       -5.17400000000000        4.62040000000000
C            4.68220000000000       -5.40640000000000        7.04540000000000
H            5.59450000000000       -5.96980000000000        7.24070000000000
H            3.88860000000000       -6.10890000000000        6.80670000000000
H            4.40250000000000       -4.87370000000000        7.95230000000000
H            6.96310000000000       -4.08650000000000        6.43940000000000
H            5.84640000000000       -2.94270000000000        7.18560000000000
H            6.27040000000000       -2.78070000000000        5.47670000000000
H            6.20130000000000       -5.73790000000000        4.77300000000000
H            5.43420000000000       -4.47540000000000        3.80010000000000
H            4.49620000000000       -5.86760000000000        4.33200000000000
H           -6.74930000000000       -4.74520000000000        3.66910000000000
H           -5.31310000000000       -4.18680000000000        2.80040000000000
H           -6.05910000000000       -3.16030000000000        4.02180000000000
H           -6.53950000000000       -5.41090000000000        6.14280000000000
H           -5.88780000000000       -3.80890000000000        6.48770000000000
H           -4.97440000000000       -5.24250000000000        6.94930000000000
H           -5.62640000000000       -6.80780000000000        4.33410000000000
H           -4.07670000000000       -6.80160000000000        5.17650000000000
H           -4.15690000000000       -6.34560000000000        3.47140000000000
H           -3.53020000000000        0.99230000000000        6.48220000000000
H           -4.25030000000000       -0.55210000000000        7.00540000000000
H           -4.47220000000000        0.01570000000000        5.32710000000000
H           -3.45520000000000       -0.50030000000000        2.02740000000000
H           -2.39640000000000        0.87630000000000        1.62510000000000
H           -3.50510000000000        0.97780000000000        3.02100000000000
H            0.06800000000000        5.61490000000000        2.71640000000000
H           -0.76990000000000        4.13130000000000        2.26000000000000
H            0.98950000000000        4.15160000000000        2.34430000000000
H            1.22380000000000        4.50520000000000        6.05620000000000
H            1.10790000000000        5.86970000000000        4.94130000000000
H            2.15330000000000        4.50300000000000        4.55370000000000
H           -1.31930000000000        5.70640000000000        4.87710000000000
H           -1.31040000000000        4.31360000000000        5.96750000000000
H           -2.13880000000000        4.21390000000000        4.41640000000000
H            2.46130000000000       -5.41730000000000        5.19390000000000
H            4.35060000000000       -1.65240000000000        6.03380000000000
H            1.99540000000000        2.40550000000000        5.37720000000000
H           -1.70670000000000        2.34820000000000        3.24960000000000
H           -4.63170000000000       -2.24600000000000        5.50760000000000
H           -2.22660000000000       -5.64640000000000        4.56350000000000
