156
 energy: -222.780908773633 gnorm: 0.112512480712 xtb: 6.7.1 (edcfbbe)
C           -2.01200000000000        2.34700000000000       -0.05740000000000
C           -2.16240000000000        0.98050000000000        0.15460000000000
C           -1.21400000000000        0.31100000000000        0.99560000000000
C           -0.02730000000000        1.00270000000000        1.33420000000000
C            0.08670000000000        2.36400000000000        1.05530000000000
C           -0.91520000000000        3.06610000000000        0.41490000000000
C           -1.39230000000000       -1.05510000000000        1.44230000000000
C           -0.24100000000000       -1.80050000000000        1.82630000000000
C            0.98860000000000       -1.14510000000000        2.09440000000000
C            1.09630000000000        0.30340000000000        1.95400000000000
C           -2.68370000000000       -1.70380000000000        1.55940000000000
C           -2.76000000000000       -3.11640000000000        1.50340000000000
C           -1.55360000000000       -3.92250000000000        1.68930000000000
C           -0.31030000000000       -3.21020000000000        1.97980000000000
C            0.81530000000000       -3.90570000000000        2.39900000000000
C            2.01480000000000       -3.26570000000000        2.69340000000000
C            2.07740000000000       -1.88780000000000        2.52420000000000
C           -3.88790000000000       -0.98540000000000        1.86470000000000
C           -5.10320000000000       -1.64420000000000        1.70350000000000
C           -5.18700000000000       -3.00870000000000        1.42230000000000
C           -4.00790000000000       -3.73180000000000        1.37480000000000
O           -3.77110000000000        0.30760000000000        2.39640000000000
O           -3.15850000000000        0.22590000000000       -0.48090000000000
O            2.10090000000000        0.91190000000000        2.32260000000000
O           -1.60050000000000       -5.15240000000000        1.67080000000000
C           -4.99210000000000        0.91580000000000        2.75390000000000
C           -4.17840000000000        0.97700000000000       -1.10140000000000
C           -6.56130000000000       -3.65480000000000        1.16490000000000
C           -6.47850000000000       -5.19530000000000        1.16810000000000
C           -7.57690000000000       -3.22880000000000        2.24680000000000
C           -7.06800000000000       -3.19240000000000       -0.21370000000000
C           -0.82460000000000        4.57990000000000        0.15540000000000
C           -2.10790000000000        5.26710000000000        0.66460000000000
C            0.37640000000000        5.21520000000000        0.88630000000000
C           -0.66920000000000        4.82920000000000       -1.35610000000000
C            3.26790000000000       -4.04580000000000        3.12490000000000
C            4.01800000000000       -3.27640000000000        4.23100000000000
C            4.19420000000000       -4.22100000000000        1.90930000000000
C            2.89960000000000       -5.43680000000000        3.67860000000000
H            3.77930000000000       -5.94200000000000        4.08270000000000
H            2.48540000000000       -6.07940000000000        2.90040000000000
H            2.16530000000000       -5.35350000000000        4.48020000000000
H            4.83090000000000       -3.87540000000000        4.64640000000000
H            3.33850000000000       -3.02020000000000        5.04310000000000
H            4.45510000000000       -2.35040000000000        3.85560000000000
H            5.09970000000000       -4.76830000000000        2.18040000000000
H            4.49400000000000       -3.25240000000000        1.50480000000000
H            3.68990000000000       -4.77340000000000        1.11410000000000
H           -8.04190000000000       -3.63030000000000       -0.44420000000000
H           -6.37040000000000       -3.48610000000000       -1.00040000000000
H           -7.17040000000000       -2.10620000000000       -0.24860000000000
H           -8.53550000000000       -3.73190000000000        2.09990000000000
H           -7.76890000000000       -2.15520000000000        2.22010000000000
H           -7.22000000000000       -3.48080000000000        3.24670000000000
H           -7.46540000000000       -5.63840000000000        1.01580000000000
H           -6.09290000000000       -5.56890000000000        2.11860000000000
H           -5.83310000000000       -5.55910000000000        0.36660000000000
H           -4.78780000000000        1.89780000000000        3.18060000000000
H           -5.51130000000000        0.31390000000000        3.50030000000000
H           -5.61910000000000        1.04560000000000        1.87220000000000
H           -4.96510000000000        0.29820000000000       -1.43050000000000
H           -3.78610000000000        1.50350000000000       -1.97150000000000
H           -4.60630000000000        1.68490000000000       -0.39200000000000
H           -0.59110000000000        5.89710000000000       -1.57280000000000
H           -1.52340000000000        4.43780000000000       -1.91150000000000
H            0.22960000000000        4.34130000000000       -1.73820000000000
H            0.31590000000000        5.04260000000000        1.96270000000000
H            0.40240000000000        6.29560000000000        0.72670000000000
H            1.32280000000000        4.81020000000000        0.52320000000000
H           -2.05620000000000        6.34930000000000        0.52450000000000
H           -2.25330000000000        5.07260000000000        1.72910000000000
H           -2.99210000000000        4.90860000000000        0.13530000000000
H            0.73240000000000       -4.97260000000000        2.49730000000000
H            2.99420000000000       -1.36220000000000        2.72070000000000
H            0.99710000000000        2.85820000000000        1.33970000000000
H           -2.74450000000000        2.86740000000000       -0.64470000000000
H           -6.01370000000000       -1.08650000000000        1.81250000000000
H           -4.02850000000000       -4.79900000000000        1.24910000000000
C            0.72260000000000        1.12730000000000        5.43500000000000
C            0.46510000000000       -0.22370000000000        5.69010000000000
C            1.35100000000000       -0.94010000000000        6.56640000000000
C            2.52960000000000       -0.27810000000000        6.98900000000000
C            2.74080000000000        1.05370000000000        6.67790000000000
C            1.84510000000000        1.77840000000000        5.90580000000000
C            1.16350000000000       -2.32780000000000        6.91680000000000
C            2.31810000000000       -3.10100000000000        7.28180000000000
C            3.51820000000000       -2.46610000000000        7.66720000000000
C            3.59270000000000       -1.00640000000000        7.68710000000000
C           -0.09390000000000       -3.02310000000000        6.79960000000000
C           -0.09840000000000       -4.41750000000000        6.53840000000000
C            1.09960000000000       -5.22070000000000        6.78090000000000
C            2.30000000000000       -4.51300000000000        7.22150000000000
C            3.44320000000000       -5.22940000000000        7.52750000000000
C            4.62230000000000       -4.60920000000000        7.91360000000000
C            4.63310000000000       -3.22300000000000        7.98460000000000
C           -1.36820000000000       -2.37970000000000        6.97750000000000
C           -2.49960000000000       -3.03080000000000        6.47170000000000
C           -2.44130000000000       -4.31050000000000        5.94420000000000
C           -1.25490000000000       -5.02240000000000        6.07980000000000
O           -1.41100000000000       -1.17980000000000        7.66680000000000
O           -0.57580000000000       -0.88780000000000        5.06900000000000
O            4.52600000000000       -0.42310000000000        8.22030000000000
O            1.08730000000000       -6.43690000000000        6.65880000000000
C           -2.69120000000000       -0.60260000000000        7.76870000000000
C           -1.49580000000000       -0.07410000000000        4.38020000000000
C           -3.66810000000000       -4.94780000000000        5.28200000000000
C           -3.23090000000000       -5.92450000000000        4.17030000000000
C           -4.48220000000000       -5.70470000000000        6.34150000000000
C           -4.54870000000000       -3.86160000000000        4.63390000000000
C            2.09480000000000        3.23840000000000        5.50260000000000
C            1.02550000000000        4.13300000000000        6.15190000000000
C            3.48710000000000        3.72090000000000        5.95020000000000
C            2.00900000000000        3.35980000000000        3.96880000000000
C            5.87140000000000       -5.45900000000000        8.18410000000000
C            7.05640000000000       -4.59540000000000        8.65620000000000
C            6.27540000000000       -6.17760000000000        6.88420000000000
C            5.56020000000000       -6.49690000000000        9.27790000000000
H            6.43960000000000       -7.09910000000000        9.50590000000000
H            4.76550000000000       -7.17400000000000        8.96810000000000
H            5.24130000000000       -6.00410000000000       10.19600000000000
H            7.92870000000000       -5.21520000000000        8.86350000000000
H            6.80810000000000       -4.05650000000000        9.57020000000000
H            7.34170000000000       -3.87080000000000        7.89420000000000
H            7.16630000000000       -6.78700000000000        7.03380000000000
H            6.48720000000000       -5.45530000000000        6.09660000000000
H            5.47800000000000       -6.82980000000000        6.53050000000000
H           -5.33570000000000       -4.31510000000000        4.03550000000000
H           -3.95480000000000       -3.22500000000000        3.97920000000000
H           -5.02930000000000       -3.23020000000000        5.37920000000000
H           -5.36230000000000       -6.16970000000000        5.89800000000000
H           -4.81620000000000       -5.02880000000000        7.12830000000000
H           -3.88170000000000       -6.48690000000000        6.80470000000000
H           -4.09110000000000       -6.28770000000000        3.61000000000000
H           -2.71760000000000       -6.79360000000000        4.57730000000000
H           -2.55860000000000       -5.43510000000000        3.46660000000000
H           -2.60540000000000        0.34660000000000        8.29840000000000
H           -3.35550000000000       -1.26170000000000        8.32880000000000
H           -3.09460000000000       -0.41290000000000        6.77370000000000
H           -2.30500000000000       -0.70550000000000        4.01060000000000
H           -1.00650000000000        0.39560000000000        3.52860000000000
H           -1.90890000000000        0.68150000000000        5.04840000000000
H            2.30460000000000        4.35280000000000        3.63280000000000
H            0.99540000000000        3.17900000000000        3.61680000000000
H            2.65350000000000        2.62510000000000        3.48570000000000
H            3.58480000000000        3.68860000000000        7.03480000000000
H            3.66020000000000        4.74960000000000        5.63500000000000
H            4.27130000000000        3.10370000000000        5.51280000000000
H            1.17310000000000        5.17780000000000        5.87980000000000
H            1.06660000000000        4.05610000000000        7.23800000000000
H            0.02540000000000        3.84180000000000        5.83350000000000
H            3.40300000000000       -6.29910000000000        7.43480000000000
H            5.52670000000000       -2.69640000000000        8.26220000000000
H            3.65260000000000        1.50350000000000        7.02360000000000
H            0.05360000000000        1.67050000000000        4.79730000000000
H           -3.44230000000000       -2.52100000000000        6.49280000000000
H           -1.20540000000000       -6.06250000000000        5.81580000000000
156
 energy: -222.797575858717 gnorm: 0.046949258195 xtb: 6.7.1 (edcfbbe)
C           -2.00674536232215        2.34685487266002       -0.05871117828104
C           -2.16178591699774        0.99338291712670        0.17386839036780
C           -1.22798231262564        0.30575168208208        1.00272236082032
C           -0.03488009866362        0.99473131687048        1.32724074873309
C            0.09400847119403        2.35674481992742        1.04426737653029
C           -0.90506368371540        3.06739600496638        0.41545153811936
C           -1.40357995064707       -1.04853594423172        1.43853783721176
C           -0.25920782083091       -1.79002997498178        1.82311467860355
C            0.97654892791229       -1.14738157298247        2.08257474065192
C            1.09667995227477        0.29908281296947        1.94627966204726
C           -2.68013427892816       -1.69260517558373        1.55283270916555
C           -2.75773647483639       -3.10253086079318        1.49927212469552
C           -1.55111800260608       -3.91641304786077        1.66814621966578
C           -0.31934009731164       -3.19701417258698        1.98094697611807
C            0.80848950817535       -3.89910001410734        2.39730406491742
C            2.01373411959816       -3.26798372630462        2.68535349902990
C            2.07063234283004       -1.89019477898938        2.51198824936985
C           -3.89198383988267       -0.99475203185234        1.83256680272415
C           -5.10156480957177       -1.64852562116491        1.69442396606740
C           -5.18270047731842       -3.01601808132094        1.40675552900123
C           -4.00197995129159       -3.72995841791112        1.37246619848278
O           -3.78671359198856        0.29913305668151        2.33676866401878
O           -3.15926185978113        0.24661294326550       -0.44538271003633
O            2.12581304146349        0.90245649603758        2.27524953107853
O           -1.59474695357495       -5.15337192059057        1.62236913415228
C           -4.98774784766549        0.90999233579163        2.73510271483443
C           -4.17344863664666        0.97467599322799       -1.08919578176709
C           -6.55465222597664       -3.65552623429300        1.16426798999090
C           -6.48090565534661       -5.18923798763872        1.16559095720531
C           -7.57249339694527       -3.23171692799940        2.23917363003013
C           -7.06497700458117       -3.19289516250250       -0.21010073497160
C           -0.82251528403640        4.57510415862065        0.15923130516998
C           -2.10292888550783        5.26295016243900        0.66353228141678
C            0.37096898246671        5.21498878592737        0.88240619514760
C           -0.67075625480166        4.82784979458439       -1.34956699600613
C            3.25987758230200       -4.04395187597717        3.12520461431948
C            4.01206979133414       -3.27683656689873        4.22384522847961
C            4.18560206812003       -4.21739734669776        1.90975238033458
C            2.90049986714022       -5.43183342169621        3.67362786298445
H            3.78632003866925       -5.92239124149874        4.07801383546017
H            2.49212132736683       -6.07568204003321        2.89602235035118
H            2.17002617129332       -5.34828510808988        4.47383970542694
H            4.81806669845407       -3.88449656779449        4.63604996272817
H            3.33409818032649       -3.02265479178756        5.03333602843912
H            4.45212012032674       -2.35477606699555        3.84912354605211
H            5.08802587843482       -4.76398494170474        2.18865569592412
H            4.48370140113013       -3.24891478755634        1.50897575878832
H            3.68126135886113       -4.77090599155035        1.11757137882677
H           -8.03866178737964       -3.63222331717798       -0.43519673694476
H           -6.36518211350319       -3.48792976012447       -0.99074625766135
H           -7.16361722664015       -2.10848446388519       -0.24093969977872
H           -8.52675901035085       -3.73963049262989        2.08730339079116
H           -7.76381443887312       -2.16069584493779        2.21191463345119
H           -7.20906226150112       -3.48259877032675        3.23389228436150
H           -7.47307822597982       -5.61936394626044        1.01619928021766
H           -6.09216087460344       -5.55687329600656        2.11347534533413
H           -5.83756475279628       -5.55004256098153        0.36568352247685
H           -4.74145403137964        1.88386190812418        3.16292359343765
H           -5.50461635359492        0.31373053795278        3.49537026958111
H           -5.64807602585338        1.05925344767663        1.87482493723047
H           -4.93908033067412        0.26532078981228       -1.40897673622356
H           -3.79079179835396        1.49783240520371       -1.97284069890719
H           -4.62316932831600        1.69743477148564       -0.40153635357115
H           -0.59354694369180        5.89592152295362       -1.56095392015486
H           -1.52308727164702        4.43428799029518       -1.90164411354433
H            0.22689789051310        4.33844349885211       -1.72516048532837
H            0.31005080133257        5.03766326032847        1.95428585649353
H            0.38350252995298        6.29368697106559        0.71619752556325
H            1.31320835869507        4.81075797653039        0.51810311873639
H           -2.04512423084456        6.34355932292587        0.52119144803811
H           -2.24295505039558        5.06470403003329        1.72515879853790
H           -2.98416019670921        4.90361316480317        0.13508187953366
H            0.71387092513129       -4.96824700318007        2.49606919246343
H            2.98222699081979       -1.35181284391468        2.72013283858480
H            1.01037696380779        2.83722715233513        1.34019068942565
H           -2.74130283007037        2.87080086538225       -0.64916404157300
H           -6.01718008143976       -1.09350408196825        1.82012229474138
H           -4.00538992196083       -4.80147216664111        1.26590295717746
C            0.73227614749366        1.12276772128013        5.44120538836039
C            0.47689550440903       -0.21461042211533        5.70749624049306
C            1.34750839678014       -0.94456842079142        6.57101439564931
C            2.52685869652751       -0.28328705216477        6.98992989753105
C            2.75187835466651        1.05481558574333        6.67606478678305
C            1.86307378397146        1.78137738459506        5.91081806788345
C            1.15719015151317       -2.32508925510203        6.91593603972587
C            2.29923467494893       -3.08744374012807        7.27079504362752
C            3.50833310181336       -2.45703697859417        7.65634538237324
C            3.59166626127245       -0.99880037512330        7.69520233163411
C           -0.08960194223518       -3.01863716768456        6.79645435250260
C           -0.09819933343570       -4.41113768739519        6.54306813428300
C            1.09427665410239       -5.22385523494842        6.77854096273804
C            2.28561274010162       -4.50550031102941        7.22765930588240
C            3.43597281014226       -5.22202183682063        7.52857755435310
C            4.62157172665647       -4.60365876431491        7.90941256019929
C            4.62615193353452       -3.21592982597804        7.97777990359219
C           -1.36047169462875       -2.39183819187325        6.95390741809217
C           -2.48955182665676       -3.03666402703214        6.47512673458604
C           -2.43763601672149       -4.32287056238960        5.94160957759163
C           -1.25858092960677       -5.02793238355059        6.08646885478756
O           -1.40912357281941       -1.19392881092246        7.64178849532883
O           -0.56466124068811       -0.87413334707672        5.10029357010573
O            4.54061944035215       -0.41159954870815        8.23109887056925
O            1.08278347575727       -6.45573338353644        6.65725341987629
C           -2.67993513647915       -0.60701472813445        7.76362456330395
C           -1.48845146659959       -0.07834216539057        4.40046234182228
C           -3.66496043684742       -4.94898410188034        5.28468506259109
C           -3.24148573299439       -5.92993169533005        4.18257323133937
C           -4.48194659191010       -5.70312287263623        6.34338718725946
C           -4.54727023539348       -3.86788010796863        4.64363728216383
C            2.10010517704370        3.23777122821292        5.51032879663160
C            1.02994904174483        4.13112861578961        6.15611927087900
C            3.48450139950358        3.72661942359646        5.95247417757036
C            2.01153109529328        3.37041201767785        3.98352779040330
C            5.86628571510311       -5.45170227820759        8.18413868229654
C            7.05442124894808       -4.60115892969534        8.65523302292793
C            6.27230514089840       -6.17447541293600        6.88968159097529
C            5.56062649457465       -6.49195898605095        9.27387110517684
H            6.44363120952456       -7.09277849052839        9.49784248790950
H            4.76491854891450       -7.16431572616275        8.96166499316645
H            5.24194995155754       -5.99572365909309       10.18929557446657
H            7.92018212448569       -5.23271905143727        8.85992364052301
H            6.80458587711499       -4.06276841855751        9.56764966574987
H            7.33882118711705       -3.87900152729362        7.89267398505431
H            7.16424145429383       -6.78373231948087        7.04414151472924
H            6.48369739174108       -5.44931666219772        6.10545505149067
H            5.47226764218941       -6.82268127415375        6.53868916585183
H           -5.32779003199667       -4.32883061626941        4.04207305631160
H           -3.95042294626715       -3.23514169136602        3.99146922921457
H           -5.03317679991315       -3.23960138521551        5.38888165645417
H           -5.36174323331249       -6.16715969614531        5.89549984149232
H           -4.81284953850291       -5.02482776225971        7.12958355437207
H           -3.87692567213050       -6.48305018985376        6.80252397037428
H           -4.10956927879078       -6.28546516378518        3.62830905897520
H           -2.73142393862534       -6.79785005689291        4.59151570426680
H           -2.56906565045746       -5.44916404794776        3.47897836835734
H           -2.56160583430084        0.33639179027246        8.30016079912537
H           -3.35763113608835       -1.25529585485217        8.33129446636284
H           -3.10963903608934       -0.40264893255896        6.77882023174753
H           -2.27956945089050       -0.73636946940629        4.04541532219806
H           -1.02444263826887        0.39853645154992        3.53628377877248
H           -1.91907075065478        0.68873704006992        5.05224620258655
H            2.30995045850556        4.36691782460333        3.65463747222365
H            0.99829921202249        3.18793297686248        3.63524233836057
H            2.64994912607406        2.63298514304071        3.50358500240807
H            3.58245792777165        3.69284505380219        7.03602397958435
H            3.64547058831326        4.75579214251910        5.62902981651209
H            4.26165891099680        3.10656912927881        5.51075262254292
H            1.17887341103818        5.17579592963820        5.87879085387997
H            1.07225304155995        4.05198074026790        7.24162922400208
H            0.03352873555174        3.83367747773814        5.83436986147070
H            3.38835595725429       -6.29676881835517        7.43368209307214
H            5.51552995244714       -2.67903532867445        8.26483398417517
H            3.66865806331542        1.49342258790227        7.03131204377267
H            0.05931205272128        1.66575836548803        4.80052022492638
H           -3.43702519810056       -2.52641891447330        6.50315034544961
H           -1.19930922922324       -6.07124778638538        5.82672558926642
156
 energy: -222.804411511400 gnorm: 0.016360545374 xtb: 6.7.1 (edcfbbe)
C           -2.00274131805684        2.35356434319940       -0.05467740241111
C           -2.16075768762063        1.01056866333541        0.19059537058913
C           -1.23634737935676        0.30598426655235        1.00860608214618
C           -0.03771253186891        0.99122181614160        1.31904978245405
C            0.10111465799327        2.35500152275877        1.03830070319622
C           -0.89442677774800        3.07373978657548        0.41907368061167
C           -1.41387139474423       -1.04108498741322        1.43214426631372
C           -0.27443707826388       -1.78115605824969        1.81664471427766
C            0.96586225502971       -1.14802400303953        2.07098729626452
C            1.10794513569790        0.29369465518336        1.91400364746254
C           -2.67947834135353       -1.68596109311687        1.53656678238663
C           -2.75780524299635       -3.09374739019856        1.49062489863386
C           -1.55150415560608       -3.91148113983140        1.64716143122373
C           -0.32883801168902       -3.18676693243522        1.97650621972937
C            0.79828395570540       -3.89267578302775        2.39438966317719
C            2.00640237187635       -3.26832087903662        2.68287088044289
C            2.05915626744903       -1.89076447704360        2.50701082505879
C           -3.89909712817681       -1.00448648403370        1.79706856541027
C           -5.10339943017709       -1.65531098250602        1.67929595785479
C           -5.18213313134649       -3.02854369651616        1.39719998010071
C           -3.99910704073417       -3.73279078134756        1.37257843931485
O           -3.80096748065676        0.29460378905421        2.26683706450604
O           -3.16232302465553        0.26920919239428       -0.40861853411534
O            2.15250043092704        0.89312427321329        2.21168011420911
O           -1.58872487639910       -5.15043525494208        1.55557838637219
C           -4.97762680195430        0.90931101391872        2.71119118308303
C           -4.17315748175753        0.96684209866386       -1.07610315806480
C           -6.55024742304942       -3.65915169395396        1.15994591039444
C           -6.48120562227138       -5.18798095457372        1.16074186511878
C           -7.56486014640590       -3.23470537019491        2.23382104765728
C           -7.05959587929922       -3.19241634052648       -0.21240864389536
C           -0.81850124894203        4.57345648760542        0.16072393675165
C           -2.09877471289420        5.25618157930994        0.66582455050198
C            0.36932665427076        5.21589864073090        0.87989794636201
C           -0.66995580686491        4.82468818569849       -1.34728488361203
C            3.24873956150566       -4.04004067024712        3.12057807748821
C            4.00129491601888       -3.27551383726335        4.21576055869757
C            4.17480185273534       -4.21107880487749        1.90465652427974
C            2.89801904820194       -5.42574951550825        3.66752664743557
H            3.79080318500547       -5.90317303890964        4.07046195370360
H            2.49632043940483       -6.07186262539754        2.89022710068624
H            2.17019899805931       -5.34745342022110        4.46845174134849
H            4.80205144722416       -3.89104306115397        4.62445182882751
H            3.32629248045249       -3.02080134655237        5.02540708203625
H            4.44562875630643       -2.35766910699668        3.84036471537682
H            5.07499740301607       -4.75657027763246        2.19025138951601
H            4.47013049602575       -3.24201070126312        1.50742541628848
H            3.67034942611691       -4.76605993469412        1.11530683655867
H           -8.03370731346080       -3.63116368070036       -0.43255537634038
H           -6.35933570366139       -3.48869490942821       -0.98989641081742
H           -7.15495079201579       -2.10901296433227       -0.23764561933582
H           -8.51391820713945       -3.74834985847065        2.07630342103861
H           -7.75995573844011       -2.16608677638638        2.20408188509003
H           -7.19805916559171       -3.48455867711808        3.22582859647764
H           -7.47746133513532       -5.60710967300057        1.01410186780389
H           -6.09156526983611       -5.55249361382500        2.10735385268721
H           -5.84001930548124       -5.54757263666382        0.36134408477261
H           -4.68566553983153        1.87272020011328        3.13761944678501
H           -5.48389725293265        0.31832403154389        3.48776362690910
H           -5.68109245978121        1.08143335211309        1.88194836309698
H           -4.91493369596660        0.22458874153472       -1.38164088828523
H           -3.79954037656746        1.48060995318065       -1.97429908593570
H           -4.64868087201758        1.70697466692744       -0.41757629509484
H           -0.59527687696543        5.89301928739447       -1.55323061104170
H           -1.52213247395699        4.42950540724651       -1.89532628931932
H            0.22763003654772        4.33539754375671       -1.71866348365549
H            0.30937253607295        5.03595654334189        1.94931499721870
H            0.36970202450476        6.29308179566385        0.70934071583110
H            1.30951493971026        4.81439956853557        0.51345765607813