282
 energy: -418.541757462545 gnorm: 0.133507671642 xtb: 6.7.1 (edcfbbe)
C           -1.53110000000000       -2.34400000000000        2.96350000000000
C           -2.01500000000000       -1.52160000000000        1.93640000000000
C           -2.89860000000000       -2.07740000000000        0.94470000000000
C           -3.30560000000000       -3.42250000000000        1.14600000000000
C           -2.76650000000000       -4.19020000000000        2.16670000000000
C           -1.87460000000000       -3.67190000000000        3.09140000000000
C           -3.46610000000000       -1.32810000000000       -0.15960000000000
C           -4.70880000000000       -1.79970000000000       -0.71920000000000
C           -5.15250000000000       -3.12180000000000       -0.49870000000000
C           -4.36230000000000       -4.02570000000000        0.33110000000000
C           -2.90800000000000       -0.12360000000000       -0.73210000000000
C           -3.73270000000000        0.76830000000000       -1.46270000000000
C           -5.12660000000000        0.42870000000000       -1.74750000000000
C           -5.52950000000000       -0.95370000000000       -1.50040000000000
C           -6.72640000000000       -1.42340000000000       -2.01690000000000
C           -7.15270000000000       -2.72910000000000       -1.81550000000000
C           -6.34220000000000       -3.56060000000000       -1.05610000000000
C           -1.51910000000000        0.20360000000000       -0.65640000000000
C           -1.07020000000000        1.43340000000000       -1.15210000000000
C           -1.90880000000000        2.34350000000000       -1.76110000000000
C           -3.23720000000000        1.97640000000000       -1.93010000000000
O           -1.57220000000000       -0.20890000000000        1.95750000000000
O           -0.59900000000000       -0.65260000000000       -0.09610000000000
B           -0.25870000000000       -0.20080000000000        1.27660000000000
C            1.21420000000000       -2.65230000000000        0.24540000000000
C            1.61130000000000       -1.49330000000000        0.92980000000000
C            2.77550000000000       -0.76900000000000        0.49530000000000
C            3.45440000000000       -1.30820000000000       -0.63070000000000
C            2.97260000000000       -2.42210000000000       -1.30500000000000
C            1.84670000000000       -3.11340000000000       -0.88500000000000
C            3.33650000000000        0.37430000000000        1.18960000000000
C            4.71750000000000        0.70380000000000        0.92370000000000
C            5.38730000000000        0.20380000000000       -0.21610000000000
C            2.66900000000000        1.14020000000000        2.22600000000000
C            3.44330000000000        1.79720000000000        3.22130000000000
C            4.88370000000000        1.97840000000000        3.06020000000000
C            5.46730000000000        1.51850000000000        1.80560000000000
C            6.78420000000000        1.83790000000000        1.51820000000000
C            7.42270000000000        1.38600000000000        0.37380000000000
C            6.70030000000000        0.56280000000000       -0.47790000000000
C            1.24330000000000        1.32280000000000        2.31830000000000
C            0.69190000000000        1.75430000000000        3.53370000000000
C            1.47590000000000        2.19200000000000        4.58280000000000
C            2.84300000000000        2.28780000000000        4.36890000000000
O            0.39660000000000        1.11600000000000        1.24570000000000
O            0.74220000000000       -1.09090000000000        1.92480000000000
C            4.71810000000000       -0.74130000000000       -1.10100000000000
O            5.56970000000000        2.49940000000000        3.93110000000000
O            5.22290000000000       -1.08800000000000       -2.16130000000000
O           -4.60980000000000       -5.22350000000000        0.38460000000000
O           -5.91080000000000        1.25840000000000       -2.18970000000000
C           -1.31770000000000       -4.55510000000000        4.21570000000000
C           -0.49700000000000       -3.73030000000000        5.22700000000000
C           -0.40910000000000       -5.63290000000000        3.60140000000000
C           -2.48400000000000       -5.21940000000000        4.97060000000000
C           -1.34960000000000        3.69300000000000       -2.23170000000000
C           -2.45150000000000        4.58860000000000       -2.82840000000000
C           -0.72090000000000        4.43040000000000       -1.03390000000000
C           -0.27730000000000        3.44800000000000       -3.30780000000000
C           -8.46980000000000       -3.26860000000000       -2.39370000000000
C           -8.16580000000000       -4.44480000000000       -3.33980000000000
C           -9.22960000000000       -2.18850000000000       -3.18790000000000
C           -9.37260000000000       -3.74990000000000       -1.24260000000000
C            1.24010000000000       -4.29770000000000       -1.64800000000000
C           -0.16700000000000       -3.90180000000000       -2.13660000000000
C            1.13600000000000       -5.51490000000000       -0.71080000000000
C            2.09680000000000       -4.68630000000000       -2.86640000000000
C            0.83210000000000        2.53890000000000        5.92820000000000
C            0.10430000000000        1.28690000000000        6.44950000000000
C            1.87210000000000        2.95530000000000        6.98540000000000
C           -0.15050000000000        3.70200000000000        5.72730000000000
C            8.88520000000000        1.77540000000000        0.11130000000000
C            9.76700000000000        1.23720000000000        1.25330000000000
C            9.40010000000000        1.19290000000000       -1.21910000000000
C            9.00090000000000        3.30970000000000        0.04690000000000
H           10.43490000000000        1.48860000000000       -1.39740000000000
H            8.80480000000000        1.55030000000000       -2.05990000000000
H            9.36650000000000        0.10300000000000       -1.21010000000000
H           10.81650000000000        1.48420000000000        1.08740000000000
H            9.68270000000000        0.15240000000000        1.32650000000000
H            9.47290000000000        1.66060000000000        2.21380000000000
H           10.02730000000000        3.61660000000000       -0.15880000000000
H            8.69850000000000        3.77010000000000        0.98740000000000
H            8.36410000000000        3.71100000000000       -0.74220000000000
H            1.39000000000000        3.15860000000000        7.94240000000000
H            2.40300000000000        3.85900000000000        6.68520000000000
H            2.59810000000000        2.15920000000000        7.14870000000000
H           -0.58230000000000        4.01220000000000        6.67690000000000
H           -0.96450000000000        3.42330000000000        5.05900000000000
H            0.35710000000000        4.56480000000000        5.29490000000000
H           -0.31040000000000        1.46010000000000        7.44040000000000
H            0.79330000000000        0.44510000000000        6.52370000000000
H           -0.70770000000000        0.99350000000000        5.78500000000000
H           -0.30310000000000        5.38950000000000       -1.34190000000000
H            0.08230000000000        3.84680000000000       -0.58430000000000
H           -1.46680000000000        4.62230000000000       -0.26210000000000
H           -2.04330000000000        5.55170000000000       -3.13760000000000
H           -3.23760000000000        4.78180000000000       -2.09740000000000
H           -2.90200000000000        4.12530000000000       -3.70670000000000
H            0.13000000000000        4.39020000000000       -3.67630000000000
H           -0.69880000000000        2.90680000000000       -4.15550000000000
H            0.55000000000000        2.85810000000000       -2.91330000000000
H          -10.32630000000000       -4.11970000000000       -1.62150000000000
H           -9.57830000000000       -2.93490000000000       -0.54790000000000
H           -8.90250000000000       -4.55730000000000       -0.68110000000000
H          -10.16280000000000       -2.58640000000000       -3.58900000000000
H           -8.63620000000000       -1.82930000000000       -4.02920000000000
H           -9.48010000000000       -1.33800000000000       -2.55300000000000
H           -9.08220000000000       -4.84070000000000       -3.77950000000000
H           -7.67050000000000       -5.25960000000000       -2.81170000000000
H           -7.51160000000000       -4.12640000000000       -4.15210000000000
H           -0.62900000000000       -4.71170000000000       -2.70170000000000
H           -0.11730000000000       -3.02280000000000       -2.77950000000000
H           -0.82420000000000       -3.66080000000000       -1.30090000000000
H            0.73040000000000       -6.37940000000000       -1.23730000000000
H            0.48320000000000       -5.30810000000000        0.13730000000000
H            2.11730000000000       -5.78640000000000       -0.32030000000000
H            1.65790000000000       -5.53370000000000       -3.39470000000000
H            3.10440000000000       -4.97100000000000       -2.56170000000000
H            2.17110000000000       -3.85920000000000       -3.57300000000000
H           -0.13780000000000       -4.35910000000000        6.04230000000000
H           -1.10320000000000       -2.93540000000000        5.66220000000000
H            0.37460000000000       -3.27930000000000        4.75210000000000
H           -2.12370000000000       -5.79210000000000        5.82620000000000
H           -3.03940000000000       -5.90090000000000        4.32680000000000
H           -3.17920000000000       -4.46270000000000        5.33420000000000
H            0.00770000000000       -6.28080000000000        4.37340000000000
H            0.41860000000000       -5.17390000000000        3.05970000000000
H           -0.96120000000000       -6.25790000000000        2.89920000000000
H           -3.08810000000000       -5.21260000000000        2.24860000000000
H           -0.85360000000000       -1.88510000000000        3.65830000000000
H           -6.63790000000000       -4.57780000000000       -0.87320000000000
H           -7.32050000000000       -0.73850000000000       -2.59320000000000
H           -3.91940000000000        2.62640000000000       -2.44590000000000
H           -0.02720000000000        1.65720000000000       -1.02640000000000
H           -0.37730000000000        1.74280000000000        3.63310000000000
H            3.47190000000000        2.74810000000000        5.10600000000000
H            0.31220000000000       -3.12630000000000        0.58580000000000
H            3.52060000000000       -2.75450000000000       -2.16750000000000
H            7.31710000000000        2.45330000000000        2.22040000000000
H            7.15670000000000        0.16030000000000       -1.36330000000000
C           -3.08140000000000       -1.70880000000000       10.33900000000000
C           -3.01300000000000       -0.36210000000000        9.94780000000000
C           -2.98560000000000       -0.04740000000000        8.54630000000000
C           -3.15520000000000       -1.12700000000000        7.64490000000000
C           -3.20080000000000       -2.43220000000000        8.09410000000000
C           -3.14670000000000       -2.75240000000000        9.43810000000000
C           -2.84560000000000        1.28960000000000        8.02380000000000
C           -3.24690000000000        1.52220000000000        6.65550000000000
C           -3.40510000000000        0.45800000000000        5.74210000000000
C           -3.30580000000000       -0.91460000000000        6.20930000000000
C           -2.21950000000000        2.39280000000000        8.72130000000000
C           -2.45250000000000        3.71600000000000        8.26420000000000
C           -3.22870000000000        3.96900000000000        7.04880000000000
C           -3.41970000000000        2.83050000000000        6.15740000000000
C           -3.69840000000000        3.04360000000000        4.81810000000000
C           -3.80260000000000        1.99790000000000        3.91330000000000
C           -3.63620000000000        0.70920000000000        4.40050000000000
C           -1.20700000000000        2.22280000000000        9.72680000000000
C           -0.56860000000000        3.36310000000000       10.23290000000000
C           -0.85950000000000        4.64720000000000        9.82850000000000
C           -1.81850000000000        4.80230000000000        8.84290000000000
O           -2.92990000000000        0.59520000000000       10.94570000000000
O           -0.79260000000000        0.98790000000000       10.20000000000000
B           -1.52420000000000        0.60830000000000       11.43310000000000
C           -0.09160000000000       -2.62110000000000       12.69560000000000
C           -0.02990000000000       -1.34800000000000       12.10060000000000
C            1.18530000000000       -0.92450000000000       11.45430000000000
C            2.00470000000000       -2.00870000000000       11.01660000000000
C            1.84740000000000       -3.28630000000000       11.53220000000000
C            0.86150000000000       -3.59150000000000       12.45810000000000
C            1.65870000000000        0.44440000000000       11.30140000000000
C            2.78350000000000        0.63450000000000       10.41150000000000
C            3.33360000000000       -0.43220000000000        9.65520000000000
C            1.28080000000000        1.57490000000000       12.15070000000000
C            2.22700000000000        2.64030000000000       12.30360000000000
C            3.22140000000000        2.91890000000000       11.27160000000000
C            3.43430000000000        1.88600000000000       10.27280000000000
C            4.37600000000000        2.09170000000000        9.27510000000000
C            4.76940000000000        1.07550000000000        8.41630000000000
C            4.27590000000000       -0.19340000000000        8.67000000000000
C            0.05250000000000        1.79120000000000       12.90750000000000
C            0.11410000000000        2.58730000000000       14.06940000000000
C            1.18920000000000        3.40360000000000       14.35990000000000
C            2.19100000000000        3.48460000000000       13.40370000000000
O           -1.23200000000000        1.53760000000000       12.50380000000000
O           -1.21310000000000       -0.68870000000000       12.03340000000000
C            3.03710000000000       -1.80870000000000       10.01180000000000
O            3.84500000000000        3.97070000000000       11.25320000000000
O            3.64480000000000       -2.74770000000000        9.51850000000000
O           -3.39280000000000       -1.85900000000000        5.43940000000000
O           -3.61760000000000        5.08960000000000        6.75280000000000
C           -3.10470000000000       -4.22850000000000        9.85080000000000
C           -3.15170000000000       -4.39060000000000       11.37920000000000
C           -1.79620000000000       -4.84340000000000        9.32260000000000
C           -4.30940000000000       -4.97250000000000        9.24610000000000
C           -0.05810000000000        5.82780000000000       10.39140000000000
C           -0.59010000000000        7.17550000000000        9.86990000000000
C           -0.15840000000000        5.82710000000000       11.92550000000000
C            1.41380000000000        5.68470000000000        9.96450000000000
C           -4.02000000000000        2.26980000000000        2.41860000000000
C           -4.67660000000000        1.05380000000000        1.73990000000000
C           -2.66090000000000        2.55710000000000        1.75690000000000
C           -4.94970000000000        3.48110000000000        2.21050000000000
C            0.82390000000000       -4.97790000000000       13.11550000000000
C            0.51110000000000       -6.04350000000000       12.05290000000000
C           -0.24510000000000       -5.05160000000000       14.22220000000000
C            2.19540000000000       -5.27170000000000       13.75180000000000
C            1.18800000000000        4.25450000000000       15.63680000000000
C            1.02670000000000        3.32860000000000       16.85610000000000
C            2.50370000000000        5.03970000000000       15.79280000000000
C            0.02120000000000        5.25620000000000       15.59220000000000
C            5.78500000000000        1.29490000000000        7.28850000000000
C            7.17310000000000        0.83700000000000        7.76230000000000
C            5.37190000000000        0.47500000000000        6.04730000000000
C            5.85510000000000        2.78260000000000        6.88690000000000
H            5.98500000000000        0.73840000000000        5.18590000000000
H            4.33440000000000        0.67040000000000        5.78260000000000
H            5.47930000000000       -0.59510000000000        6.21470000000000
H            7.91760000000000        0.97940000000000        6.97980000000000
H            7.16280000000000       -0.21830000000000        8.03230000000000
H            7.48790000000000        1.40280000000000        8.63840000000000
H            6.42970000000000        2.90910000000000        5.96930000000000
H            6.32570000000000        3.38390000000000        7.66330000000000
H            4.86110000000000        3.18360000000000        6.70270000000000
H            2.51170000000000        5.59990000000000       16.72750000000000
H            2.63340000000000        5.75440000000000       14.98090000000000
H            3.36100000000000        4.36720000000000       15.80090000000000
H           -0.00650000000000        5.86150000000000       16.49790000000000
H           -0.93640000000000        4.74550000000000       15.50280000000000
H            0.12280000000000        5.92980000000000       14.74280000000000
H            1.04470000000000        3.89840000000000       17.78480000000000
H            1.83370000000000        2.59740000000000       16.89250000000000
H            0.08410000000000        2.78450000000000       16.81680000000000
H            0.39600000000000        6.66230000000000       12.35210000000000
H            0.24690000000000        4.90920000000000       12.34490000000000
H           -1.19710000000000        5.90870000000000       12.24370000000000
H           -0.03530000000000        8.00510000000000       10.30730000000000
H           -1.64090000000000        7.30620000000000       10.12620000000000
H           -0.48620000000000        7.24630000000000        8.78780000000000
H            2.01330000000000        6.51230000000000       10.34080000000000
H            1.50090000000000        5.66850000000000        8.87890000000000
H            1.84900000000000        4.76340000000000       10.34560000000000
H           -5.18020000000000        3.61180000000000        1.15350000000000
H           -4.48970000000000        4.40440000000000        2.55820000000000
H           -5.88870000000000        3.34350000000000        2.74520000000000
H           -2.78520000000000        2.76750000000000        0.69650000000000
H           -1.98970000000000        1.70490000000000        1.84880000000000
H           -2.17360000000000        3.41460000000000        2.21860000000000
H           -4.94840000000000        1.28330000000000        0.71090000000000
H           -5.58230000000000        0.75250000000000        2.26430000000000
H           -3.99410000000000        0.20700000000000        1.71670000000000
H            0.51500000000000       -7.04200000000000       12.48880000000000
H            1.24470000000000       -6.02520000000000       11.24810000000000
H           -0.47100000000000       -5.87290000000000       11.61650000000000
H           -0.21630000000000       -6.01880000000000       14.72350000000000
H           -1.24700000000000       -4.92610000000000       13.81440000000000
H           -0.08040000000000       -4.28130000000000       14.97490000000000
H            2.19240000000000       -6.23700000000000       14.25740000000000
H            2.45040000000000       -4.50720000000000       14.48490000000000
H            2.98460000000000       -5.29270000000000       13.00180000000000
H           -3.13690000000000       -5.44350000000000       11.65920000000000
H           -4.05750000000000       -3.94810000000000       11.79240000000000
H           -2.29210000000000       -3.91300000000000       11.84330000000000
H           -4.31700000000000       -6.01680000000000        9.55670000000000
H           -4.28580000000000       -4.95260000000000        8.15780000000000
H           -5.24440000000000       -4.51670000000000        9.56960000000000
H           -1.72110000000000       -5.89640000000000        9.59080000000000
H           -0.93300000000000       -4.32020000000000        9.73290000000000
H           -1.73950000000000       -4.77130000000000        8.23760000000000
H           -3.27920000000000       -3.20990000000000        7.35710000000000
H           -3.03790000000000       -1.90410000000000       11.39320000000000
H           -3.65850000000000       -0.13690000000000        3.73760000000000
H           -3.78690000000000        4.06110000000000        4.48560000000000
H           -2.03770000000000        5.77420000000000        8.44100000000000
H            0.20630000000000        3.21190000000000       10.95470000000000
H           -0.76990000000000        2.63910000000000       14.67790000000000
H            2.97000000000000        4.21920000000000       13.49070000000000
H           -0.95930000000000       -2.84590000000000       13.28610000000000
H            2.53530000000000       -4.04570000000000       11.20730000000000
H            4.82200000000000        3.06650000000000        9.20320000000000
H            4.64870000000000       -1.03940000000000        8.12150000000000
282
 energy: -418.566288364661 gnorm: 0.055784702910 xtb: 6.7.1 (edcfbbe)
C           -1.53589254387340       -2.34732324108236        2.97004958262247
C           -2.01049735651890       -1.53909008153909        1.93932439142127
C           -2.89648333288633       -2.06812054712357        0.95091903762074
C           -3.30648095059164       -3.41465870269913        1.15156101106027
C           -2.77081986274508       -4.19205917549332        2.17112649388389
C           -1.87693931531834       -3.67872999472220        3.10163030622731
C           -3.45398234543093       -1.32612082960720       -0.15538011303265
C           -4.69305751518424       -1.79515950980272       -0.71174085546605
C           -5.14709819232219       -3.11374160142324       -0.49203710716581
C           -4.35449039024857       -4.03074846907184        0.33020867504450
C           -2.89180426380208       -0.13330353279333       -0.73483477351815
C           -3.72079845752923        0.75743386572344       -1.46545373943655
C           -5.12358962242242        0.43281912638660       -1.74340791176816
C           -5.51549057535248       -0.95680878456755       -1.49739027507920
C           -6.71872815214686       -1.42344448020468       -2.01546030215851
C           -7.15336858686826       -2.72774195168519       -1.81677423820964
C           -6.33903283886255       -3.55634264933474       -1.05280468556908
C           -1.51389382939548        0.21033598722143       -0.65978888267514
C           -1.06588137220813        1.42926615812151       -1.16356678992135
C           -1.90899613925911        2.34620100282098       -1.76939546180489
C           -3.23540454495333        1.97139516537542       -1.93765070069154
O           -1.55621719908104       -0.24984123520472        1.96260053484668
O           -0.59194885718848       -0.62392256115217       -0.11370788848002
B           -0.24975953128945       -0.20283395750367        1.27011408948201
C            1.21366465562018       -2.65027828176352        0.23802224736171
C            1.61049688399612       -1.49531280799879        0.90992369006980
C            2.77124254144085       -0.77111244986315        0.50271427065937
C            3.45512042033282       -1.31482875626792       -0.61943471141193
C            2.97723618460663       -2.42660697533838       -1.30578662014341
C            1.84606613093942       -3.11712550844750       -0.89638625974440
C            3.32547376377809        0.37203010941309        1.18938625771651
C            4.70337213859358        0.69348493381821        0.92654521518205
C            5.37994230805869        0.19752084569484       -0.20904330844026
C            2.65849739225570        1.14080472355103        2.21251860272174
C            3.43450023568995        1.79604719972256        3.20720621677428
C            4.87590472207779        1.98579063325731        3.04812402183696
C            5.45593424284830        1.51743889924705        1.79325225350047
C            6.77829174402292        1.83714108277860        1.51173858280255
C            7.42520603557813        1.38401370465342        0.36937330505268
C            6.69658754501158        0.55888355943034       -0.47638977978504
C            1.24436206307402        1.31413544162020        2.32541602003147
C            0.69474159162037        1.75231705072069        3.53010232708910
C            1.47870071729184        2.18751668659743        4.58790681840815
C            2.84357952021431        2.29117340925134        4.36175676058679
O            0.40556915088709        1.11165880519201        1.27093948764408
O            0.75547393461225       -1.10586179566578        1.89058388867078
C            4.71275081652780       -0.74227659364771       -1.10801692247917
O            5.56840316513046        2.53924048943514        3.89988631220628
O            5.22387297630288       -1.09075178238888       -2.17206678314019
O           -4.60819546832205       -5.23304197925114        0.38136076837324
O           -5.91131027685770        1.25931946537430       -2.20271858311540
C           -1.31747266073297       -4.55476811007683        4.21952689670422
C           -0.49813974712031       -3.73415155075675        5.22512439757693
C           -0.41319342999006       -5.63033041812257        3.59848804998306
C           -2.48396611560736       -5.21808286474494        4.96731961291006
C           -1.35395649805180        3.69301141954455       -2.23274134625664
C           -2.44971279405835        4.58756934193852       -2.82862358125611
C           -0.72380284783738        4.42580903113112       -1.03697487672154
C           -0.28152044963077        3.44651461934759       -3.30537680321014
C           -8.46653265160053       -3.26371961643819       -2.39335565155585
C           -8.16315464065969       -4.44013879879102       -3.33556333204010
C           -9.22728029896792       -2.19083238278786       -3.18586870451871
C           -9.36669815068274       -3.74701482190290       -1.24446587037903
C            1.24396973184716       -4.29945242189696       -1.65121223398061
C           -0.16088012810476       -3.90115798551339       -2.13456976465666
C            1.13826172607280       -5.51134503426709       -0.71215242813145
C            2.09618084001071       -4.68771142881612       -2.86596936766635
C            0.83856539897051        2.53944975431184        5.92603457711267
C            0.11335793858314        1.28716080645653        6.44059840219284
C            1.87153161237026        2.95449506497090        6.98163460402516
C           -0.14376879786994        3.69956036750858        5.72199682167725
C            8.88190119859302        1.77284841668356        0.10784614187914
C            9.76073084653920        1.23790792881177        1.25039363103348
C            9.39906429054507        1.19414390753710       -1.21665052519656
C            8.99706510145005        3.30469938797538        0.04722273333820
H           10.43278184391529        1.49643932500488       -1.38362946033445
H            8.80493182783116        1.55282848183635       -2.05526443530725
H            9.36743529433582        0.10618749429454       -1.20523174089840
H           10.80783235857858        1.48803887127039        1.07898384660596
H            9.67573026596840        0.15458035047355        1.32073243504414
H            9.46564156738340        1.66131444054239        2.20806537820920
H           10.02481755988489        3.60456482145188       -0.15803074008035
H            8.69486329904034        3.76221509329939        0.98672828096934
H            8.36123718260583        3.70286142351781       -0.74204005805623
H            1.37557201808981        3.15236371851928        7.93101043691485
H            2.39807587982619        3.86063434052612        6.68492869092133
H            2.59390596791076        2.15824150888173        7.14827451912248
H           -0.57174359920900        4.00347179673844        6.67376263982054
H           -0.95749537947792        3.41935146866080        5.05745621452850
H            0.36706012911943        4.55981490502324        5.29023416257862
H           -0.29590878297098        1.46510080499239        7.43096921792968
H            0.80547209177310        0.44948078764140        6.51451176015973
H           -0.69941288467884        0.99667115635393        5.77879780590700
H           -0.30711620339211        5.38284108662637       -1.35184750417940
H            0.07392958250937        3.83990841198166       -0.58684928382542
H           -1.47067865377288        4.61620888516977       -0.26892763163533
H           -2.03059587819175        5.54663765596147       -3.13193086511546
H           -3.23214995679323        4.77996959376036       -2.09670229513475
H           -2.89729329932000        4.12578620743706       -3.70713584751204
H            0.12199389437137        4.39156761261446       -3.66869723748165