116
 energy: -22.930206409245 gnorm: 0.329734166301 xtb: 6.6.1 (8d0f1dd)
C           -1.28635065156273       -0.24452852101720       -0.55052343914792
C           -1.47441510347194        0.79452885171816        0.35878522825863
C           -0.56548984706706        1.04115455514970        1.41267800490823
C            0.48950866792723        0.11118549169698        1.70367277021820
C            0.54937741456990       -0.93691718612978        0.79945950603943
C           -0.21303968865107       -1.14471631252816       -0.35030667014246
C           -0.56527896606417        2.21141130344980        2.24823151191461
C            0.27989492114617        2.23929369852245        3.44512311164567
C            1.21314410641258        1.16772007858638        3.65380644619055
N            1.40446123982580        0.22039399101950        2.70332100750370
C           -1.28059082715472        3.44361286497457        2.00757214592002
C           -1.60952950236131        4.24005071174390        3.09893131937675
N           -1.19109459873704        3.99771176286370        4.36588584849965
C           -0.16032475811417        3.05114397626717        4.53006889049278
C            0.42375147765982        2.88930288833083        5.80901169318302
C            1.48575126921262        1.96903117269661        5.88909455772549
C            1.86778069456896        1.14848067335549        4.88313398568470
C           -1.41115708361843        4.13193933190198        0.76398654424647
C           -2.27635284155356        5.25848883057345        0.67221024596917
C           -2.90611684903267        5.81519695942843        1.79971108202098
C           -2.50680405955392        5.32285784232162        2.99576706774618
O           -0.74151989725398        3.67793829944387       -0.34616812479291
O           -2.63510896183173        1.60845252570422        0.43971854886740
C            0.06428241535092       -2.23182903045454       -1.33283079976663
C           -3.83746448531810        6.95411811957706        1.96689697097666
H            1.42358293135589       -1.58361044450974        0.89756437340883
H           -1.90851426401740       -0.42784047013226       -1.44459017241675
H            2.44901794794435        0.26569381656219        5.04314656725924
H            0.01988634377372        3.25371267550005        6.74341494433925
H           -3.08359164194933        5.69928333910345        3.85534274274154
H           -2.38153404803744        5.71530640958768       -0.29784662757498
O           -0.47670067745520       -2.23669728281896       -2.41369894461761
O            0.94172316030858       -3.19452370018981       -0.82303766331013
C            1.09215729550176       -4.26983650199534       -1.68456703997756
C            1.94080051593616        1.54047364912920        7.30378389734197
O            2.79336479630773        0.74173819527593        7.58966258547985
O            1.32278117812854        2.26703112597516        8.25019098545595
C            1.74413743026480        1.82709180372924        9.48499560274727
O           -4.29958555349740        7.07532300675064        3.08231453890108
O           -4.00939628669337        7.84212978211330        0.96201736862342
C           -4.65038612403302        9.04596648470759        1.36460119443882
C           -0.38960897229980        4.76528696587207       -1.20812154527406
C           -3.32923027802467        1.54173433113828       -0.71262841679434
H           -5.19117347903441        9.04593298035706        2.34768021127990
H           -5.47385557551186        9.43155263765772        0.74401466102633
H           -3.92747031264561        9.88027411095454        1.39051111991065
H            1.40296656874208        2.66084199429826       10.17625041763071
H            2.88723248807854        1.82228070140097        9.61335592616411
H            1.11524763226717        0.97143863349498        9.77238372929855
H           -2.65098698999963        1.60577379131364       -1.58576523811016
H           -4.08237275943112        2.30616352310033       -0.70341931033059
H           -3.79675463062456        0.56375008416762       -0.67301021823172
H           -1.19974256495532        4.91366566720765       -1.92175308364524
H            0.59752425131157        4.53076662535907       -1.73094105954253
H           -0.21816414815142        5.63634925650349       -0.60485586044442
H            0.12690473396614       -4.97314477412928       -1.67662958267532
H            1.95146135558518       -4.78559913930943       -1.48273153395572
H            1.16872309638390       -3.78629626643465       -2.69655045265457
C           -0.45921154913504       -4.41387566473753        2.17212912141586
C           -0.40992194726667       -3.42405293303552        3.13686862371122
C           -1.49017678106571       -2.42843191442915        3.22060976551981
C           -2.30448592472689       -2.25806662018142        2.04726674839192
C           -2.22716641685585       -3.24920553712393        1.04387047392641
C           -1.42084327599249       -4.33753565449749        1.12136029699743
C           -1.66356014217962       -1.55781754760512        4.27857297591373
C           -2.56719071400669       -0.54403803168343        4.13548756112228
C           -3.23681235665085       -0.33757083155892        2.92246270555278
N           -3.07361969472495       -1.20861015733521        1.87638713922122
C           -1.14440506363736       -1.67654406916852        5.61096918939533
C           -1.05131623880566       -0.56271059999389        6.50238725167139
N           -1.75609797587929        0.53933441754932        6.23441330508176
C           -2.64366465301664        0.43386370657626        5.19172050107163
C           -3.54040063035337        1.45767630656670        5.05817880502130
C           -4.24627985693077        1.66650893719694        3.89922991838673
C           -4.01315346260071        0.85809350366889        2.77473611947219
C           -0.89454231426726       -2.93646491107927        6.24347217975607
C           -0.23635428549381       -2.98749561445556        7.54267353779591
C            0.22474557235042       -1.83417669337045        8.14245547931812
C           -0.39677059724463       -0.70299859357610        7.72959066493714
O           -1.37321961647319       -4.13415078276601        5.62179860692631
O            0.68534223360411       -3.26626105130175        3.96507844226309
C           -1.50637306407453       -5.48550789501634        0.17520587385129
C            0.84443259347279       -1.84296214365340        9.48415860239650
H           -2.86456813269427       -3.05941552665340        0.21121363467269
H            0.19105423185572       -5.26666153462577        2.26850407657654
H           -4.15814571617659        1.29197517339614        1.85855351638654
H           -3.71211758284896        2.09446762128956        5.96857521418781
H           -0.43893306023164        0.23590870163456        8.29247267903897
H            0.10035089469592       -3.85431930789210        8.10457802668885
O           -0.62210330749707       -6.27527348829254        0.14680930871558
O           -2.63293736029741       -5.53042394224313       -0.60995818302946
C           -2.61115592187689       -6.59319091827549       -1.45779036179942
C           -5.07674057706047        2.88187203148566        3.74705991683621
O           -5.70927785321173        3.14464937007398        2.75346567885730
O           -5.10240736817956        3.70485898950829        4.86463315143199
C           -5.63245453489484        4.91277561464113        4.42435793031832
O            0.66405718230537       -0.89529214090604       10.24709772947881
O            1.70711476941250       -2.88872101320920        9.65612397950466
C            2.34331101546212       -2.84158409780099       10.93487003840024
C           -1.13247128185018       -5.15064003141783        6.42654946021149
C            1.95904947261428       -3.61877846801149        3.41290170682752
H            3.28778899639840       -3.42029300191989       10.89768978325099
H            1.59975995967878       -3.31532148255245       11.56536032986170
H            2.80456723406646       -1.87498789116261       11.15911016383337
H           -6.74235136307215        4.82723188665554        4.30474233921213
H           -5.15323539245805        5.19304856324535        3.46774280924069
H           -5.29507942357535        5.81627281902987        5.02794917073117
H            1.83704551925380       -3.35057916813910        2.35192612706925
H            2.20746262647652       -4.67723408971479        3.54283347652128
H            2.78331496567748       -3.04909313882557        3.90700960000723
H           -1.61745292745202       -6.18443307411100        6.10847523365143
H           -1.54790030430636       -4.88174699545291        7.39813424433234
H           -0.04025804763364       -5.37997675782558        6.56048587199299
H           -3.19912992431140       -6.25206893835330       -2.34178383978204
H           -3.04703774286640       -7.47358206391776       -0.98220428135548
H           -1.56174627728184       -6.62409811985972       -1.75966778541961
116
 energy: -22.861203233505 gnorm: 0.375027274928 xtb: 6.6.1 (8d0f1dd)
C           -1.54480677137952        0.11713349705193       -0.87850202635047
C           -1.70357717994647        0.97094919157855        0.25016943520732
C           -0.67542170879220        1.00162213670786        1.30301959514089
C            0.16164696909792       -0.15356552423261        1.35633593059646
C            0.32666868694042       -0.95249327613756        0.21894401656594
C           -0.42010215743937       -0.77056430229707       -0.95015308801054
C           -0.53989267995469        2.11702102022292        2.25237416896336
C            0.18104334297273        1.80568993714356        3.42846874069839
C            0.93200022325929        0.55183611817376        3.45968817868198
N            1.08141528134130       -0.30604725526746        2.41423625941946
C           -1.06588796972181        3.45261909207257        2.24885209551614
C           -1.15875227731607        4.21660899182248        3.47123498454135
N           -0.69101600599271        3.76199632542189        4.64010820644253
C            0.01777602877856        2.58341781630802        4.66123306815738
C            0.60419154068102        2.14258356037343        5.90130491450683
C            1.41947653806519        1.06816375211312        5.83224768170299
C            1.52020144887586        0.20072364864413        4.72882917955636
C           -1.26147562758866        4.03409312989510        0.96243400625782
C           -2.06755964211040        5.17389806072818        0.81344569104806
C           -2.30086177377592        5.84135214559160        2.01162253645286
C           -1.70532006481609        5.46866238801060        3.22697063553711
O           -0.66461032660620        3.50228666245731       -0.17451163031377
O           -2.80795521735523        1.81745860543048        0.40494819091910
C           -0.22579619622094       -1.51610256259607       -2.15800747653378
C           -3.34497311057677        6.88501098547869        1.92000387255822
H            1.02210383164579       -1.85475777557666        0.22734472014778
H           -2.31104981467271       -0.00043481744877       -1.64620636948780
H            1.93384015342648       -0.72065540180108        5.05028222914257
H            0.53045406890034        2.56066204987058        6.88968994633200
H           -1.94189803427622        5.97447022894294        4.15956830482223
H           -2.45063558574054        5.40609983088363       -0.19629379937805
O           -1.00132960068486       -1.37405926494349       -3.13857779901371
O            0.93646586854281       -2.36331443277643       -2.15330299095227
C            1.05631187279332       -2.98538727814080       -3.38114986558962
C            2.04842560456895        0.77374177218598        7.05877328586142
O            2.09724829952093       -0.40506982606738        7.42962038873517
O            2.47720571527711        1.78925449393548        7.83970597851561
C            3.19518268480125        1.29682715620262        8.96338727059493
O           -3.55613998562807        7.70083555097391        2.84682344282180
O           -4.11860765046296        6.80972715202307        0.81233363577255
C           -5.29864452790578        7.59709763031846        0.84493741274631
C           -0.92108274377723        4.16720193528766       -1.36884237175545
C           -3.80914915876673        1.83702996647256       -0.60801951418099
H           -5.05966355869340        8.55227786940696        0.39320287740295
H           -5.66172051970481        7.58089761009923        1.86820502545246
H           -5.97672418500350        6.99813151177936        0.26007246006382
H            3.95171232044642        0.50111340562594        8.65354625506467
H            2.46839664025384        0.81762144191504        9.59736379694513
H            3.38926647989967        2.27741827706578        9.43521269311823
H           -3.44834868471487        2.18498596752958       -1.54098270951179
H           -4.61747494824966        2.40855264298784       -0.31350871244340
H           -4.13087726322508        0.94573873139227       -0.88987317846404
H           -1.94919759505681        4.38476123726474       -1.70397891077323
H           -0.34417337808811        3.76560224735957       -2.14875319009777
H           -0.48996745670486        5.14896246400379       -1.20301890195364
H            2.11120322168595       -2.68455062332075       -3.75832729707004
H            0.20776880544060       -2.84714921656686       -4.02330879612282
H            1.07538085258318       -4.17883789825507       -3.24437878381680
C            0.07381650867353       -3.93738020000379        2.51254140124674
C           -0.14566889416811       -3.00762134552592        3.54511706024866
C           -1.32204950753113       -2.18740588471214        3.51367211710079
C           -2.14253968863131       -2.18422698112244        2.30003905620847
C           -2.03193675073174       -3.25385533155539        1.40459856500354
C           -0.90185303310049       -4.10012238633243        1.48341328087617
C           -1.84188783382965       -1.46396954158888        4.65453838964887
C           -2.63280690207518       -0.38641684305633        4.37135147738992
C           -3.28111776266257       -0.31893672212303        3.09298430115544
N           -3.01970576795720       -1.19014539166749        2.09941973489212
C           -1.58929744548562       -1.63303341947595        6.07605742560316
C           -1.71566526952033       -0.45009391926756        6.88172875166173
N           -2.26340615397337        0.69474089648348        6.45080905166432
C           -2.91731718238892        0.66072437118030        5.32766528753776
C           -3.84431346763732        1.67487035475523        5.00033258544861
C           -4.44828414408431        1.70345979553702        3.79696267904792
C           -4.20418566393503        0.70390913645057        2.87323775140645
C           -1.04751207998569       -2.83292936918360        6.63790184490170
C           -0.52212282023690       -2.80186029268730        7.95433819957839
C           -0.37699538288862       -1.58166096323907        8.59693815567360
C           -0.97846821934169       -0.38165497327280        8.11811845583367
O           -1.18099596815834       -4.09303723659240        5.98066555767455
O            0.68152323374280       -2.71894651963892        4.65218968384841
C           -0.98164691438240       -5.28825678599909        0.63155130883802
C            0.46396851371312       -1.61712559147665        9.84905532202672
H           -2.82596206451016       -3.37959381686149        0.71305102004161
H            0.99079294946792       -4.47825981700762        2.44776321249476
H           -4.80829195041895        0.71703941928179        2.05729492864063
H           -4.10670391745901        2.53325384619513        5.67008870693544
H           -0.84975649958523        0.55141097083153        8.73544635782793
H            0.07165348947099       -3.65094886616079        8.22325609289659
O           -0.19532502393875       -6.16934850834559        0.67032062727905
O           -2.04472405593669       -5.25087420877208       -0.23862948242600
C           -2.26685877909100       -6.37346071743515       -1.12577337797613
C           -5.17883114974467        2.91928904395441        3.48328276454635
O           -6.11720011127168        2.92027710173585        2.69886367937037
O           -4.65146125631267        4.07538358309373        4.14757474422899
C           -5.37096150016813        5.28932007665663        3.77674678314691
O            0.69210341940273       -0.53647864089496       10.39055839397138
O            0.68903348283048       -2.89237373884546       10.36037405168625
C            1.56938391269927       -2.95979264509389       11.43259865428676
C           -0.35200606953844       -5.07775238966968        6.40421283334916
C            2.00260899863127       -3.11694310466445        4.51803644961317
H            2.66320396875174       -3.14584280718309       11.13069539827255
H            1.23360200983719       -3.87552496924356       12.03323595664721
H            1.32290246727294       -2.17669202148519       12.21244753597746
H           -5.07670778725370        5.96266965503748        4.49809509136110
H           -6.48941725660911        5.26278668216209        3.89065649200521
H           -5.17726200003353        5.72617737830430        2.80295777979002
H            2.28984396353772       -4.02344873729481        3.81632826315057
H            2.55173738966684       -3.36193446716907        5.39986120163016
H            2.51246663992002       -2.31521609682244        4.13949165217500
H           -0.46453187431530       -6.12616779010795        5.88321316348779
H           -0.25530061241967       -5.20574065450358        7.50115817818814
H            0.61520945457061       -4.83375684364670        5.94941376745104
H           -3.23202207831878       -6.08297580003232       -1.63580407806426
H           -2.43280415814782       -7.32338999364773       -0.63661747377685
H           -1.42791926440927       -6.30888374797494       -1.79043044570090
116
 energy: -22.870406043606 gnorm: 0.362743436288 xtb: 6.6.1 (8d0f1dd)
C           -1.49170298697395        0.06198330663236       -1.08384053906935
C           -1.70118608559380        0.86977880447448       -0.00825394767751
C           -0.56341519363968        1.21509445360366        0.83714189788758
C            0.50605478477151        0.22961188801627        0.86486518184080
C            0.61782515656735       -0.59893951990487       -0.30660523323402
C           -0.34656084904236       -0.70860645527574       -1.27316849061697
C           -0.63089864646829        2.17367543457845        1.87255949737461
C            0.11676533099981        1.77935484365481        3.02304965422529
C            1.09222925178708        0.76982276893822        2.97545734417935
N            1.41355356672580        0.02732732485077        1.84235786867577
C           -1.41059361152897        3.42226104516229        1.88261059216569
C           -1.35502230211486        4.14393670455619        3.10123699504265
N           -0.67578639605430        3.73904529709951        4.14144607179762
C            0.07019153983759        2.68040041601474        4.14757846779778
C            0.71181572381493        2.23326089171127        5.28141733141639
C            1.50300443800649        1.09457408183732        5.36634572116328
C            1.73374221528903        0.42218553586248        4.20146670840663
C           -2.07176347916021        3.99571252904781        0.64213142016817
C           -2.73056257496509        5.24375094373317        0.84996831561391
C           -2.63579927158882        5.93798527989372        2.09969702510350
C           -1.91477837849848        5.47661287780944        3.23369200572140
O           -1.85179848392365        3.38268344586569       -0.63211404783102
O           -2.94965615817851        1.45758025945877        0.21127462561805
C           -0.49352688791890       -1.86429517111528       -2.10606472181888
C           -3.33319804306764        7.29105743515622        2.22419503660473
H            1.55227560923511       -1.20571237790355       -0.41617051421495
H           -2.21014808391873        0.02383397751209       -1.90518837839772
H            2.42817376037337       -0.31864443454048        4.13535940016955
H            0.62322011363406        2.80379493867149        6.14601862327749
H           -1.86032543217341        5.83227749939467        4.29757597791161
H           -3.22627978819788        5.71129993452939        0.04053847121727
O           -1.53668940352214       -2.34365145146692       -2.46470055559103
O            0.67136036440280       -2.53378185568479       -2.41927688165252
C            0.56288368651310       -3.76297456298233       -3.12493066913197
C            2.20942877733991        0.65320227666525        6.55011556680681
O            3.10505654361141       -0.15028626935947        6.42917803936338
O            1.74268116636329        1.15200059116150        7.71846192535342
C            2.46997962377851        0.69172856953234        8.85323067760941
O           -4.06928765882958        7.55594622988840        3.12942210810468
O           -3.14331747255066        8.20316650891344        1.20796135661943
C           -3.95063378937145        9.28420797353727        1.57188695869286
C           -2.35170025318081        3.98894523116071       -1.77585766433546
C           -3.98345869731419        1.21400977629995       -0.71847356405902
H           -3.88780559181036        9.43850971935111        2.72038551449902
H           -5.03411648354242        9.11719290356658        1.17685075308104
H           -3.55952998449977       10.11852061560188        0.97791929672407
H            3.15586972984741        1.39925923122068        9.23576839708877
H            3.21220949000932       -0.09071854580086        8.52177010947013
H            1.75575837094477        0.16980962265485        9.54688857038050
H           -3.67562378544226        1.62053648360773       -1.64532207462318
H           -4.90742451812662        1.50457478376680       -0.48619251250054
H           -4.05575039625938        0.19184658605345       -0.82396797252191
H           -3.40075873040002        4.12578532313800       -1.48472008681183
H           -2.12842074182726        3.56811424592734       -2.77774804836317
H           -1.80829141782497        4.93288478175690       -1.72649045719079
H            0.86111208466232       -4.40253065825902       -2.35017048149920
H            1.25039141070498       -3.48811005445306       -3.92373652394412
H           -0.35466248844672       -3.90740498061183       -3.65011358435744
C            0.36647345133780       -3.77978915934884        2.46114458634674
C            0.18258252355712       -3.00148578788612        3.58034442344742
C           -1.02451164865653       -2.21247548128249        3.58478515089377
C           -1.79888902676709       -2.06665977643656        2.40097278785094
C           -1.54641109140673       -2.96983666313298        1.35028219487490
C           -0.48632897484067       -3.82613455982285        1.38626182895295
C           -1.44851775324616       -1.45698610441789        4.71895925179986
C           -2.25302442115729       -0.33143318844759        4.33484923339183
C           -2.84578341186160       -0.12973950393278        3.00034089949896
N           -2.77153985183843       -1.08111105437312        2.05714351021605
C           -1.10301999599639       -1.65414431271974        6.12092348599543
C           -1.20011078745958       -0.56170273996955        7.03978811011969
N           -1.86035350358014        0.56787228479904        6.66820979948862
C           -2.54834684011722        0.57845184969815        5.43671194884485
C           -3.61882257735515        1.51006033038888        5.17104523818775
C           -4.16931849086378        1.70034312125651        3.92786675583306
C           -3.83414930319416        0.89444123677620        2.85996283329068
C           -0.77194713709023       -2.93837389747063        6.75488765018319
C           -0.37542955469123       -2.97987172170210        8.11634979769199
C           -0.32107058530731       -1.82930924952259        8.95679032395801
C           -0.68098592787813       -0.71171445630539        8.32985569693973
O           -0.91696314526893       -4.23211901570404        6.14157399944983
O            1.06490422053794       -3.07713479856567        4.66930207061336
C           -0.42127604989128       -4.96507337215158        0.42307018866604
C            0.13289209995305       -1.79041091383931       10.39141186541335
H           -2.33103310745595       -3.16762102839000        0.67481517531192
H            1.04674467533028       -4.57573372492341        2.44083845868197
H           -4.19181392353963        1.04464482761144        1.89238024878699
H           -3.80212654233855        2.38924074783606        5.85721746169295
H           -0.57683064953612        0.20397063601258        8.87295090250239
H           -0.11620972515015       -3.97023960043709        8.46066277070548
O            0.61665668838567       -5.39767207595327       -0.05747432507658
O           -1.65726237536402       -5.61506335169933        0.22954282995162
C           -1.64037989042011       -6.36604668371412       -0.94260847886496
C           -5.04584294247565        2.90206656185944        3.64470696746440
O           -5.48127414515586        3.01391110148568        2.50545807804545
O           -5.04175737815144        3.81821655373600        4.68640809485381
C           -5.51410094817638        5.07999690928634        4.12259463739503
O            0.69891157222569       -0.75998348028523       10.73987384738303
O           -0.07022645647437       -2.91805146796135       11.14207329664102
C           -0.08382866478411       -2.76301478416137       12.56068799179563
C           -1.56221751215567       -5.20915500872649        6.92869155999157
C            2.49034967559168       -2.98017669218822        4.50436430224123
H            0.09728495072152       -3.74571027440198       13.03289325937978
H           -0.99342948053412       -2.35268369342201       12.86893953888312
H            0.68303400206397       -2.03330270425967       12.73218940972531
H           -5.84510525254627        5.60295736695460        5.06650919363165
H           -6.37355190225483        4.96243852098489        3.50452575390646
H           -4.71023526091865        5.82123816611226        3.86198405635007
H            2.94942013085909       -3.91148495486051        4.67143207126824
H            2.96603361093135       -2.31746544487649        5.28001016492849
H            2.77664077099674       -2.71125383103863        3.48423326148183
H           -1.92705721979994       -6.02594521426004        6.42067215334527
H           -2.46818118609004       -4.76357035385824        7.36835350337464
H           -1.03532085602570       -5.51568997652425        7.87269990859707
H           -2.65999602066196       -6.35317309112022       -1.46928916795297
H           -1.42894457499339       -7.42089670742541       -0.64912088260613
H           -0.87888352309873       -6.09673287869382       -1.63382473950946
116
 energy: -22.908309669315 gnorm: 0.353414968461 xtb: 6.6.1 (8d0f1dd)
C           -1.72591847496419        0.29925236954794       -1.20043364221066
C           -1.89942396026292        1.06108761859688       -0.08495225906350
C           -0.85680033097126        1.09699921107396        0.86263936818563
C            0.11401618281857        0.08291588655135        0.83765037324340
C            0.22089647304013       -0.76076734232992       -0.31871834036461
C           -0.67919163158762       -0.60694795576916       -1.38358930758767
C           -0.76608428997373        2.12554462274756        1.84778744150167
C           -0.05024260067859        1.74543639165133        3.02270828969205
C            0.84199382586942        0.60395713499271        3.02214557264993
N            1.00114695665010       -0.22517439835114        1.86148339459132
C           -1.41521151043582        3.37042150199812        1.83151438556919
C           -1.57328373426064        4.06999014646111        3.08840593566293
N           -1.07547483970329        3.52354685371342        4.22109254913982
C           -0.22464619777899        2.47893920941222        4.21268913801305
C            0.56841181123677        2.15680086897219        5.31673365734893
C            1.40935941531706        1.03008529657039        5.33678535448303
C            1.54038625420796        0.19134864745542        4.21398010351257
C           -1.66942960585586        4.06572641373421        0.62497590299856
C           -2.28747704443619        5.29583783832146        0.65818283299469
C           -2.74426551900449        5.79270604540802        1.84515592694143
C           -2.28089971922156        5.26024621299315        3.04181271937625
O           -1.24652142395348        3.48682964746757       -0.56291666552413
O           -3.12760101675997        1.65278023186674        0.30022044813852
C           -0.60111393060081       -1.42050779722715       -2.60181252982226
C           -3.52192920693629        7.03697848243952        1.82412265522779
H            0.85920853785561       -1.69312738324149       -0.34329344678372
H           -2.40876321422122        0.40065365010884       -2.08212184954804
H            1.98840525413807       -0.77074696402986        4.30225302162297
H            0.52404256513123        2.90367828879347        6.07152545029599
H           -2.40905426330692        5.90486718963369        3.87715495642577
H           -2.44739899543514        5.76068994194127       -0.27582230947340
O           -1.08396910230866       -0.95590331007214       -3.60372333580256