116
 energy: -22.928061455056 gnorm: 0.329736929581 xtb: 6.6.1 (8d0f1dd)
C           -3.31122850772930        0.79849766164622       -0.92477639677520
C           -2.44380812530352       -0.12270372891954       -0.27661132624697
C           -1.41337090092821        0.39579727573559        0.56335275196199
C           -0.89266158675590        1.65801491088749        0.27377586709581
C           -1.72665675402493        2.51431363229076       -0.49448366572522
C           -2.95444148494349        2.13954154133227       -1.01494489940871
C           -0.74098268209890       -0.43411532818871        1.49825021926784
C            0.56872586496315        0.03782116815119        1.86248088067890
C            1.03782416582094        1.29402317993033        1.50887470833621
N            0.31238977034758        2.07067427098208        0.65193736800696
C           -1.29695700510141       -1.39996043042223        2.41574187746061
C           -0.38243517664656       -2.18060797534842        3.13232615520648
N            0.91308504082021       -1.90366887689689        3.30325166013478
C            1.37712470144904       -0.74872102533751        2.81811050966982
C            2.52149331701875       -0.17739833758153        3.39379298866852
C            2.95849061756259        1.02681208890480        2.95105897606587
C            2.24288949469137        1.78498308775960        2.03503020483770
C           -2.74860936222260       -1.74497937691422        2.38401158947411
C           -3.09416315450955       -2.91614440870436        3.00571134491758
C           -2.16786021984049       -3.77788778654213        3.63251872101904
C           -0.85708937311598       -3.40495313382985        3.68547234358092
O           -3.71994433332149       -0.94984598373544        1.67726658385724
O           -2.55702603277562       -1.47241711578389       -0.57241635275616
C           -3.84297843593025        3.13357444054366       -1.60938954875544
C           -2.68769581069131       -5.03867041417370        4.30484659386931
H           -1.39666850744143        3.51251503834900       -0.76806311868865
H           -4.27662633836220        0.55105838579656       -1.33106614114542
H            2.66329581305412        2.73912661909249        1.72562431984580
H            3.05775395548473       -0.69369546277216        4.16536137542516
H           -0.24710966264510       -4.12034095424229        4.22946223699121
H           -4.11477991332403       -3.04712728052358        3.03244694615357
O           -4.21824883374556        4.03433712717988       -0.87713382485991
O           -4.44510595673734        2.90643496899600       -2.81853501752979
C           -5.44216520282800        3.83300025693726       -3.02488532025093
C            4.23586651889298        1.50004220933226        3.59165660008449
O            5.05927614697201        0.66079890002952        3.91714215179376
O            4.47001334453535        2.86385149488593        3.72605651435371
C            5.79457498613219        3.08584475587818        4.15829123132174
O           -3.82227255313510       -5.27347675879771        4.16636005494405
O           -1.85023202017753       -5.79767454267276        5.06656077253571
C           -2.55119635829503       -6.86252441382958        5.62930343183426
C           -5.07197156564436       -1.42399175670916        1.58830531863830
C           -1.33089900128490       -2.23622472573986       -0.99264499351172
H           -2.54510546830388       -7.76426885143998        4.99136022291012
H           -3.57194749219491       -6.44405511486021        5.74196173723541
H           -2.09133598235598       -7.02043774843818        6.64022264233588
H            5.72707967266424        3.46798026205549        5.10135971236643
H            6.34060091246885        3.78468702308830        3.50069950143490
H            6.17933064298187        2.03010500085905        4.19342358084693
H           -0.91862729772622       -2.57650129080332       -0.01361370304871
H           -0.49769766914251       -1.60651221708571       -1.34094446550576
H           -1.52632419730509       -2.94569707152159       -1.75361447637286
H           -5.11788846557077       -2.41810833635233        1.17520213188926
H           -5.67929807973498       -0.69619639428435        1.04301666067831
H           -5.57598832326623       -1.42383358739762        2.57928294206544
H           -6.13050215934830        3.76035386975488       -2.23272855695873
H           -5.86615610071888        3.45938329385866       -4.02668959924245
H           -5.13479557532099        4.87790991548477       -2.98314551356402
C           -1.38192942069774        3.73616555005018        2.91232598411686
C           -1.84821468128685        2.59982427735607        3.49755545445181
C           -1.05946531454833        2.05730632010638        4.60922730982276
C            0.19893954712228        2.69376791964407        4.86302140881997
C            0.50425395911860        3.94630308659851        4.28768785650746
C           -0.26031777722226        4.46998310053134        3.25072669343212
C           -1.20488993561782        0.74454293276906        5.14851520323437
C           -0.06287609782692        0.02744069315890        5.60930570802864
C            1.19208754369866        0.71421540266195        5.78882868583885
N            1.19428660993148        2.06344359410476        5.62744624321596
C           -2.41361422770794        0.07928500213936        5.25249410304426
C           -2.45851584031083       -1.32662100968547        5.60237876023992
N           -1.29466212405906       -1.98318595734370        5.89916817085159
C           -0.14475655767527       -1.32117560077092        5.98824682881008
C            0.97209270935794       -1.98958449505532        6.53157704134458
C            2.21982707914082       -1.36973967291181        6.68703967237737
C            2.30561929262884       -0.09745313075593        6.26436900324455
C           -3.73018485967715        0.71367583494582        5.25810242262992
C           -4.89964478833448       -0.06184623426677        5.21204641615509
C           -4.82617965800088       -1.39228978090841        5.46901303780036
C           -3.67144193418464       -1.98914944386360        5.67265433266067
O           -3.75568638935321        2.07705011038914        5.52067969627343
O           -2.94192434743730        1.91263938797883        3.01658762327703
C            0.21273512614467        5.50086066357994        2.34765104514621
C           -6.06660304520411       -2.17604633098929        5.80641622556876
H            1.41756699010566        4.38133362238595        4.66974005703471
H           -1.82880610647429        4.11982501512100        2.06992133318584
H            3.26888037378556        0.32655662585251        6.31721410015598
H            0.87146188387207       -3.08471526305024        6.57830423410869
H           -3.67716811065157       -3.05999292755990        5.83019634570050
H           -5.77379677507622        0.43595144608221        4.71017130754348
O            1.34459852619901        5.82615848916894        2.44941456579099
O           -0.74718748219123        6.07961784856304        1.59848183464284
C           -0.21473095568964        7.24015934882472        1.05753806029483
C            3.53228080814219       -2.00967610361154        7.02506769044485
O            3.64093082622715       -3.14437803815732        7.50071391725347
O            4.56565258381079       -1.22937033368332        6.69086985080897
C            5.72579357310716       -1.80692399125161        7.22246151275881
O           -7.04801223588612       -1.95726935745904        5.14194115322235
O           -6.01514389321278       -2.93743591896022        6.94765316328794
C           -7.21292732384718       -3.62681918543340        7.15115816329978
C           -4.95459780685163        2.65960679932188        5.86868674392943
C           -3.68284113682406        2.59129188358641        2.05479246020704
H           -7.43119628931628       -4.22607794725959        6.20622607140901
H           -8.06548455146707       -2.91765848248592        7.29781126410398
H           -7.07314693247270       -4.33087306029711        7.91223421050944
H            6.57332189837178       -1.29353136199234        6.78341268688262
H            5.74663761932316       -2.84282155125561        6.88089468184451
H            5.69426191474290       -1.72781984964892        8.29460302186842
H           -4.10481209541493        3.44288266176275        2.60483747673152
H           -4.49244774344916        1.87419893016926        1.82433103764650
H           -3.18901540870812        2.85154642679373        1.06781919454921
H           -5.55414326821421        2.76698137191684        4.93950725322359
H           -4.78658370641210        3.62090640967288        6.25983200635257
H           -5.43485580473958        1.97242995129449        6.65265772412460
H            0.89164886030839        7.38838561720231        1.13776105146914
H           -0.62894889903848        8.04195665205089        1.64837664327952
H           -0.59282546386754        7.45699159724320        0.03719083132488
116
 energy: -22.604167921222 gnorm: 0.544451288884 xtb: 6.6.1 (8d0f1dd)
C           -3.26517423389022        0.25295878006968       -0.64889196759638
C           -2.40045635189225       -0.59235435320194        0.08128194259976
C           -1.32861761680164        0.08459082498093        0.81342996171261
C           -1.20677403832388        1.44098091915414        0.71325985246939
C           -2.08979786257511        2.24652531886658       -0.02806023921232
C           -3.24933818412310        1.69737514627232       -0.58472878288108
C           -0.28093913542081       -0.63486395431222        1.44120693746647
C            0.98864394379974        0.03022643380681        1.66786186813659
C            1.12363594438849        1.41525602489290        1.44798549676266
N            0.02658443889992        2.14827222115134        0.88892860754505
C           -0.59784978103751       -1.79412887262854        2.13450149852845
C            0.59289765651849       -2.44189707846218        2.78124592677744
N            1.85297521151815       -1.95930114386700        2.81803545222599
C            2.00448214270651       -0.75550940959812        2.35003152189372
C            3.31162646412505       -0.14436689571822        2.40081856157247
C            3.48307401649462        1.05407114735360        1.70492584750507
C            2.40886983553149        1.91222785145817        1.49177154124668
C           -1.88947978861477       -2.17319470311839        2.66821474032794
C           -1.92603964622639       -3.44789254152232        3.37767250804890
C           -0.82928658512265       -4.07872911534475        3.95627916842938
C            0.45081959552564       -3.52441262408933        3.64415810587589
O           -3.01984549017080       -1.37506249067629        2.57019016727288
O           -2.61642868356025       -1.97314787749185       -0.10926381715321
C           -4.20493964621396        2.55102794180880       -1.33093712299692
C           -0.89689557436576       -5.01292276268505        5.06706870729627
H           -1.88745457593405        3.20054266723331       -0.36175794372090
H           -4.13338182553172       -0.34873108066911       -1.21376918227467
H            2.82438779361763        2.90471142948855        1.31611248109420
H            3.89543634603821       -0.73974061547775        3.11889408798549
H            1.31075050987416       -4.07883236262904        4.03286386278011
H           -2.83396008431916       -3.88325390453227        3.80191242759584
O           -4.72141499834520        2.14656867097301       -2.38911324252349
O           -4.61714398726644        3.70518974985955       -0.78393728710173
C           -5.94802402538110        4.04685859718947       -1.28150477253845
C            5.00891542364185        1.67074435117326        1.70326721698952
O            5.85826211000266        1.07363751650702        2.29332207089187
O            5.42330353869701        2.67001200246909        0.82916564926022
C            6.87168818389363        2.89774799810557        0.81910964668661
O           -2.01677410767493       -5.36889731224874        5.41162929019177
O            0.25902224055115       -5.28715611469276        5.71256007948358
C           -0.06805889702171       -6.44825877263838        6.45259333282636
C           -4.25601611766055       -2.21315807861024        2.17721866294352
C           -2.51844752953359       -2.62873211755008       -1.39819002782815
H           -0.00082470425723       -7.38135331361807        5.75167156707226
H           -0.95239321831333       -6.35120769302170        7.01308943164735
H            0.69513363361135       -6.79931633744249        7.15241566866533
H            7.01388965234716        3.96342916999040        0.54919292409109
H            7.27095747018845        2.30271112942061        0.04752694960705
H            6.96790295434012        2.48961136204507        1.94722971671413
H           -2.48925725795483       -3.72258309986501       -1.05277524294164
H           -1.67107705447667       -2.24999563917584       -1.93330721543801
H           -3.49670367310755       -2.70054835349042       -1.91525186538894
H           -4.72304116472611       -2.26242349557424        3.22020061495666
H           -3.93369021640243       -3.25488902731116        1.89152821073644
H           -4.84901541524165       -2.03802804489595        1.16725575744082
H           -5.65846640313526        4.18326650112448       -2.48917531867249
H           -6.37130254776010        4.99499755844753       -1.06116686046542
H           -6.73611844904985        3.20053549472849       -1.22100824268479
C           -1.42221529451575        3.97734050975298        3.22130357007619
C           -2.10693773524339        2.99670974113527        4.04536607170541
C           -1.40576129859463        2.50059354801119        5.26462848993610
C           -0.07227036824010        2.94781910436255        5.53968343501714
C            0.35878807317342        4.01245395520042        4.76980959647329
C           -0.22473267953096        4.52430181455050        3.55321853214924
C           -1.72576668911819        1.15494386010708        5.71790508561703
C           -0.66427136991798        0.31006834319993        6.08182118081804
C            0.58213872014620        0.70539847233178        6.35161720690934
N            0.80151565338608        2.07673380585006        6.14130970791344
C           -3.01554089034058        0.55980365703491        5.83413888525854
C           -3.19480190100618       -0.85319635166594        5.96494051007866
N           -2.17023391897338       -1.73378457376762        5.96951136270438
C           -0.97244891338520       -1.15646522229008        6.36724922577593
C            0.08237596136506       -2.03144205746194        6.57497166370888
C            1.36955032696865       -1.54561014173063        6.91788481563363
C            1.65301154522608       -0.21484758983280        6.74817416782390
C           -4.28389612656890        1.27492816845052        5.99116577354340
C           -5.51245827018083        0.65808824911013        5.69709959017592
C           -5.62448423348287       -0.68788698490244        5.51362066900300
C           -4.48455776164302       -1.40864444149548        5.74034538891512
O           -4.00548971216554        2.46257047149050        6.59574531294783
O           -3.30471465376512        2.43306095474654        3.54166728058430
C            0.51293630110027        5.73782874922281        2.81357792886017
C           -6.92575761350204       -1.21946122716425        5.02473115800760
H            1.11402547322628        4.62584414912252        5.01521826295806
H           -1.60691068373641        4.22762595100590        2.25917980562294
H            2.48287412328718        0.00183978764107        7.20752568024749
H           -0.07676833497959       -3.07454212516800        6.45765194430611
H           -4.40670548850183       -2.47221221176313        5.61758082701329
H           -6.48827140116947        1.05858916045503        5.61364259681041
O            0.81474022710418        6.77304327216619        3.31725898147804
O            0.16276851859375        5.53607041644989        1.49493119457710
C           -0.03692815155231        6.83184217756021        0.74545509801152
C            2.39594416014997       -2.56712342855070        7.39606607476465
O            2.06054222549165       -3.06917921980874        8.45903586822206
O            3.69487869543064       -2.67740229957774        6.83424826752868
C            4.30276094485548       -3.53647103293175        7.67565511761400
O           -7.93239344451665       -0.66683738896901        5.38435163762301
O           -6.90760636248575       -2.43910581468469        4.19213749928236
C           -8.09975516925373       -2.64256200192913        3.47416014939423
C           -4.87277392605191        3.50635236962695        6.26861519694362
C           -3.92917574102545        2.79615030929584        2.30525951411523
H           -9.00398915254628       -2.46526638824025        4.12829850369518
H           -8.09201058738305       -3.61332034491045        2.89005386932116
H           -8.40239588483602       -1.69418750683679        2.73368025772901
H            4.25064382517922       -4.49549610682674        7.27152100420180
H            3.82476810826841       -3.71754307342770        8.73913008064728
H            5.44382037875467       -3.47079392602337        7.87201747572271
H           -4.96556609626371        2.52407168046229        2.42289430522259
H           -3.51458983072997        2.26202624396495        1.38912894387461
H           -3.81501364021230        3.91681616333122        2.28550585842773
H           -5.72303071292031        3.76994917108796        5.47562269319868
H           -4.34511482606078        4.36590608416775        6.30260254758645
H           -5.30999209385978        3.63825544844630        7.24730197437629
H            0.18740529736245        7.67954595910011        1.44629999909985
H           -1.16253796510412        7.10823311956916        0.67404934188498
H            0.47231314493118        7.15333525670774       -0.12415382465239
116
 energy: -22.615251100859 gnorm: 0.542522558864 xtb: 6.6.1 (8d0f1dd)
C           -2.87886926071920       -0.18407471017500       -0.78757548624555
C           -1.75733600764766       -0.94206226468067       -0.36877481807732
C           -0.67563822576531       -0.18964021299973        0.12399346266820
C           -0.56995816428694        1.21964957217767       -0.01561395051143
C           -1.75692284943441        1.90108665423721       -0.58495610824948
C           -3.05319218078739        1.22735115637875       -0.57409419153508
C            0.38275125757301       -0.66246922426886        1.13836716857931
C            1.54498797931712        0.04694732173173        1.14069984857807
C            1.60246880559346        1.16867012745080        0.38178287777671
N            0.64816243157252        1.84971637759226       -0.26032296050829
C            0.12450539371962       -1.42185515894584        2.22954915649377
C            1.24936223077676       -2.03937283267864        2.92907450249744
N            2.41829312335581       -1.56035036403433        2.66423229065421
C            2.58846842769182       -0.44714907789796        1.89397877096037
C            3.83503665560143        0.26451406643923        1.81130618918830
C            4.03540283672797        1.36013725167244        1.03037040904801
C            2.90481027548325        1.75345278592433        0.30643915581301
C           -1.19836579334931       -1.75119315356624        2.79480040278522
C           -1.13551885082247       -2.86133925384625        3.63893620834848
C           -0.12793446355762       -3.57213767525246        4.15122258584706
C            1.10978289454018       -3.10598096733788        3.79054960070925
O           -2.25279118493579       -1.03283892695653        2.29782115900346
O           -1.91874005467991       -2.37886279965843       -0.33712115782208
C           -4.27514414261091        2.09353033854646       -1.11172447854154
C           -0.09871003408335       -4.89566475239975        4.94051347253151
H           -1.49336167815645        2.77536531059085       -1.16195495179273
H           -3.81152051860983       -0.63666195274153       -1.20441672425992
H            2.97830092513510        2.70788929874205       -0.29901058521652
H            4.65780605014352       -0.08588308926325        2.36712381037604
H            1.98170315565416       -3.81137428995292        3.77573671895490
H           -2.18534724560422       -3.24026152066264        3.83335165787683
O           -4.15528121670883        3.06720844552635       -1.79776453537848
O           -5.56402574975753        1.83916153743763       -0.60498771602423
C           -6.33540354498763        2.96497716074783       -0.88403528978865
C            5.17446187029832        2.32833098336194        1.22758588473685
O            6.05797812250290        1.95984916754608        1.96636370078107
O            5.16032605371761        3.57452229550049        0.50905103273118
C            6.22686106594491        4.49476992811391        0.55291789573818
O           -1.13861385319050       -5.25929936224227        5.46226781730799
O            1.11445359028695       -5.63668843089448        4.81207796799434
C            1.05896322168653       -6.67221972568079        5.59701537220052
C           -3.41680737706876       -1.01694289228924        3.13445756304934
C           -0.82059297329450       -3.19987849095019       -0.56136150255098
H            0.99890248782430       -7.71089105128366        5.05683205641178
H            0.32366813949803       -6.35076217285863        6.46975981527086
H            2.22861208862582       -6.85745619685800        5.76985508217254
H            7.00984212041384        3.79101720202763        0.34901329532707
H            6.34274364777090        5.00021642165064        1.47662177288324
H            6.48182908519447        5.31557421517426       -0.28250629518220
H           -0.03905113155775       -2.69332099497181       -1.30849142188867
H           -1.06734969242624       -4.16443427170132       -0.99724925350778
H           -0.33986606204140       -3.36832056422533        0.41068355297258
H           -3.04375695731517       -0.93664339059350        4.26065907978054
H           -4.10407352021220       -1.88094181667370        2.98410881828267
H           -3.89750785556043        0.04878873123211        2.99228691704270
H           -5.82718695549206        3.99893794281438       -0.73676379162601
H           -7.21315524417482        2.92189706446842       -0.32180153620965
H           -6.63850843864327        2.65242790327717       -1.93576825395051
C           -1.92708800076739        3.27957618310906        2.87010633202038
C           -2.45909372105414        2.38715646515679        3.78141186436868
C           -1.60321187808560        1.71584288172573        4.79404621040392
C           -0.24218292320934        2.02585169990333        4.97641817305959
C            0.34814955282127        2.95320464582488        4.06547850252531
C           -0.47946730858013        3.51907267407682        3.00532622864068
C           -2.07567713491301        0.72649024197270        5.66405295046382
C           -1.10155457119568       -0.25230005459861        6.09589236108870
C            0.21654613446062        0.06138727576406        6.00807425166693
N            0.63736000370420        1.33625514631237        5.74187724887208
C           -3.54492058719889        0.63034296252832        6.00901317958318
C           -3.86499446264700       -0.75520607232075        6.14230476385237
N           -2.96580234208801       -1.80914834104135        6.40950106889728
C           -1.70542208316277       -1.38009676990586        6.77312714226130
C           -0.82187236417594       -2.45581391150124        7.13101117028106
C            0.56850491537017       -2.21740240223946        6.88942004447145
C            1.07734889140612       -0.91044607832249        6.57883110694030
C           -4.40917965927914        1.71933560717731        6.23949112083570
C           -5.74911976801087        1.56822781947424        6.03157012350489
C           -6.12307283197835        0.27161558188414        5.80403075652784
C           -5.34073910794211       -0.93133517730666        5.90724515773905
O           -3.73719126099354        2.90752606554077        6.53415499929305
O           -3.87921120068074        2.28060915826507        3.62432109929043
C           -0.01069470460462        4.69066827653490        2.37446965203230
C           -7.65207022837222       -0.11619114884073        5.62872072491139
H            1.31212827448294        2.95069615647487        3.80656060571258
H           -2.62905924250932        3.54997956908640        2.12560471976925
H            2.03761391722636       -0.74987612259845        6.91277288117917
H           -1.35113147974563       -3.43821735268343        7.30270918145644
H           -5.78773850344053       -1.95357712210534        5.86465490860941
H           -6.50603814947141        2.26359350362754        5.81727370428932
O            1.12524179658020        4.78975640474727        1.86314226298198
O           -0.64444126946789        5.90401039900661        2.56613082633165
C            0.02702903818383        6.81491968749419        1.84769257268160
C            1.43541817125812       -3.13949064355052        7.63620293427762
O            0.82771358597766       -3.84672389171833        8.41761575517450
O            2.76391452959082       -3.09286167011293        7.70503202686300
C            3.39373022702917       -3.84038240147049        8.81886839251136
O           -8.35691308240444       -0.63337871838735        6.49102254699339
O           -7.97153057302408       -0.26651528954388        4.25133436004160
C           -9.33356760441678       -0.49611176320102        4.01890147939800
C           -4.66398524882629        4.09636664863140        6.88858500374105
C           -4.54302819073887        2.12976264944302        2.32699389546412
H           -9.63978845576473       -0.89064593432198        2.98052450678515
H           -9.88916061016718        0.30544980490976        4.50434060485947
H           -9.48365669646804       -1.40970485341360        4.61883960897840
H            2.66444868708019       -3.86211219904997        9.71155696500704
H            4.13366142647692       -3.34752566807842        9.42164188769530
H            3.68599079158644       -4.94310345267960        8.49477459190753
H           -5.09918368116922        1.23170953372136        2.16816671348745
H           -3.77749527126478        2.05608272411085        1.52488646303546
H           -5.01443155494309        3.03473120011804        1.93172107096097
H           -5.43770124938839        4.11273599797083        6.22502032738726
H           -4.07746358806635        4.98701628017645        6.75784353037530
H           -5.24554020361678        3.91664271092279        7.80586419581254
H            1.11001816492413        6.66446387543450        1.92273028858967
H           -0.41285300013848        7.87687002441833        2.23422977640020
H           -0.37154249862196        6.76346502533454        0.82148052442448
116
 energy: -22.572734243072 gnorm: 0.634005059516 xtb: 6.6.1 (8d0f1dd)
C           -2.57683110908328        0.12856768927377       -1.14866435484468
C           -1.48181625241973       -0.52046409432460       -0.75470014396540
C           -0.85526988692944        0.20417200795194        0.39380575111819
C           -0.84912845657408        1.53813220909809        0.36064282845210
C           -2.07826240206487        2.14347880619030       -0.11322352351882
C           -2.89914459901700        1.39861405962278       -0.74265014906616
C            0.23751064620101       -0.39834726628162        1.19895894889302
C            1.42290608681637        0.45250829227048        1.19627259560487
C            1.38480048327509        1.73841300525065        0.70579291527427
N            0.21528079969086        2.31035685447043        0.26649470546306
C            0.32843849959291       -1.58441893564326        2.07561962464805
C            1.58654844737704       -1.99931675934409        2.50254377838563
N            2.71276083073977       -1.34174772409300        2.24000256319027
C            2.61237023066015       -0.14262348826441        1.72853573343547
C            3.72351899679186        0.59827656345014        1.78819428956998
C            3.82619901722388        1.84357699532489        1.06110103403673
C            2.66007888326856        2.33392555357557        0.54241580047419
C           -0.73537950345831       -2.37802285260728        2.41562142011687
C           -0.64997366787770       -3.54824466893788        3.03847646243434
C            0.62748495170333       -3.94716654482132        3.35507284582199
C            1.67842873695191       -3.23012501555379        3.05663140948399
O           -2.03545099838861       -1.78680258575679        2.31025305804935
O           -1.03120622792243       -1.76017895599988       -1.24833463738886
C           -4.29375684239699        1.96297787562497       -1.39029036379303
C            0.81053526868235       -5.31251304906692        4.03866338697107
H           -1.92572280853975        3.24569009171501       -0.26362490746278
H           -3.34828341576121       -0.44289421758320       -1.36753661406152
H            2.69424244486716        3.42825269144856        0.29385272569413
H            4.60200416479823        0.27503411925719        2.28054074575749
H            2.64293044278332       -3.61569216802654        3.17653238785315
H           -1.62111536946043       -4.18848323166503        3.39027662393830
O           -5.04851327906565        2.42559064094173       -0.50344042079544