116
 energy: -22.928061455056 gnorm: 0.329736929581 xtb: 6.6.1 (8d0f1dd)
C           -3.31122850772930        0.79849766164622       -0.92477639677520
C           -2.44380812530352       -0.12270372891954       -0.27661132624697
C           -1.41337090092821        0.39579727573559        0.56335275196199
C           -0.89266158675590        1.65801491088749        0.27377586709581
C           -1.72665675402493        2.51431363229076       -0.49448366572522
C           -2.95444148494349        2.13954154133227       -1.01494489940871
C           -0.74098268209890       -0.43411532818871        1.49825021926784
C            0.56872586496315        0.03782116815119        1.86248088067890
C            1.03782416582094        1.29402317993033        1.50887470833621
N            0.31238977034758        2.07067427098208        0.65193736800696
C           -1.29695700510141       -1.39996043042223        2.41574187746061
C           -0.38243517664656       -2.18060797534842        3.13232615520648
N            0.91308504082021       -1.90366887689689        3.30325166013478
C            1.37712470144904       -0.74872102533751        2.81811050966982
C            2.52149331701875       -0.17739833758153        3.39379298866852
C            2.95849061756259        1.02681208890480        2.95105897606587
C            2.24288949469137        1.78498308775960        2.03503020483770
C           -2.74860936222260       -1.74497937691422        2.38401158947411
C           -3.09416315450955       -2.91614440870436        3.00571134491758
C           -2.16786021984049       -3.77788778654213        3.63251872101904
C           -0.85708937311598       -3.40495313382985        3.68547234358092
O           -3.71994433332149       -0.94984598373544        1.67726658385724
O           -2.55702603277562       -1.47241711578389       -0.57241635275616
C           -3.84297843593025        3.13357444054366       -1.60938954875544
C           -2.68769581069131       -5.03867041417370        4.30484659386931
H           -1.39666850744143        3.51251503834900       -0.76806311868865
H           -4.27662633836220        0.55105838579656       -1.33106614114542
H            2.66329581305412        2.73912661909249        1.72562431984580
H            3.05775395548473       -0.69369546277216        4.16536137542516
H           -0.24710966264510       -4.12034095424229        4.22946223699121
H           -4.11477991332403       -3.04712728052358        3.03244694615357
O           -4.21824883374556        4.03433712717988       -0.87713382485991
O           -4.44510595673734        2.90643496899600       -2.81853501752979
C           -5.44216520282800        3.83300025693726       -3.02488532025093
C            4.23586651889298        1.50004220933226        3.59165660008449
O            5.05927614697201        0.66079890002952        3.91714215179376
O            4.47001334453535        2.86385149488593        3.72605651435371
C            5.79457498613219        3.08584475587818        4.15829123132174
O           -3.82227255313510       -5.27347675879771        4.16636005494405
O           -1.85023202017753       -5.79767454267276        5.06656077253571
C           -2.55119635829503       -6.86252441382958        5.62930343183426
C           -5.07197156564436       -1.42399175670916        1.58830531863830
C           -1.33089900128490       -2.23622472573986       -0.99264499351172
H           -2.54510546830388       -7.76426885143998        4.99136022291012
H           -3.57194749219491       -6.44405511486021        5.74196173723541
H           -2.09133598235598       -7.02043774843818        6.64022264233588
H            5.72707967266424        3.46798026205549        5.10135971236643
H            6.34060091246885        3.78468702308830        3.50069950143490
H            6.17933064298187        2.03010500085905        4.19342358084693
H           -0.91862729772622       -2.57650129080332       -0.01361370304871
H           -0.49769766914251       -1.60651221708571       -1.34094446550576
H           -1.52632419730509       -2.94569707152159       -1.75361447637286
H           -5.11788846557077       -2.41810833635233        1.17520213188926
H           -5.67929807973498       -0.69619639428435        1.04301666067831
H           -5.57598832326623       -1.42383358739762        2.57928294206544
H           -6.13050215934830        3.76035386975488       -2.23272855695873
H           -5.86615610071888        3.45938329385866       -4.02668959924245
H           -5.13479557532099        4.87790991548477       -2.98314551356402
C           -1.38192942069774        3.73616555005018        2.91232598411686
C           -1.84821468128685        2.59982427735607        3.49755545445181
C           -1.05946531454833        2.05730632010638        4.60922730982276
C            0.19893954712228        2.69376791964407        4.86302140881997
C            0.50425395911860        3.94630308659851        4.28768785650746
C           -0.26031777722226        4.46998310053134        3.25072669343212
C           -1.20488993561782        0.74454293276906        5.14851520323437
C           -0.06287609782692        0.02744069315890        5.60930570802864
C            1.19208754369866        0.71421540266195        5.78882868583885
N            1.19428660993148        2.06344359410476        5.62744624321596
C           -2.41361422770794        0.07928500213936        5.25249410304426
C           -2.45851584031083       -1.32662100968547        5.60237876023992
N           -1.29466212405906       -1.98318595734370        5.89916817085159
C           -0.14475655767527       -1.32117560077092        5.98824682881008
C            0.97209270935794       -1.98958449505532        6.53157704134458
C            2.21982707914082       -1.36973967291181        6.68703967237737
C            2.30561929262884       -0.09745313075593        6.26436900324455
C           -3.73018485967715        0.71367583494582        5.25810242262992
C           -4.89964478833448       -0.06184623426677        5.21204641615509
C           -4.82617965800088       -1.39228978090841        5.46901303780036
C           -3.67144193418464       -1.98914944386360        5.67265433266067
O           -3.75568638935321        2.07705011038914        5.52067969627343
O           -2.94192434743730        1.91263938797883        3.01658762327703
C            0.21273512614467        5.50086066357994        2.34765104514621
C           -6.06660304520411       -2.17604633098929        5.80641622556876
H            1.41756699010566        4.38133362238595        4.66974005703471
H           -1.82880610647429        4.11982501512100        2.06992133318584
H            3.26888037378556        0.32655662585251        6.31721410015598
H            0.87146188387207       -3.08471526305024        6.57830423410869
H           -3.67716811065157       -3.05999292755990        5.83019634570050
H           -5.77379677507622        0.43595144608221        4.71017130754348
O            1.34459852619901        5.82615848916894        2.44941456579099
O           -0.74718748219123        6.07961784856304        1.59848183464284
C           -0.21473095568964        7.24015934882472        1.05753806029483
C            3.53228080814219       -2.00967610361154        7.02506769044485
O            3.64093082622715       -3.14437803815732        7.50071391725347
O            4.56565258381079       -1.22937033368332        6.69086985080897
C            5.72579357310716       -1.80692399125161        7.22246151275881
O           -7.04801223588612       -1.95726935745904        5.14194115322235
O           -6.01514389321278       -2.93743591896022        6.94765316328794
C           -7.21292732384718       -3.62681918543340        7.15115816329978
C           -4.95459780685163        2.65960679932188        5.86868674392943
C           -3.68284113682406        2.59129188358641        2.05479246020704
H           -7.43119628931628       -4.22607794725959        6.20622607140901
H           -8.06548455146707       -2.91765848248592        7.29781126410398
H           -7.07314693247270       -4.33087306029711        7.91223421050944
H            6.57332189837178       -1.29353136199234        6.78341268688262
H            5.74663761932316       -2.84282155125561        6.88089468184451
H            5.69426191474290       -1.72781984964892        8.29460302186842
H           -4.10481209541493        3.44288266176275        2.60483747673152
H           -4.49244774344916        1.87419893016926        1.82433103764650
H           -3.18901540870812        2.85154642679373        1.06781919454921
H           -5.55414326821421        2.76698137191684        4.93950725322359
H           -4.78658370641210        3.62090640967288        6.25983200635257
H           -5.43485580473958        1.97242995129449        6.65265772412460
H            0.89164886030839        7.38838561720231        1.13776105146914
H           -0.62894889903848        8.04195665205089        1.64837664327952
H           -0.59282546386754        7.45699159724320        0.03719083132488
116
 energy: -22.784063712979 gnorm: 0.442248584547 xtb: 6.6.1 (8d0f1dd)
C           -2.79199752867652        0.65387656824019       -0.67000603133529
C           -2.06396018725347       -0.29730156622522        0.11027547726037
C           -1.07370874880157        0.13556826665015        1.08121785712703
C           -0.71173580483196        1.54001706204794        1.17243325761035
C           -1.43939820767889        2.39274840643751        0.26391681789826
C           -2.58718334757428        2.00680019425273       -0.35692959517875
C           -0.22405899152093       -0.74730863251968        1.85368835692902
C            1.01861311949312       -0.22034204467423        2.16609587566100
C            1.38605168134986        1.16438367839209        2.00489949733126
N            0.53518603393512        1.99733142419097        1.46381083757366
C           -0.56192506869754       -1.95721194264274        2.47073274974610
C            0.45975503992187       -2.76616504164637        2.97630153811896
N            1.70415539559300       -2.38608820392052        3.01857516161653
C            1.95454086053748       -1.15850111525105        2.64337965021079
C            3.25743210271982       -0.72892311808701        2.88871302639701
C            3.71685045194406        0.58882509694027        2.60299791144933
C            2.69609143137890        1.51827919564195        2.30033112593156
C           -1.97521683654986       -2.21198222248186        2.72909530228751
C           -2.25284513100095       -3.50478831390161        3.26153611842154
C           -1.14993976484826       -4.47679649794497        3.42072934629808
C            0.16062411020323       -4.02015187415601        3.52808321535479
O           -3.01326796495838       -1.20414594444839        2.56283460289420
O           -2.24885201575548       -1.62054883203737       -0.19543462082093
C           -3.17206874928170        2.98261284839870       -1.28022388222155
C           -1.61186721898578       -5.71535198441550        4.09257836547357
H           -1.02194170876808        3.30882824342592       -0.02268159182869
H           -3.59376664472563        0.43741940030203       -1.36194740232524
H            3.03495824537294        2.56166420390998        2.24749455403165
H            3.90811770581270       -1.39860043718181        3.25317314226244
H            0.92798418008601       -4.68753556044716        3.87257484194875
H           -3.12133984536182       -3.83197492268439        3.76990112776953
O           -2.62124977853610        4.04135107403085       -1.20635221632569
O           -4.19959145245722        2.58706795220382       -2.12230106440015
C           -5.07318247558644        3.82408528560641       -2.50132600510110
C            5.12376014862368        0.65506124270684        2.60116011690696
O            5.85818895852963       -0.28027871177558        2.28793276215072
O            5.55213889293618        1.97177061961406        2.82560666353467
C            6.94659633627347        2.22913316561221        2.71306680182866
O           -2.82200423532726       -5.92707969824815        4.46973041275177
O           -0.67528957200433       -6.67189795828002        4.38511256652326
C           -1.22278255703894       -7.89964596994855        4.84730286562003
C           -4.25101854399206       -1.54161827989444        1.97512274496834
C           -1.73389215346634       -1.91488702720153       -1.46759009003973
H           -1.56426601892716       -7.67395408497056        5.90716031301888
H           -0.46940182718420       -8.65035347960403        4.81946329490663
H           -2.06492639010733       -8.17833576568782        4.20776950947992
H            7.32168913704782        1.24966832945634        2.61710949296425
H            7.32366236319780        2.78513915477997        3.60719702003150
H            7.00155208641938        2.85811590747668        1.88931748403847
H           -2.00805777348935       -2.84180180109160       -1.82871415613500
H           -0.73823904941816       -1.66313351383534       -1.52269093378951
H           -2.35933600867232       -1.29820410455671       -2.26131138158176
H           -4.03780588108029       -2.12460210897083        1.11391084456175
H           -4.76814377071380       -0.83622811390570        1.50116849313230
H           -4.87676956172485       -2.05517136383507        2.64828218475868
H           -5.89727375554711        3.47616492272988       -3.12372989727196
H           -4.41520586103439        4.43205831204292       -3.12769609203064
H           -5.53713467974971        4.38804748013124       -1.61202338569454
C           -2.39661062226330        4.11740906830346        3.36393645458805
C           -2.50342680359319        2.75901295196034        3.74973543994611
C           -1.43019515196321        2.20616100210538        4.50082813744834
C           -0.16943844762848        2.86070358846216        4.51639532184822
C           -0.13348825878267        4.13919574387693        4.00492402026746
C           -1.26302645922090        4.86212767734246        3.52758180743441
C           -1.66956655777712        0.98586862922277        5.15797459935394
C           -0.55387392027305        0.17468080856418        5.42869871914884
C            0.72321529023345        0.81546352444355        5.17484220350342
N            0.97068065838413        2.08568050365507        4.80056723267204
C           -2.95487721896039        0.58960374338538        5.75202797812421
C           -3.05871716330445       -0.79732598569587        5.87445962126475
N           -1.98706219287450       -1.50545195588879        6.25862245886624
C           -0.73825914789203       -1.01614516194663        6.17634304475933
C            0.49556317065003       -1.60572875436787        6.65645203545571
C            1.75260916908316       -1.08717288809014        6.37132622060053
C            1.85292536514774        0.03521255801525        5.62694727020846
C           -4.07406344191267        1.44938501560554        5.90170278555929
C           -5.40438615381993        0.90115730463275        6.01449127009318
C           -5.54756835185075       -0.51775150466082        6.01017961290120
C           -4.35577721892616       -1.35866722380285        5.93301148668137
O           -3.92303726169574        2.79745603955905        6.10655672677542
O           -3.53785164450015        1.92255390638640        3.40747938273178
C           -1.08298880622995        6.17351387728875        2.83540359527493
C           -6.93134261802641       -1.17409416764781        5.91588363040678
H            0.87894062776779        4.54378798060922        3.86970846396022
H           -3.13568670956370        4.71595958379348        2.91571128372112
H            2.83394370912631        0.31398367751262        5.40542778196463
H            0.64609802711211       -2.51056198396753        7.24838663409556
H           -4.46960747540900       -2.39456696281726        6.19420226556845
H           -6.28436019328266        1.49267205554613        6.05212733026044
O           -1.77836493864743        7.13364540855602        3.19347138273541
O           -0.45763640339876        5.89658359514940        1.68511835764282
C           -0.91717245945264        6.85672846274848        0.72226030736621
C            2.95191174638117       -1.82978595903583        6.85262544195783
O            2.99726924745585       -3.07041907295868        6.79412654285616
O            3.99603884897384       -1.02104670074576        7.31272844307070
C            5.17575548405923       -1.75176512286578        7.47704985414342
O           -7.61309182267667       -0.68638420111317        5.01796257290365
O           -7.34896312316027       -2.20352538339376        6.58740198145666
C           -8.33972382448327       -2.89685193733014        5.89791286255918
C           -5.05238111432605        3.64437017322987        5.90119690085201
C           -4.67863983329980        2.36871292835524        2.69584380132439
H           -7.86352766240288       -2.90685539825912        4.86994415340682
H           -9.25230288091829       -2.32748322665285        5.98582057825802
H           -8.36446520104924       -3.83891316887763        6.39997078688501
H            4.86186250053468       -2.77558412956071        7.97492143282266
H            5.88212905136699       -1.13184972839398        8.18997652113782
H            5.65124186446792       -1.78316020201905        6.42120489938878
H           -5.32487158765719        3.18608226687416        2.91168155140861
H           -5.42372622064869        1.55016652438589        2.48770619938461
H           -4.44163181886120        2.78709412761217        1.76561350599405
H           -4.64052122521997        4.60142965930219        5.97763470977129
H           -5.81972921829465        3.51080088623540        6.61340995851411
H           -5.26130107920892        3.32517546743268        4.90739834242593
H           -1.95457959374803        6.95580001767954        0.73914767265871
H           -0.66019967748672        6.44393713232115       -0.29878129920609
H           -0.48737543627161        7.82489871441776        0.95575536461118
116
 energy: -22.772640627097 gnorm: 0.446349555202 xtb: 6.6.1 (8d0f1dd)
C           -2.51854999378271        0.96332299830900       -0.14390820258565
C           -1.61272769549698       -0.06687741592179        0.26340845694722
C           -0.36705417116003        0.29259511608422        0.88085790370741
C            0.22336976014220        1.64192193689913        0.76872277134119
C           -0.65291067932652        2.57686455169736        0.07194968128028
C           -1.93950932474576        2.23882858462615       -0.30622810478782
C            0.49050198356919       -0.61583678205738        1.64919291376643
C            1.76718627621826       -0.31340086019205        1.99002995147465
C            2.33404212647426        1.02340114360764        1.69324634177266
N            1.54426609059255        1.98959577750402        1.22146088453866
C            0.06146905915526       -1.84367405681983        2.20895468489711
C            1.02360486975617       -2.74954639877284        2.76738152056553
N            2.37144925672044       -2.53193102141992        2.76361804095212
C            2.74130205524128       -1.30595486338964        2.38101406557209
C            4.08346733158353       -0.94351001761396        2.68643206177066
C            4.53092347060756        0.30496741669438        2.49396949174872
C            3.68471044056918        1.29358031576362        2.01871818062555
C           -1.31560047675950       -2.03275804992933        2.61300341509402
C           -1.73193535434775       -3.28564079436271        3.17673994572254
C           -0.77624817626559       -4.25588226201969        3.34608656319277
C            0.55134643066663       -4.00135478962080        3.23048314018840
O           -2.19688381833909       -0.95054743494454        2.38884685307566
O           -1.76866488792050       -1.39955729676495        0.09804251800789
C           -2.74588163385289        3.36358004471138       -0.92760733151382
C           -1.31060786149210       -5.56669673915000        3.93838870076762
H           -0.33833827600880        3.61123856245543       -0.17949385728469
H           -3.56261653611437        1.00178572593387        0.06147533026468
H            4.12898178101474        2.28174705460721        1.97679660132155
H            4.60748199038332       -1.35916393523871        3.43126566749724
H            1.30012805194193       -4.76307653087793        3.49073219097071
H           -2.65611445497029       -3.43450322848397        3.61404296239810
O           -2.16852175664261        4.39627389665226       -1.36799338798685
O           -4.06604016850180        3.15246365590356       -0.71342794922549
C           -4.96418757124051        4.07746926270141       -1.12855953244997
C            5.78729040367847        0.59978538394037        3.27375493709075
O            6.10877268659869        0.35072845283062        4.41011980550914
O            6.58931970174603        1.29044521362234        2.43738237526187
C            7.95373673802453        1.34356190677262        2.91939595758166
O           -2.41983577829489       -5.75823852804193        4.43427804067508
O           -0.34688349592654       -6.58068852776637        3.99183590626753
C           -0.84442640765494       -7.85164201660692        4.31089086022618
C           -3.48357899170986       -0.90314566566580        2.76898982104732
C           -2.99153395622049       -1.70005152954166       -0.50612704590909
H           -0.03581913689235       -8.48782824405809        4.58004236241808
H           -1.10845934272048       -8.31701645893723        3.35477873921954
H           -1.75294143103843       -7.80239851813494        4.92352890418742
H            8.29057294492000        2.41798397986373        2.90701976261703
H            8.65645866324330        0.72317152960268        2.35472168319759
H            7.97744720530934        0.78901067514558        3.96089791315255
H           -3.24845671032998       -2.60460981945753        0.08698639039573
H           -2.89838626664622       -1.82143952898380       -1.61253254048656
H           -3.68622005418911       -1.12734491079279       -0.14999462839912
H           -4.13268041594735       -1.58856350895968        2.30438884627113
H           -3.93701941678879        0.02519940026792        2.67760349446497
H           -3.41923903085407       -1.08303916209806        3.84377809646265
H           -5.73472585120991        3.53403394907788       -1.70044532291440
H           -4.24888214995096        4.67451766040072       -1.78006020269449
H           -5.25270440214725        4.65629684171418       -0.24561723381573
C           -2.97410126103416        4.06589327573847        2.85839049609486
C           -3.38925145240662        2.92335642485782        3.50475710592872
C           -2.34245022674720        2.32047806926260        4.37765113982142
C           -0.93752862772791        2.82565941453362        4.13917891147585
C           -0.67577965722980        4.06142795764241        3.48857766727495
C           -1.71714260159016        4.71376738617799        2.92421132851322
C           -2.47399795190992        1.20027051736667        5.27275576758043
C           -1.32903288580568        0.41496994402434        5.44564906262543
C           -0.04873148802496        0.96314921908762        5.03448007150259
N            0.21026543094706        2.06765889473558        4.37480314326070
C           -3.72308204105282        0.60405936599677        5.77924500203364
C           -3.67489751929957       -0.79410974854888        5.99046321259826
N           -2.57888257648733       -1.43601014685985        6.12679760436894
C           -1.38144019550588       -0.82823391427481        6.11356549523162
C           -0.24656692154237       -1.60153257131838        6.21808794106632
C            0.99214580033843       -0.99341118266957        5.86618843894487
C            1.15545073173765        0.32219803304621        5.33547004252132
C           -5.00378549781949        1.27561623998925        6.00911883302075
C           -6.17450840444873        0.53437415843757        6.08176665920050
C           -6.06904673133274       -0.88788607119378        6.16914085404389
C           -4.88939075272866       -1.52381860636928        6.19787015340416
O           -5.05934752239777        2.71949690221738        5.89246562255428
O           -4.61343007373432        2.31543667535369        3.36985739492785
C           -1.46228021719775        5.71917903953602        1.86389085612365
C           -7.34035201442933       -1.62046859100496        6.32175182242063
H            0.37727144400427        4.22688366775442        3.21901234192272
H           -3.55293901405678        4.62553360912701        2.09993211544372
H            1.98819936320731        0.91341291049293        5.19589812743573
H           -0.24111050846156       -2.65703928978103        6.68452528124907
H           -4.77230823143474       -2.58537268293457        6.18036253398040
H           -7.11332870301045        1.04350720056644        6.13586475216146
O           -2.33391478123645        6.36899101781740        1.26566731291947
O           -0.02950870161054        5.66229782373248        1.55501735433113
C            0.10290452446994        6.13017587368309        0.24809281706175
C            2.20991605375606       -1.68358586171787        6.42862319166360
O            2.22928163980323       -2.34556360372498        7.43572170586003
O            3.29587280737376       -1.44987240964600        5.55529557037477
C            4.46913621751651       -1.47734840177205        6.28066268269497
O           -8.15901147166437       -1.32161662044832        7.11303782309581
O           -7.37550779338671       -2.75517173600506        5.64865105926969
C           -8.46534392552588       -3.46178650795880        6.24848340701397
C           -4.89072521834289        3.50296843812308        7.03796826911066
C           -5.56717826354462        2.93052048429220        2.65799466093171
H           -9.19128872994055       -2.61096012776742        6.57667222409171
H           -8.03266598598560       -3.88675943089549        7.14423279773357
H           -8.73384085551226       -4.34061898877599        5.54759631918803
H            4.72012352190727       -0.56251875324235        6.81000563746696
H            5.29137214625712       -1.70755900130850        5.62589805667107
H            4.55727769653265       -2.21782673436120        7.01889296492032
H           -6.02238685407223        3.71984324487971        3.16137440117472
H           -6.46534335911272        2.38326005394116        2.61676555116636
H           -5.09670113207927        3.09355542931545        1.72204440528906
H           -5.82839413944801        3.55257483469102        7.53314543611828
H           -4.51999147026039        4.40322685886202        6.74503648269512
H           -4.26229295426812        2.91745638389650        7.68423973124305
H           -0.99927304496479        6.03549479691373       -0.20725798281454
H            0.99866889416660        5.73272499600368       -0.22456144107020
H            0.31262875803014        7.21646357799866        0.50538250494740
116
 energy: -22.817322266913 gnorm: 0.432082298717 xtb: 6.6.1 (8d0f1dd)
C           -1.70640029218900        1.27834925270375       -0.58380356274430
C           -1.07513033681338        0.23477441242906        0.10196976006554
C           -0.04301761051484        0.59679895038732        1.01817564264880
C            0.46297863477148        1.88990537055634        1.11959736110039
C           -0.18262606252370        2.85791205708983        0.32795710043870
C           -1.19497844171180        2.61153847702036       -0.59579322603440
C            0.65344249453808       -0.33678888549343        1.84170045291556
C            1.98161115359151       -0.19973022483905        2.09416749468061
C            2.53433839800659        1.12777768330025        1.92827544927242
N            1.79361314952617        2.14154365476961        1.39750482644878
C            0.07063800304433       -1.63013897881737        2.29286120694918
C            1.01365334693170       -2.62145504343208        2.68631335593519
N            2.39305583665724       -2.49199695281112        2.51363138303515
C            2.87466503819046       -1.26391963102622        2.36454893117616
C            4.27155246324668       -0.99983337834673        2.58800397034450
C            4.69304529351331        0.35756844883045        2.49309601658875
C            3.85818809390022        1.44125626563588        2.28903759060129
C           -1.36007684338646       -1.94602716492738        2.38069430037764
C           -1.78978386035886       -3.21134263291523        2.66450938299604
C           -0.88502235678632       -4.22306549447589        3.04075662898071
C            0.47410894586068       -3.86719695845748        3.03257436754455
O           -2.24209672536508       -0.83535466845199        2.44783362792701
O           -1.28468846050553       -1.04069895081328       -0.02950798692002
C           -1.96490865450773        3.70998979806339       -1.35095389696169
C           -1.46710059372428       -5.48958849498058        3.56612714900868
H            0.28763532934670        3.88688729650025        0.29290565690311
H           -2.56800605615414        1.03844745989493       -1.16327333296886
H            4.24673363088782        2.41988319750903        2.04367359361698
H            5.03699476464292       -1.68153388919915        2.76229340994657
H            1.20420497211921       -4.66076829782568        3.04688197931326
H           -2.76353482534342       -3.52564441876755        2.63893703143096
O           -1.83542514036434        4.88227288793850       -1.06353415331295