116
 energy: -22.928061455056 gnorm: 0.329736929581 xtb: 6.6.1 (8d0f1dd)
C           -3.31122850772930        0.79849766164622       -0.92477639677520
C           -2.44380812530352       -0.12270372891954       -0.27661132624697
C           -1.41337090092821        0.39579727573559        0.56335275196199
C           -0.89266158675590        1.65801491088749        0.27377586709581
C           -1.72665675402493        2.51431363229076       -0.49448366572522
C           -2.95444148494349        2.13954154133227       -1.01494489940871
C           -0.74098268209890       -0.43411532818871        1.49825021926784
C            0.56872586496315        0.03782116815119        1.86248088067890
C            1.03782416582094        1.29402317993033        1.50887470833621
N            0.31238977034758        2.07067427098208        0.65193736800696
C           -1.29695700510141       -1.39996043042223        2.41574187746061
C           -0.38243517664656       -2.18060797534842        3.13232615520648
N            0.91308504082021       -1.90366887689689        3.30325166013478
C            1.37712470144904       -0.74872102533751        2.81811050966982
C            2.52149331701875       -0.17739833758153        3.39379298866852
C            2.95849061756259        1.02681208890480        2.95105897606587
C            2.24288949469137        1.78498308775960        2.03503020483770
C           -2.74860936222260       -1.74497937691422        2.38401158947411
C           -3.09416315450955       -2.91614440870436        3.00571134491758
C           -2.16786021984049       -3.77788778654213        3.63251872101904
C           -0.85708937311598       -3.40495313382985        3.68547234358092
O           -3.71994433332149       -0.94984598373544        1.67726658385724
O           -2.55702603277562       -1.47241711578389       -0.57241635275616
C           -3.84297843593025        3.13357444054366       -1.60938954875544
C           -2.68769581069131       -5.03867041417370        4.30484659386931
H           -1.39666850744143        3.51251503834900       -0.76806311868865
H           -4.27662633836220        0.55105838579656       -1.33106614114542
H            2.66329581305412        2.73912661909249        1.72562431984580
H            3.05775395548473       -0.69369546277216        4.16536137542516
H           -0.24710966264510       -4.12034095424229        4.22946223699121
H           -4.11477991332403       -3.04712728052358        3.03244694615357
O           -4.21824883374556        4.03433712717988       -0.87713382485991
O           -4.44510595673734        2.90643496899600       -2.81853501752979
C           -5.44216520282800        3.83300025693726       -3.02488532025093
C            4.23586651889298        1.50004220933226        3.59165660008449
O            5.05927614697201        0.66079890002952        3.91714215179376
O            4.47001334453535        2.86385149488593        3.72605651435371
C            5.79457498613219        3.08584475587818        4.15829123132174
O           -3.82227255313510       -5.27347675879771        4.16636005494405
O           -1.85023202017753       -5.79767454267276        5.06656077253571
C           -2.55119635829503       -6.86252441382958        5.62930343183426
C           -5.07197156564436       -1.42399175670916        1.58830531863830
C           -1.33089900128490       -2.23622472573986       -0.99264499351172
H           -2.54510546830388       -7.76426885143998        4.99136022291012
H           -3.57194749219491       -6.44405511486021        5.74196173723541
H           -2.09133598235598       -7.02043774843818        6.64022264233588
H            5.72707967266424        3.46798026205549        5.10135971236643
H            6.34060091246885        3.78468702308830        3.50069950143490
H            6.17933064298187        2.03010500085905        4.19342358084693
H           -0.91862729772622       -2.57650129080332       -0.01361370304871
H           -0.49769766914251       -1.60651221708571       -1.34094446550576
H           -1.52632419730509       -2.94569707152159       -1.75361447637286
H           -5.11788846557077       -2.41810833635233        1.17520213188926
H           -5.67929807973498       -0.69619639428435        1.04301666067831
H           -5.57598832326623       -1.42383358739762        2.57928294206544
H           -6.13050215934830        3.76035386975488       -2.23272855695873
H           -5.86615610071888        3.45938329385866       -4.02668959924245
H           -5.13479557532099        4.87790991548477       -2.98314551356402
C           -1.38192942069774        3.73616555005018        2.91232598411686
C           -1.84821468128685        2.59982427735607        3.49755545445181
C           -1.05946531454833        2.05730632010638        4.60922730982276
C            0.19893954712228        2.69376791964407        4.86302140881997
C            0.50425395911860        3.94630308659851        4.28768785650746
C           -0.26031777722226        4.46998310053134        3.25072669343212
C           -1.20488993561782        0.74454293276906        5.14851520323437
C           -0.06287609782692        0.02744069315890        5.60930570802864
C            1.19208754369866        0.71421540266195        5.78882868583885
N            1.19428660993148        2.06344359410476        5.62744624321596
C           -2.41361422770794        0.07928500213936        5.25249410304426
C           -2.45851584031083       -1.32662100968547        5.60237876023992
N           -1.29466212405906       -1.98318595734370        5.89916817085159
C           -0.14475655767527       -1.32117560077092        5.98824682881008
C            0.97209270935794       -1.98958449505532        6.53157704134458
C            2.21982707914082       -1.36973967291181        6.68703967237737
C            2.30561929262884       -0.09745313075593        6.26436900324455
C           -3.73018485967715        0.71367583494582        5.25810242262992
C           -4.89964478833448       -0.06184623426677        5.21204641615509
C           -4.82617965800088       -1.39228978090841        5.46901303780036
C           -3.67144193418464       -1.98914944386360        5.67265433266067
O           -3.75568638935321        2.07705011038914        5.52067969627343
O           -2.94192434743730        1.91263938797883        3.01658762327703
C            0.21273512614467        5.50086066357994        2.34765104514621
C           -6.06660304520411       -2.17604633098929        5.80641622556876
H            1.41756699010566        4.38133362238595        4.66974005703471
H           -1.82880610647429        4.11982501512100        2.06992133318584
H            3.26888037378556        0.32655662585251        6.31721410015598
H            0.87146188387207       -3.08471526305024        6.57830423410869
H           -3.67716811065157       -3.05999292755990        5.83019634570050
H           -5.77379677507622        0.43595144608221        4.71017130754348
O            1.34459852619901        5.82615848916894        2.44941456579099
O           -0.74718748219123        6.07961784856304        1.59848183464284
C           -0.21473095568964        7.24015934882472        1.05753806029483
C            3.53228080814219       -2.00967610361154        7.02506769044485
O            3.64093082622715       -3.14437803815732        7.50071391725347
O            4.56565258381079       -1.22937033368332        6.69086985080897
C            5.72579357310716       -1.80692399125161        7.22246151275881
O           -7.04801223588612       -1.95726935745904        5.14194115322235
O           -6.01514389321278       -2.93743591896022        6.94765316328794
C           -7.21292732384718       -3.62681918543340        7.15115816329978
C           -4.95459780685163        2.65960679932188        5.86868674392943
C           -3.68284113682406        2.59129188358641        2.05479246020704
H           -7.43119628931628       -4.22607794725959        6.20622607140901
H           -8.06548455146707       -2.91765848248592        7.29781126410398
H           -7.07314693247270       -4.33087306029711        7.91223421050944
H            6.57332189837178       -1.29353136199234        6.78341268688262
H            5.74663761932316       -2.84282155125561        6.88089468184451
H            5.69426191474290       -1.72781984964892        8.29460302186842
H           -4.10481209541493        3.44288266176275        2.60483747673152
H           -4.49244774344916        1.87419893016926        1.82433103764650
H           -3.18901540870812        2.85154642679373        1.06781919454921
H           -5.55414326821421        2.76698137191684        4.93950725322359
H           -4.78658370641210        3.62090640967288        6.25983200635257
H           -5.43485580473958        1.97242995129449        6.65265772412460
H            0.89164886030839        7.38838561720231        1.13776105146914
H           -0.62894889903848        8.04195665205089        1.64837664327952
H           -0.59282546386754        7.45699159724320        0.03719083132488
116
 energy: -22.622788827489 gnorm: 0.567884647968 xtb: 6.6.1 (8d0f1dd)
C           -2.68021809523355        0.60379577439664       -1.45300683114130
C           -2.19413750793261       -0.46862825599460       -0.62823625813562
C           -1.40591464555720       -0.08169273652801        0.47321546530717
C           -1.01382220521624        1.25093787162584        0.62449398793003
C           -1.54782737354794        2.28354419637787       -0.22617696861112
C           -2.29503664648019        1.95671783483700       -1.23612175590818
C           -1.10592318341456       -0.95240959050127        1.58607923285145
C            0.05953847369608       -0.59879608777276        2.22832824788919
C            0.54187318629734        0.77016982227734        2.15665099928395
N           -0.11850018889375        1.65220938088768        1.41025772593675
C           -1.57849606811434       -2.29250368536586        1.85972381200490
C           -0.78323092339606       -3.05681408714289        2.80356534140729
N            0.53889502791657       -2.73237181275780        3.16158603042852
C            0.83020384708939       -1.49694550142216        3.04236470301206
C            2.13845586068963       -1.10459235501901        3.32009880117613
C            2.66948540986970        0.08605124502411        3.10526602337782
C            1.85854690657539        1.08156503480897        2.58901005384227
C           -2.90131524429439       -2.80250310112578        1.68171990601905
C           -3.12366138174185       -4.21042990103791        2.05608620607446
C           -2.31099108574352       -4.86734892126966        2.85425089775915
C           -1.10988912732656       -4.25730228135779        3.29991346432798
O           -3.91073924936697       -2.04778083167838        1.06095839387252
O           -2.43276968036054       -1.76777212803026       -1.01591860319564
C           -3.07354892968030        3.00047724446580       -1.90006092040239
C           -2.94505559417419       -6.18260208395009        3.41931892377926
H           -1.33466329651362        3.25570485613870        0.01078839507595
H           -3.24119468990005        0.24603439371194       -2.26257838511612
H            2.25211399633070        1.88488745142569        2.18780239593179
H            2.82343175838294       -1.80249552145918        3.74988077655519
H           -0.84623174749009       -4.86338714099096        4.12106210748241
H           -3.69151726365155       -4.61979216505877        1.23606573409411
O           -2.76108745627391        4.09182094178569       -1.49644007785471
O           -4.24248180335786        2.66874165529553       -2.53326844645408
C           -4.98049402604793        3.67656780234310       -3.18190722589749
C            4.06315603886891        0.63573940873711        3.36109830178692
O            5.08400564007190       -0.06295062834740        3.30923915217884
O            4.20338093349249        2.04639067188291        3.17171824768854
C            5.43263239050673        2.64478652774568        2.96500557150648
O           -3.87079800566778       -6.70482391504643        2.76142850993926
O           -2.81160404440159       -6.73373471114067        4.65106729101838
C           -4.01588974545607       -7.41234544795774        5.04849961255080
C           -5.30753829003850       -2.28571866175378        1.31812530158757
C           -2.97101823439020       -1.99852626137861       -2.24757165892991
H           -3.95257972028052       -7.52622810807523        6.06000833075350
H           -4.11684111230390       -8.49522434863166        4.83198532451385
H           -4.92100740700261       -6.89801283897119        4.55942197589603
H            5.93233339352612        3.19123009218096        3.75546015980116
H            5.32121399381677        3.04138997439170        1.93691688002270
H            6.16473814895682        1.81259976113646        2.59609011138704
H           -4.09567431481635       -1.93624562233400       -2.15824797215247
H           -3.03840090822580       -3.12185431324228       -2.18375056165088
H           -2.45036473088834       -1.45362340010663       -3.11758579770335
H           -5.52092711536195       -2.97210877068258        0.51013818701777
H           -5.76976669379354       -1.32880333772744        1.46126840045127
H           -5.34895766632111       -2.71068774982147        2.35932294032060
H           -5.42430399863245        4.59919077165527       -2.59005509105469
H           -5.76597587247178        3.31130244946789       -3.67980813645434
H           -4.35779027662101        3.94606789348372       -3.99165969058932
C           -1.54817779422889        4.28029496263258        3.31432622738859
C           -1.63962219111464        3.07176412330820        3.98255565527450
C           -0.71420741544196        2.85893299724336        5.14514853415674
C            0.45773844773444        3.69339300540965        5.36643611837308
C            0.36930428841562        4.93656441775826        4.71706616698358
C           -0.31491918198938        5.06486153306099        3.60211605256469
C           -0.92435991694876        1.71797746535403        6.02258872612767
C            0.33377833375782        1.04367423794619        6.09248916504804
C            1.49678825059783        1.85276481444763        6.31954429295841
N            1.51876046051442        3.19885204180717        6.07285069939718
C           -2.13638542758944        0.84064522220857        6.07394746332365
C           -1.90367048915384       -0.54157861754516        5.88770769747222
N           -0.69962854216736       -1.20342534193447        5.98472098112257
C            0.39063143753941       -0.39446049162182        6.29443366866651
C            1.63407226021978       -1.05164173530798        6.61207797997017
C            2.68995992110632       -0.20372812528301        6.92259149545143
C            2.69992491912454        1.17689554044361        6.83126635891840
C           -3.47149285599279        1.34521911334965        5.93631120140405
C           -4.52272979966538        0.36764047090109        5.61603559207985
C           -4.40626736812903       -1.01068401927442        5.52875064143550
C           -3.04346887104878       -1.41334093991926        5.78678182022343
O           -3.91313055247987        2.67587333809117        6.27467806674786
O           -2.31565866505698        1.94893238011145        3.64892343537633
C           -0.22891926649846        6.19136871171292        2.60462239261166
C           -5.62802993570905       -1.78027853024924        5.40014627947033
H            1.12630836950566        5.66900666536090        4.94744765815535
H           -2.09525482832441        4.12933073458217        2.41189609269290
H            3.62513072227548        1.58723727026153        7.14001339406573
H            1.71784186710866       -2.02382799769243        6.96645472785917
H           -2.89088091847670       -2.42318398829667        5.68895302030759
H           -5.45527635319099        0.83017894894247        5.65027208145234
O           -0.39821664440667        7.43664804185590        2.78412951979216
O           -0.10066725077345        5.60110072151487        1.35314598705208
C           -0.82338051284386        6.34278270053961        0.47721297327017
C            3.85757745063979       -0.76265896906876        7.65581374161576
O            3.96206866017283       -1.92392284130930        7.73410548037689
O            4.75945289348514        0.12622834938577        8.16946814016627
C            5.66028096589873       -0.63185109502928        8.86374581620480
O           -6.43321862025738       -1.10622342520071        4.80145873228223
O           -5.84339972983762       -2.99158838497340        5.95619848602099
C           -7.01826925270176       -3.49051914968912        5.48806957437216
C           -3.91561735260573        3.06836038768506        7.69589596200699
C           -3.54870867768388        2.02561225035686        2.91837051875080
H           -7.08171041418120       -4.55856386783240        5.56204753171044
H           -7.34625255248899       -3.12613741876174        4.39371030009449
H           -7.70929712854476       -3.03815565173463        6.14707092851517
H            6.05307675631351        0.19430911034459        9.59670023218838
H            6.41394362550517       -1.00337937097281        8.16029697980209
H            5.09455844161018       -1.37073367583555        9.30366501681153
H           -4.39660737499065        2.40323115315413        3.47538065671466
H           -4.01032710100707        1.04113085285655        2.75481939213630
H           -3.59931101288652        2.39298473914103        1.94644528989465
H           -3.28709529295640        3.94738584309831        7.84119150351991
H           -3.59854943900785        2.51800662030287        8.48008526627958
H           -5.07669321177349        3.25809846732093        7.85881538136375
H           -0.11003939854713        7.23902684356157        0.37808398699371
H           -1.75014832443764        6.62453183750394        0.95486445082356
H           -1.35074245550910        5.77681662692824       -0.30770575711706
116
 energy: -22.650259364683 gnorm: 0.505605281232 xtb: 6.6.1 (8d0f1dd)
C           -2.64220560305706        0.66103067427025       -1.67564951878188
C           -1.91759693265711       -0.47126892421665       -1.10050321134097
C           -1.20731087285464       -0.11764468891921        0.05864323639935
C           -0.73005386380046        1.22383839951648        0.31364314451795
C           -1.22496558007648        2.19073050027229       -0.50317718689503
C           -2.14787081045245        1.90346286724882       -1.53820066771584
C           -0.98359520585296       -0.96367437953650        1.22265299009009
C            0.32185238641502       -0.75619976114426        1.83594413617203
C            0.85989383502394        0.52939660128304        1.79635522377311
N            0.18213423549357        1.52875537029429        1.32036015750068
C           -1.74412979468415       -1.93991991169793        1.91596858383267
C           -1.07516064795498       -2.95602194766410        2.69034345078461
N            0.23810929070422       -2.87946430722344        3.01617113754458
C            0.87029605866650       -1.75329811940331        2.73107459358826
C            2.06327615443620       -1.39160687330805        3.34944463653966
C            2.61653917756002       -0.16309492066698        3.20916934238512
C            1.98858957531251        0.89853451945978        2.43017408197189
C           -3.22258974405037       -2.09963048462952        1.93478411359450
C           -3.90234884015037       -3.24816127242281        2.27545157807828
C           -3.12219804485627       -4.40542791107822        2.57930541123934
C           -1.76185855579901       -4.22742675172209        2.83927475010347
O           -4.07950414921247       -0.89687336527751        2.00804056400838
O           -2.21572794439054       -1.61752337179177       -1.66453866617188
C           -2.91733597386568        3.15954697166092       -2.06762599988364
C           -3.72643805176917       -5.76499186416123        2.27298571051139
H           -1.18551267103037        3.17335074152727       -0.14823331826822
H           -3.42316016828928        0.55013765356987       -2.37047267924188
H            2.27220994466240        1.86631086302675        2.26777150991455
H            2.56992154544978       -2.16295643022641        3.97178628949123
H           -1.14402380631566       -5.01952876996755        3.08216750529261
H           -4.91479196325599       -3.44732375608545        2.43777494994490
O           -2.58707062019300        4.17465500172035       -1.42164257716253
O           -4.06666175214499        2.99155111234984       -2.76063436250517
C           -4.47535879803618        4.17841902501521       -3.40329920525790
C            3.95620017774912       -0.14425950858187        3.74646593471226
O            4.55720962999035       -1.24220078420573        4.01127590500202
O            4.53520747451487        1.09774718572719        3.64703412753151
C            5.72086693294717        1.30227246135237        4.45115397649498
O           -4.83630633358117       -5.99218916578574        2.61110453888157
O           -2.78460657981429       -6.85254082854467        1.87619896369021
C           -3.29965922600609       -8.24023509042955        1.76478603203829
C           -5.50109739418415       -1.22250477445808        2.12270736907722
C           -1.66353238139153       -2.66476199207995       -0.87425893192465
H           -3.72017606654914       -8.41394065586584        2.74638138679631
H           -2.53462627354641       -9.06167054747211        1.47269005163319
H           -4.04266886539177       -8.31387133292383        0.90072427299426
H            5.31102524798178        1.71311984943612        5.34744533984526
H            6.30635506931831        2.00252745088122        3.99614292524275
H            6.17859048083834        0.39609193649939        4.81813182564078
H           -2.41542554124495       -2.97152476860989       -0.12774605340794
H           -0.66657688035971       -2.47446082229021       -0.19228633709479
H           -1.39384500265916       -3.36825493961134       -1.80976892252119
H           -5.45353204975327       -1.70485403563805        3.08358824861025
H           -5.98068852652080       -2.04394042451473        1.45509104820985
H           -6.10463110291619       -0.41650853398884        1.99691838175865
H           -5.43456523227399        4.28139461092089       -2.92964148445039
H           -4.66050942227028        3.76600704261488       -4.43136733408811
H           -3.67279828599508        4.91942915832944       -3.52305846167705
C           -1.75732394850729        3.76198035111765        2.78362208582065
C           -1.90120413008096        2.53384827495625        3.45947290385017
C           -0.85866435497559        2.15974269311593        4.35447177565294
C            0.35625469232095        2.88862640372894        4.23194535303094
C            0.43098263362674        4.13608353268599        3.59287935040694
C           -0.61623728183001        4.55515050511339        2.79528854816291
C           -0.98807972821294        1.31303406287893        5.66436300213822
C            0.24402444468928        1.02127878460017        6.34512456963161
C            1.38899906584822        1.80044277764524        6.05158267647999
N            1.34781099994356        2.72215553461921        5.08963515556819
C           -2.09580873978988        0.67228329219041        6.24543783014752
C           -1.85336520843877       -0.61059718484746        6.81026349641360
N           -0.69991834757930       -0.98769558904682        7.39795060856370
C            0.24391977335963       -0.06046872533266        7.31349708099598
C            1.48210420290436       -0.35437811977700        7.87576648977073
C            2.55583067917678        0.47571689067430        7.65114880789988
C            2.59637391211147        1.44013233779859        6.63172795116385
C           -3.38475890378635        1.15906222357479        6.21971356971435
C           -4.47530012204771        0.34587191619100        6.38250541417379
C           -4.22676010074426       -1.02002772060204        6.45471841920098
C           -2.90937435761430       -1.53438663717341        6.57289297499864
O           -3.79651998434344        2.49997927269978        6.00951574031043
O           -3.06681858039649        1.84531628984892        3.20737167963400
C           -0.49406684775306        5.62620151359612        1.82320423904929
C           -5.45170386411592       -1.84826353523581        6.68725511359131
H            1.45989594157737        4.46945848454020        3.48041709658885
H           -2.51981076287379        4.02136580184010        2.08027168050393
H            3.32210237297420        2.19986943279646        6.56174102030196
H            1.44155119854183       -1.04520718090591        8.71278059868728
H           -2.92255902212111       -2.59098076493467        6.69790490682037
H           -5.48183264991885        0.77915438227300        6.38677269243580
O           -0.01318465873966        5.45514173311203        0.64698470713243
O           -1.24772590973139        6.79515327884362        2.12569704863725
C           -1.65415341995460        7.63719977004871        1.14110512591769
C            3.85733441037365        0.22194524225738        8.21886662325954
O            4.10377247746445       -0.31896184407603        9.34422509190298
O            4.92429085278416        0.89618685112045        7.62366915066634
C            6.15763887167346        0.97802026934456        8.42709929831866
O           -6.55876452717685       -1.40555335691730        6.94013332814169
O           -5.29892862771592       -3.25573441163476        6.72931602535514
C           -6.49522659761937       -3.92337448908329        6.89116167025768
C           -4.32860741123669        2.82901025031695        7.33476462740566
C           -3.47007448400224        1.65747084276628        1.82005284812039
H           -6.85165318495443       -3.89414444878320        5.87017758251301
H           -7.10809448986128       -3.44540202707185        7.50592934903821
H           -6.29961243786712       -4.80103209887448        7.43637548795488
H            5.81007181063101        1.65932488802024        9.17748029857270
H            6.99129267091176        1.58159821671132        7.90301444250506
H            6.52829864873482        0.10575989897548        8.77053336557777
H           -4.47078615594680        1.27511905283115        1.95669582619349
H           -2.74724818217532        1.03401229232204        1.27484170810510
H           -3.49315131572302        2.66772060898191        1.37899076817415
H           -3.81805469526083        2.23220611846791        7.98692421447764
H           -5.40793856543761        2.50144899086595        7.05357142670085
H           -4.19312526270602        3.88727109020730        7.76801481148625
H           -2.45871092893943        8.35385110759371        1.40838407252735
H           -2.18644563606420        6.98163359773751        0.50532991808104
H           -0.66682472042463        8.00169067230120        0.64953940432468
116
 energy: -22.658487784069 gnorm: 0.534158695313 xtb: 6.6.1 (8d0f1dd)
C           -2.25391733287742        0.75927476765792       -1.30814403871651
C           -2.05218720211366       -0.38713253525989       -0.50549691081046
C           -1.54230130984712       -0.24944865925920        0.86595263123469
C           -0.75152847688944        0.94216577180806        1.05553802940828
C           -1.35079268890773        2.08460753632527        0.37993280659564
C           -2.09909351994177        2.04162646048789       -0.73430834293451
C           -1.13512193761655       -1.17884938549009        1.83952792719473
C            0.00998624525833       -1.10186779887583        2.53045606822474
C            0.61344261884918        0.16687247282481        2.60183114718610
N            0.02420399258887        1.22139335484243        2.04151949175008
C           -1.91078578446457       -2.35845376311111        2.03187657362974
C           -1.16551941125406       -3.55250350199310        2.40127807929860
N            0.17402483873311       -3.43468951867128        2.65961187617868
C            0.68932962422889       -2.22315928312229        2.96860039268565
C            1.87858083357813       -2.14625530991745        3.73271945369018
C            2.48110482482775       -0.82212090086360        3.84789066490446
C            1.82351957866874        0.36266931156417        3.30285122327117
C           -3.35742661138542       -2.49683400763142        1.71606116111887
C           -3.90538369230456       -3.88115760758918        1.66707633107608
C           -3.07892893486556       -4.95984539910375        1.94017347136027
C           -1.70443949310201       -4.79792352880505        2.34035078347117
O           -4.05318773932424       -1.44958416716209        1.63934914102742
O           -2.44465629641113       -1.65109543239795       -0.89514773612844
C           -2.43501899558139        3.20604192196025       -1.56661210851155
C           -3.50468901310948       -6.44922379316525        1.62270567460491
H           -1.03080503488698        3.09408208134077        0.73222275097180
H           -2.48280138855064        0.74564976412623       -2.38737695358734
H            2.27618582357200        1.25076738284783        3.48897559104737
H            2.05022630224510       -3.04772012783247        4.55056483446427
H           -1.28944392289821       -5.70239219424311        2.60666516751185
H           -4.86227126062467       -4.17766170131370        1.30548287454137
O           -2.58597759128652        4.22558070667537       -0.94288525869312