282
 energy: -418.521820666832 gnorm: 0.138848298103 xtb: 6.7.1 (edcfbbe)
C           -3.14100000000000       -2.90120000000000        1.51450000000000
C           -3.63640000000000       -1.75190000000000        0.88740000000000
C           -4.28150000000000       -1.87440000000000       -0.38020000000000
C           -4.66030000000000       -3.17980000000000       -0.78250000000000
C           -4.16770000000000       -4.28920000000000       -0.11130000000000
C           -3.36340000000000       -4.17080000000000        1.01710000000000
C           -4.62320000000000       -0.72480000000000       -1.18120000000000
C           -5.74000000000000       -0.88390000000000       -2.07990000000000
C           -6.25090000000000       -2.16340000000000       -2.40450000000000
C           -5.62570000000000       -3.36930000000000       -1.86430000000000
C           -3.90960000000000        0.53860000000000       -1.17450000000000
C           -4.53100000000000        1.66230000000000       -1.78470000000000
C           -5.86830000000000        1.57360000000000       -2.37560000000000
C           -6.38210000000000        0.23740000000000       -2.64670000000000
C           -7.49450000000000        0.07740000000000       -3.45690000000000
C           -8.00130000000000       -1.17650000000000       -3.76820000000000
C           -7.35210000000000       -2.28170000000000       -3.23730000000000
C           -2.56790000000000        0.74130000000000       -0.67610000000000
C           -1.96650000000000        1.99710000000000       -0.85300000000000
C           -2.59790000000000        3.07870000000000       -1.42460000000000
C           -3.89350000000000        2.88900000000000       -1.87160000000000
O           -3.53910000000000       -0.52110000000000        1.49840000000000
O           -1.80120000000000       -0.16870000000000        0.04280000000000
B           -2.12650000000000       -0.09760000000000        1.49630000000000
C            0.34360000000000       -2.23180000000000        3.29140000000000
C           -0.04280000000000       -1.24350000000000        2.37010000000000
C            0.89920000000000       -0.78940000000000        1.37620000000000
C            1.92210000000000       -1.74500000000000        1.08140000000000
C            2.21970000000000       -2.77280000000000        1.96650000000000
C            1.50420000000000       -2.96290000000000        3.14170000000000
C            0.97750000000000        0.54160000000000        0.78460000000000
C            1.93580000000000        0.70980000000000       -0.28760000000000
C            2.63310000000000       -0.38730000000000       -0.86120000000000
C            0.42040000000000        1.76240000000000        1.36940000000000
C            1.11550000000000        2.99540000000000        1.15860000000000
C            2.05240000000000        3.16560000000000        0.05620000000000
C            2.31280000000000        1.99260000000000       -0.76320000000000
C            3.10820000000000        2.12730000000000       -1.89160000000000
C            3.63120000000000        1.03120000000000       -2.56030000000000
C            3.41870000000000       -0.21680000000000       -1.99260000000000
C           -0.77210000000000        1.90610000000000        2.18430000000000
C           -0.85430000000000        2.98880000000000        3.08320000000000
C           -0.00510000000000        4.07480000000000        3.02070000000000
C            0.92100000000000        4.08730000000000        1.99020000000000
O           -1.95940000000000        1.24100000000000        2.03090000000000
O           -1.36420000000000       -0.93960000000000        2.40760000000000
C            2.70830000000000       -1.65110000000000       -0.14370000000000
O            2.62170000000000        4.23100000000000       -0.14820000000000
O            3.43650000000000       -2.56150000000000       -0.51710000000000
O           -5.93490000000000       -4.48500000000000       -2.26150000000000
O           -6.50960000000000        2.57660000000000       -2.66260000000000
C           -2.67760000000000       -5.38070000000000        1.66570000000000
C           -2.85210000000000       -5.33790000000000        3.19490000000000
C           -1.18180000000000       -5.32870000000000        1.31320000000000
C           -3.26430000000000       -6.70960000000000        1.15300000000000
C           -1.89140000000000        4.44010000000000       -1.47990000000000
C           -2.67830000000000        5.45700000000000       -2.32790000000000
C           -1.76240000000000        4.98600000000000       -0.04800000000000
C           -0.49200000000000        4.27540000000000       -2.10230000000000
C           -9.23930000000000       -1.37020000000000       -4.65720000000000
C           -8.86080000000000       -2.22300000000000       -5.88200000000000
C           -9.79970000000000       -0.02420000000000       -5.15650000000000
C          -10.33790000000000       -2.08410000000000       -3.84800000000000
C            1.91330000000000       -3.99640000000000        4.19750000000000
C            1.06520000000000       -5.26500000000000        4.03240000000000
C            1.69690000000000       -3.40380000000000        5.60450000000000
C            3.39940000000000       -4.37180000000000        4.04950000000000
C           -0.08450000000000        5.20480000000000        4.05380000000000
C            0.59530000000000        4.71970000000000        5.34270000000000
C            0.63340000000000        6.47620000000000        3.56050000000000
C           -1.55320000000000        5.56880000000000        4.34230000000000
C            4.51140000000000        1.23700000000000       -3.80070000000000
C            5.81670000000000        1.93650000000000       -3.38210000000000
C            4.86180000000000       -0.10340000000000       -4.47580000000000
C            3.75980000000000        2.10900000000000       -4.82460000000000
H            5.43350000000000        0.06020000000000       -5.39040000000000
H            3.95880000000000       -0.65390000000000       -4.74190000000000
H            5.46740000000000       -0.72980000000000       -3.82030000000000
H            6.47200000000000        2.08940000000000       -4.24070000000000
H            6.35630000000000        1.33800000000000       -2.64710000000000
H            5.61550000000000        2.91070000000000       -2.93600000000000
H            4.35110000000000        2.24550000000000       -5.73100000000000
H            3.53930000000000        3.09720000000000       -4.42130000000000
H            2.81440000000000        1.64360000000000       -5.10550000000000
H            0.51860000000000        7.28940000000000        4.27850000000000
H            0.22190000000000        6.81110000000000        2.60770000000000
H            1.70270000000000        6.30420000000000        3.43400000000000
H           -1.61680000000000        6.42460000000000        5.01520000000000
H           -2.08390000000000        4.74600000000000        4.81770000000000
H           -2.07720000000000        5.82400000000000        3.42070000000000
H            0.51510000000000        5.47040000000000        6.12840000000000
H            1.65280000000000        4.51380000000000        5.17230000000000
H            0.13410000000000        3.79890000000000        5.69900000000000
H           -1.22920000000000        5.93690000000000       -0.03470000000000
H           -1.21830000000000        4.28650000000000        0.58380000000000
H           -2.74490000000000        5.13960000000000        0.39930000000000
H           -2.14070000000000        6.40380000000000       -2.39450000000000
H           -3.65440000000000        5.66570000000000       -1.88910000000000
H           -2.82730000000000        5.08690000000000       -3.34270000000000
H            0.01880000000000        5.23580000000000       -2.17500000000000
H           -0.56160000000000        3.85120000000000       -3.10420000000000
H            0.13560000000000        3.61770000000000       -1.50430000000000
H          -11.23900000000000       -2.22190000000000       -4.44730000000000
H          -10.60560000000000       -1.50240000000000       -2.96510000000000
H          -10.00690000000000       -3.06700000000000       -3.51260000000000
H          -10.67510000000000       -0.17890000000000       -5.78880000000000
H           -9.05810000000000        0.51510000000000       -5.74680000000000
H          -10.10400000000000        0.60850000000000       -4.32200000000000
H           -9.71800000000000       -2.36160000000000       -6.54240000000000
H           -8.50760000000000       -3.21010000000000       -5.58400000000000
H           -8.06710000000000       -1.74260000000000       -6.45520000000000
H            1.34930000000000       -6.02490000000000        4.76140000000000
H            1.20390000000000       -5.68990000000000        3.03840000000000
H            0.00600000000000       -5.04470000000000        4.16330000000000
H            2.08330000000000       -4.06990000000000        6.37580000000000
H            0.64100000000000       -3.23690000000000        5.81270000000000
H            2.20750000000000       -2.44570000000000        5.70000000000000
H            3.71970000000000       -5.02210000000000        4.86270000000000
H            4.02670000000000       -3.48140000000000        4.06470000000000
H            3.58420000000000       -4.90430000000000        3.11670000000000
H           -2.41400000000000       -6.21950000000000        3.66470000000000
H           -3.90830000000000       -5.30080000000000        3.46190000000000
H           -2.37000000000000       -4.46180000000000        3.62530000000000
H           -2.79960000000000       -7.55840000000000        1.65680000000000
H           -3.09150000000000       -6.83100000000000        0.08340000000000
H           -4.33780000000000       -6.75950000000000        1.33820000000000
H           -0.65160000000000       -6.18290000000000        1.73400000000000
H           -0.72290000000000       -4.41610000000000        1.69390000000000
H           -1.04000000000000       -5.34210000000000        0.23230000000000
H           -4.43660000000000       -5.25790000000000       -0.49000000000000
H           -2.57880000000000       -2.75960000000000        2.41810000000000
H           -7.70960000000000       -3.27090000000000       -3.45930000000000
H           -7.95400000000000        0.96540000000000       -3.84960000000000
H           -4.43340000000000        3.69810000000000       -2.32800000000000
H           -0.97440000000000        2.11340000000000       -0.46500000000000
H           -1.67330000000000        2.98740000000000        3.77780000000000
H            1.52240000000000        4.95980000000000        1.81230000000000
H           -0.34910000000000       -2.47240000000000        4.07710000000000
H            3.04820000000000       -3.41280000000000        1.72440000000000
H            3.36030000000000        3.12160000000000       -2.21430000000000
H            3.91060000000000       -1.08560000000000       -2.39010000000000
C           -0.82730000000000       -2.88130000000000        8.84480000000000
C           -0.96210000000000       -1.50830000000000        8.58510000000000
C           -1.56920000000000       -1.08170000000000        7.35150000000000
C           -2.10300000000000       -2.10910000000000        6.53010000000000
C           -1.93140000000000       -3.44640000000000        6.84200000000000
C           -1.27940000000000       -3.86210000000000        7.98860000000000
C           -1.76180000000000        0.30000000000000        6.96760000000000
C           -2.76380000000000        0.58660000000000        5.96680000000000
C           -3.29880000000000       -0.42320000000000        5.13930000000000
C           -2.94210000000000       -1.81330000000000        5.37240000000000
C           -1.04390000000000        1.43130000000000        7.51770000000000
C           -1.61850000000000        2.72730000000000        7.43430000000000
C           -2.81190000000000        2.97660000000000        6.63530000000000
C           -3.25190000000000        1.89650000000000        5.76680000000000
C           -4.15800000000000        2.17200000000000        4.75870000000000
C           -4.64000000000000        1.18820000000000        3.91180000000000
C           -4.19220000000000       -0.10790000000000        4.12790000000000
C            0.27240000000000        1.35490000000000        8.08560000000000
C            0.81980000000000        2.50590000000000        8.67030000000000
C            0.18470000000000        3.72820000000000        8.69370000000000
C           -1.03440000000000        3.82100000000000        8.04710000000000
O           -0.48270000000000       -0.65460000000000        9.56430000000000
O            1.03410000000000        0.20040000000000        8.07680000000000
B            0.98620000000000       -0.49770000000000        9.38040000000000
C            3.15560000000000       -3.53870000000000        9.18290000000000
C            2.83040000000000       -2.19920000000000        8.91330000000000
C            3.65350000000000       -1.43920000000000        8.01000000000000
C            4.43990000000000       -2.24040000000000        7.12680000000000
C            4.67630000000000       -3.58170000000000        7.38400000000000
C            4.10550000000000       -4.23580000000000        8.46430000000000
C            3.76040000000000        0.01290000000000        7.93070000000000
C            4.28230000000000        0.55070000000000        6.69630000000000
C            4.66950000000000       -0.28860000000000        5.62150000000000
C            3.62610000000000        0.94570000000000        9.04490000000000
C            4.30230000000000        2.20590000000000        8.95440000000000
C            4.56650000000000        2.81870000000000        7.65380000000000
C            4.46740000000000        1.94270000000000        6.49660000000000
C            4.69820000000000        2.44220000000000        5.22360000000000
C            4.84000000000000        1.60620000000000        4.12320000000000
C            4.90580000000000        0.24100000000000        4.36390000000000
C            2.90490000000000        0.77070000000000       10.29580000000000
C            3.37840000000000        1.44340000000000       11.43970000000000
C            4.30610000000000        2.46660000000000       11.36750000000000
C            4.66250000000000        2.90380000000000       10.09850000000000
O            1.65150000000000        0.24340000000000       10.43750000000000
O            1.63380000000000       -1.80270000000000        9.41940000000000
C            4.95800000000000       -1.69110000000000        5.88090000000000
O            4.86890000000000        3.99850000000000        7.55030000000000
O            5.60530000000000       -2.36960000000000        5.09740000000000
O           -3.38960000000000       -2.71160000000000        4.67580000000000
O           -3.38830000000000        4.05460000000000        6.65800000000000
C           -1.16110000000000       -5.36000000000000        8.30100000000000
C           -0.26750000000000       -5.61170000000000        9.52860000000000
C           -0.54080000000000       -6.09160000000000        7.09820000000000
C           -2.56330000000000       -5.92590000000000        8.58090000000000
C            0.82790000000000        4.91930000000000        9.41500000000000
C           -0.04250000000000        6.18580000000000        9.30980000000000
C            0.99000000000000        4.56080000000000       10.90130000000000
C            2.20490000000000        5.22340000000000        8.79920000000000
C           -5.55170000000000        1.57470000000000        2.73520000000000
C           -6.24900000000000        0.34480000000000        2.12020000000000
C           -4.68880000000000        2.25250000000000        1.65720000000000
C           -6.64690000000000        2.54970000000000        3.20630000000000
C            4.40430000000000       -5.71620000000000        8.73420000000000
C            3.59750000000000       -6.57890000000000        7.75110000000000
C            4.02330000000000       -6.10640000000000       10.17580000000000
C            5.90870000000000       -5.99280000000000        8.54860000000000
C            4.79140000000000        3.17620000000000       12.63870000000000
C            5.07810000000000        2.13780000000000       13.74060000000000
C            6.09190000000000        3.95910000000000       12.37270000000000
C            3.71030000000000        4.15360000000000       13.12320000000000
C            5.01530000000000        2.17290000000000        2.70850000000000
C            6.50120000000000        2.46960000000000        2.46100000000000
C            4.51240000000000        1.16420000000000        1.65600000000000
C            4.19510000000000        3.46910000000000        2.55200000000000
H            4.52950000000000        1.60300000000000        0.65920000000000
H            3.48810000000000        0.86340000000000        1.87220000000000
H            5.12930000000000        0.26790000000000        1.62330000000000
H            6.65550000000000        2.87670000000000        1.46230000000000
H            7.09630000000000        1.56180000000000        2.55360000000000
H            6.87730000000000        3.19190000000000        3.18460000000000
H            4.17740000000000        3.80360000000000        1.51460000000000
H            4.60370000000000        4.28040000000000        3.15160000000000
H            3.16570000000000        3.30280000000000        2.86470000000000
H            6.48720000000000        4.37930000000000       13.29730000000000
H            5.92390000000000        4.78770000000000       11.68620000000000
H            6.85540000000000        3.30930000000000       11.94610000000000
H            4.01870000000000        4.65360000000000       14.04090000000000
H            2.77390000000000        3.63330000000000       13.32160000000000
H            3.52160000000000        4.91890000000000       12.37160000000000
H            5.48640000000000        2.61720000000000       14.63010000000000
H            5.80040000000000        1.39920000000000       13.39440000000000
H            4.17330000000000        1.61090000000000       14.03910000000000
H            1.41380000000000        5.39460000000000       11.45930000000000
H            1.64360000000000        3.69920000000000       11.02650000000000
H            0.02590000000000        4.31300000000000       11.34400000000000
H            0.42120000000000        7.01800000000000        9.83860000000000
H           -1.02620000000000        6.02230000000000        9.74850000000000
H           -0.17330000000000        6.48750000000000        8.27140000000000
H            2.68090000000000        6.06440000000000        9.30170000000000
H            2.11720000000000        5.46890000000000        7.74270000000000
H            2.87320000000000        4.37020000000000        8.87960000000000
H           -7.33420000000000        2.78020000000000        2.39300000000000
H           -6.22520000000000        3.49160000000000        3.55240000000000
H           -7.22340000000000        2.11580000000000        4.02250000000000
H           -5.28050000000000        2.51860000000000        0.78230000000000
H           -3.89360000000000        1.57890000000000        1.34020000000000
H           -4.21560000000000        3.15530000000000        2.04020000000000
H           -6.93890000000000        0.64460000000000        1.33200000000000
H           -6.81290000000000       -0.20350000000000        2.87350000000000
H           -5.52750000000000       -0.33240000000000        1.66990000000000
H            3.77800000000000       -7.63960000000000        7.92200000000000
H            3.86980000000000       -6.35330000000000        6.72160000000000
H            2.53010000000000       -6.39530000000000        7.86300000000000
H            4.33140000000000       -7.12870000000000       10.39420000000000
H            2.94690000000000       -6.05340000000000       10.33220000000000
H            4.50830000000000       -5.44890000000000       10.89660000000000
H            6.14860000000000       -7.02460000000000        8.80420000000000
H            6.50180000000000       -5.34050000000000        9.18870000000000
H            6.22160000000000       -5.83090000000000        7.51850000000000
H           -0.15070000000000       -6.67950000000000        9.71190000000000
H           -0.69520000000000       -5.16840000000000       10.42700000000000
H            0.72380000000000       -5.19070000000000        9.37290000000000
H           -2.51590000000000       -6.98890000000000        8.81510000000000
H           -3.21530000000000       -5.80100000000000        7.71730000000000
H           -3.02400000000000       -5.41300000000000        9.42460000000000
H           -0.41560000000000       -7.15330000000000        7.30790000000000
H            0.43770000000000       -5.67630000000000        6.86740000000000
H           -1.16380000000000       -6.00020000000000        6.21040000000000
H           -2.36250000000000       -4.17280000000000        6.17740000000000
H           -0.32930000000000       -3.14580000000000        9.75780000000000
H           -4.48900000000000       -0.90540000000000        3.47040000000000
H           -4.46070000000000        3.19480000000000        4.62830000000000
H           -1.54360000000000        4.76370000000000        7.96770000000000
H            1.78940000000000        2.42120000000000        9.11400000000000
H            2.89360000000000        1.22800000000000       12.37390000000000
H            5.23020000000000        3.80720000000000        9.97360000000000
H            2.57220000000000       -4.03890000000000        9.93130000000000
H            5.30310000000000       -4.11850000000000        6.69590000000000
H            4.79660000000000        3.50670000000000        5.11420000000000
H            5.16280000000000       -0.44320000000000        3.57600000000000
282
 energy: -418.547954668402 gnorm: 0.058523219749 xtb: 6.7.1 (edcfbbe)
C           -3.13827284386532       -2.90756278782674        1.51360009439255
C           -3.61563942760347       -1.76186728811693        0.88221299921856
C           -4.28303114222558       -1.86694322553447       -0.36768665177085
C           -4.66142225658418       -3.17166586979405       -0.77578867679552
C           -4.16967629184671       -4.28964704648318       -0.11289404178305
C           -3.35566498403649       -4.17910993387266        1.00880272197069
C           -4.61556055602349       -0.72451595091287       -1.17092118233156
C           -5.72554481910815       -0.88295205110091       -2.07005258543965
C           -6.24644734536644       -2.15772097640151       -2.39412422168985
C           -5.61754751319655       -3.37263476919712       -1.86639463891913
C           -3.89730411488630        0.52776936492551       -1.17202071770947
C           -4.51847413008789        1.65055877717311       -1.78860108732632
C           -5.86452972390792        1.57523457520154       -2.36979350725324
C           -6.37049146574191        0.23231315733086       -2.64329307605960
C           -7.48883763561489        0.07656224643108       -3.45475363023529
C           -8.00327224310010       -1.17438806058682       -3.76793113326903
C           -7.34966174793809       -2.27826736274212       -3.23121391988258
C           -2.56552558665206        0.74792978860993       -0.67772890906121
C           -1.96699526429473        1.99702632900645       -0.85659648445571
C           -2.59984687328522        3.08692907651022       -1.42633734406596
C           -3.89307385679958        2.88754551700400       -1.87779979869296
O           -3.48777359053343       -0.54944182142166        1.48749043770201
O           -1.79134744222060       -0.15285521908288        0.00728628650621
B           -2.08571185018355       -0.09598109571904        1.47786158537646
C            0.34165794129588       -2.23856261216995        3.27468970412772
C           -0.03687755735859       -1.25909187420449        2.34667656859243
C            0.90152432458239       -0.77966048654907        1.37677955220991
C            1.92873225711153       -1.72884972285135        1.09323476831613
C            2.22403462090140       -2.76896701501030        1.96663004784033
C            1.51114305701978       -2.96561090327295        3.14363281182158
C            0.97384094555591        0.53917203349592        0.78951324535894
C            1.93411245479767        0.70987043969596       -0.27291587705052
C            2.62707329682423       -0.37994188388539       -0.85509288525996
C            0.40839006959874        1.75009530646373        1.36482438091359
C            1.11489066702475        2.97800376426634        1.16838567869429
C            2.04336743340574        3.16267457151838        0.05537102066434
C            2.30403195592937        1.98543464053520       -0.76335377315088
C            3.10601480445385        2.12409130219957       -1.89075386291904
C            3.63244286970360        1.03064225090817       -2.56468607481712
C            3.41563717770074       -0.21332142837705       -1.98853572458811
C           -0.77502963576361        1.90932143326077        2.17294682853820
C           -0.85652339916608        2.98546417597342        3.07264380228380
C            0.00206404195044        4.07161926040935        3.02870084278753
C            0.92096851443268        4.08222368108114        1.99033866144195
O           -1.93623076053694        1.24184494531322        2.03286578795733
O           -1.33134717031276       -0.95256349111090        2.37906964644217
C            2.70650694090275       -1.64994072729359       -0.14077162385734
O            2.60663956912202        4.23625722542126       -0.16211218511037
O            3.43088063934647       -2.56761046495123       -0.52158771376114
O           -5.93400089177584       -4.49173049994130       -2.26834199491935
O           -6.50643832993441        2.58159072134964       -2.66873427108163
C           -2.68350448794127       -5.38452155761771        1.66317838129355
C           -2.85300027517175       -5.34131705816221        3.18830353893884
C           -1.18987252021465       -5.32539429512043        1.30839967836788
C           -3.26466989810509       -6.70982547954339        1.15132501593086
C           -1.89483018993997        4.44107468912714       -1.48545584341460
C           -2.67868158031202        5.45610555524668       -2.32882019659220
C           -1.76653421230729        4.98125567209418       -0.05354600130532
C           -0.49785608533748        4.27510882267153       -2.10335252330049
C           -9.23595348535616       -1.36633280274876       -4.65554488821394
C           -8.85882588885893       -2.22038618015472       -5.87687313884522
C           -9.79802521212720       -0.02741254175515       -5.15531045536972
C          -10.33164533387183       -2.08176735720390       -3.84834007750952
C            1.91802833416948       -3.99357178765719        4.19593014851851
C            1.06844847337626       -5.25984514306538        4.02817221689962
C            1.69414538490381       -3.40241941466503        5.59721296556753
C            3.39652979896742       -4.37352085253517        4.04532314511851
C           -0.08501835035822        5.20526552678952        4.04759593939560
C            0.59501142818571        4.71680016207152        5.33309730098130
C            0.63268609816889        6.47285763237605        3.55865916692888
C           -1.54873894955863        5.56931013508586        4.33790560497308
C            4.50784416248916        1.23377440264908       -3.80160123855264
C            5.81004498107478        1.93443492712593       -3.38112306324614
C            4.86082975028736       -0.10033233009167       -4.47486812517068
C            3.75925048606737        2.10717668977830       -4.82125741822904
H            5.43062755997861        0.07496929843029       -5.38732939717256
H            3.95835290375979       -0.64863295437437       -4.73949708679462
H            5.46797295347427       -0.72269455158524       -3.82042087311806
H            6.46144514484168        2.08487553134682       -4.24228425179922
H            6.34669165887027        1.33400925999619       -2.64787140629431
H            5.60718524451853        2.90641138193559       -2.93559112135979
H            4.35579267813512        2.23969286565299       -5.72389652880580
H            3.54049855249699        3.09275793496689       -4.41652528524170
H            2.81620714874860        1.63976364483637       -5.10000244790420
H            0.50922166740748        7.27701752250410        4.28368765952890
H            0.22011988934144        6.80744275265174        2.60817869028083
H            1.70068260188860        6.30200328657143        3.43823161560542
H           -1.60331410023227        6.42508734897274        5.00945452535584
H           -2.07845315581333        4.75383997831529        4.81851996313455
H           -2.07005207663125        5.82240914790223        3.41592241465896
H            0.50924762924104        5.46870307118277        6.11510268386780
H            1.65206255150869        4.51504173732147        5.16369343042392
H            0.13400583719457        3.79972577860978        5.69131805010303
H           -1.23187373515017        5.93066948559162       -0.04690855752907
H           -1.22383327600722        4.28382652814385        0.57735242868720
H           -2.74959156472732        5.13513984709577        0.38898783952734
H           -2.13129402493577        6.39641051232876       -2.38738332688951
H           -3.65076496492617        5.66546830711698       -1.88651399773662
H           -2.82588571068944        5.08614992897609       -3.34230588224302
H            0.00801718789565        5.23727334776369       -2.17057850559522