116
 energy: -22.928061455056 gnorm: 0.329736929581 xtb: 6.6.1 (8d0f1dd)
C           -3.31122850772930        0.79849766164622       -0.92477639677520
C           -2.44380812530352       -0.12270372891954       -0.27661132624697
C           -1.41337090092821        0.39579727573559        0.56335275196199
C           -0.89266158675590        1.65801491088749        0.27377586709581
C           -1.72665675402493        2.51431363229076       -0.49448366572522
C           -2.95444148494349        2.13954154133227       -1.01494489940871
C           -0.74098268209890       -0.43411532818871        1.49825021926784
C            0.56872586496315        0.03782116815119        1.86248088067890
C            1.03782416582094        1.29402317993033        1.50887470833621
N            0.31238977034758        2.07067427098208        0.65193736800696
C           -1.29695700510141       -1.39996043042223        2.41574187746061
C           -0.38243517664656       -2.18060797534842        3.13232615520648
N            0.91308504082021       -1.90366887689689        3.30325166013478
C            1.37712470144904       -0.74872102533751        2.81811050966982
C            2.52149331701875       -0.17739833758153        3.39379298866852
C            2.95849061756259        1.02681208890480        2.95105897606587
C            2.24288949469137        1.78498308775960        2.03503020483770
C           -2.74860936222260       -1.74497937691422        2.38401158947411
C           -3.09416315450955       -2.91614440870436        3.00571134491758
C           -2.16786021984049       -3.77788778654213        3.63251872101904
C           -0.85708937311598       -3.40495313382985        3.68547234358092
O           -3.71994433332149       -0.94984598373544        1.67726658385724
O           -2.55702603277562       -1.47241711578389       -0.57241635275616
C           -3.84297843593025        3.13357444054366       -1.60938954875544
C           -2.68769581069131       -5.03867041417370        4.30484659386931
H           -1.39666850744143        3.51251503834900       -0.76806311868865
H           -4.27662633836220        0.55105838579656       -1.33106614114542
H            2.66329581305412        2.73912661909249        1.72562431984580
H            3.05775395548473       -0.69369546277216        4.16536137542516
H           -0.24710966264510       -4.12034095424229        4.22946223699121
H           -4.11477991332403       -3.04712728052358        3.03244694615357
O           -4.21824883374556        4.03433712717988       -0.87713382485991
O           -4.44510595673734        2.90643496899600       -2.81853501752979
C           -5.44216520282800        3.83300025693726       -3.02488532025093
C            4.23586651889298        1.50004220933226        3.59165660008449
O            5.05927614697201        0.66079890002952        3.91714215179376
O            4.47001334453535        2.86385149488593        3.72605651435371
C            5.79457498613219        3.08584475587818        4.15829123132174
O           -3.82227255313510       -5.27347675879771        4.16636005494405
O           -1.85023202017753       -5.79767454267276        5.06656077253571
C           -2.55119635829503       -6.86252441382958        5.62930343183426
C           -5.07197156564436       -1.42399175670916        1.58830531863830
C           -1.33089900128490       -2.23622472573986       -0.99264499351172
H           -2.54510546830388       -7.76426885143998        4.99136022291012
H           -3.57194749219491       -6.44405511486021        5.74196173723541
H           -2.09133598235598       -7.02043774843818        6.64022264233588
H            5.72707967266424        3.46798026205549        5.10135971236643
H            6.34060091246885        3.78468702308830        3.50069950143490
H            6.17933064298187        2.03010500085905        4.19342358084693
H           -0.91862729772622       -2.57650129080332       -0.01361370304871
H           -0.49769766914251       -1.60651221708571       -1.34094446550576
H           -1.52632419730509       -2.94569707152159       -1.75361447637286
H           -5.11788846557077       -2.41810833635233        1.17520213188926
H           -5.67929807973498       -0.69619639428435        1.04301666067831
H           -5.57598832326623       -1.42383358739762        2.57928294206544
H           -6.13050215934830        3.76035386975488       -2.23272855695873
H           -5.86615610071888        3.45938329385866       -4.02668959924245
H           -5.13479557532099        4.87790991548477       -2.98314551356402
C           -1.38192942069774        3.73616555005018        2.91232598411686
C           -1.84821468128685        2.59982427735607        3.49755545445181
C           -1.05946531454833        2.05730632010638        4.60922730982276
C            0.19893954712228        2.69376791964407        4.86302140881997
C            0.50425395911860        3.94630308659851        4.28768785650746
C           -0.26031777722226        4.46998310053134        3.25072669343212
C           -1.20488993561782        0.74454293276906        5.14851520323437
C           -0.06287609782692        0.02744069315890        5.60930570802864
C            1.19208754369866        0.71421540266195        5.78882868583885
N            1.19428660993148        2.06344359410476        5.62744624321596
C           -2.41361422770794        0.07928500213936        5.25249410304426
C           -2.45851584031083       -1.32662100968547        5.60237876023992
N           -1.29466212405906       -1.98318595734370        5.89916817085159
C           -0.14475655767527       -1.32117560077092        5.98824682881008
C            0.97209270935794       -1.98958449505532        6.53157704134458
C            2.21982707914082       -1.36973967291181        6.68703967237737
C            2.30561929262884       -0.09745313075593        6.26436900324455
C           -3.73018485967715        0.71367583494582        5.25810242262992
C           -4.89964478833448       -0.06184623426677        5.21204641615509
C           -4.82617965800088       -1.39228978090841        5.46901303780036
C           -3.67144193418464       -1.98914944386360        5.67265433266067
O           -3.75568638935321        2.07705011038914        5.52067969627343
O           -2.94192434743730        1.91263938797883        3.01658762327703
C            0.21273512614467        5.50086066357994        2.34765104514621
C           -6.06660304520411       -2.17604633098929        5.80641622556876
H            1.41756699010566        4.38133362238595        4.66974005703471
H           -1.82880610647429        4.11982501512100        2.06992133318584
H            3.26888037378556        0.32655662585251        6.31721410015598
H            0.87146188387207       -3.08471526305024        6.57830423410869
H           -3.67716811065157       -3.05999292755990        5.83019634570050
H           -5.77379677507622        0.43595144608221        4.71017130754348
O            1.34459852619901        5.82615848916894        2.44941456579099
O           -0.74718748219123        6.07961784856304        1.59848183464284
C           -0.21473095568964        7.24015934882472        1.05753806029483
C            3.53228080814219       -2.00967610361154        7.02506769044485
O            3.64093082622715       -3.14437803815732        7.50071391725347
O            4.56565258381079       -1.22937033368332        6.69086985080897
C            5.72579357310716       -1.80692399125161        7.22246151275881
O           -7.04801223588612       -1.95726935745904        5.14194115322235
O           -6.01514389321278       -2.93743591896022        6.94765316328794
C           -7.21292732384718       -3.62681918543340        7.15115816329978
C           -4.95459780685163        2.65960679932188        5.86868674392943
C           -3.68284113682406        2.59129188358641        2.05479246020704
H           -7.43119628931628       -4.22607794725959        6.20622607140901
H           -8.06548455146707       -2.91765848248592        7.29781126410398
H           -7.07314693247270       -4.33087306029711        7.91223421050944
H            6.57332189837178       -1.29353136199234        6.78341268688262
H            5.74663761932316       -2.84282155125561        6.88089468184451
H            5.69426191474290       -1.72781984964892        8.29460302186842
H           -4.10481209541493        3.44288266176275        2.60483747673152
H           -4.49244774344916        1.87419893016926        1.82433103764650
H           -3.18901540870812        2.85154642679373        1.06781919454921
H           -5.55414326821421        2.76698137191684        4.93950725322359
H           -4.78658370641210        3.62090640967288        6.25983200635257
H           -5.43485580473958        1.97242995129449        6.65265772412460
H            0.89164886030839        7.38838561720231        1.13776105146914
H           -0.62894889903848        8.04195665205089        1.64837664327952
H           -0.59282546386754        7.45699159724320        0.03719083132488
116
 energy: -22.567580697404 gnorm: 0.574414819253 xtb: 6.6.1 (8d0f1dd)
C           -3.52905361103213        0.04126854686859       -1.59487312453581
C           -2.94621423047935       -0.90001067268050       -0.80125218304619
C           -1.79491715322464       -0.42101881725551        0.05033087969144
C           -1.46200364294068        0.95070320440358       -0.18068743885047
C           -1.98987116664715        1.82804540307310       -1.12887337112927
C           -3.03612635008803        1.35276767059104       -1.84930845179813
C           -1.28799688435259       -1.10131832578409        1.19173927965394
C           -0.08747505326101       -0.63209210269899        1.65214253571190
C            0.36289314241115        0.58445313323743        1.18816461006296
N           -0.34212406493876        1.45123770319235        0.41859856716004
C           -1.66840237006627       -2.19908795117019        1.90189491752840
C           -0.93344281278902       -2.90062904830254        2.95761521397702
N            0.20389542747072       -2.38903218501669        3.33584372416794
C            0.67619898686548       -1.28876417043588        2.63378671513960
C            1.85138125996608       -0.79292969233247        3.16556518991777
C            2.41165573818288        0.37426571985281        2.64026521260328
C            1.52142106470815        1.08343277120331        1.80184883957259
C           -2.96455004427397       -2.65047067778052        1.73356030480416
C           -3.30716607161356       -3.99789245458424        2.04686811465213
C           -2.44430717604321       -4.74060570982442        2.94489721742692
C           -1.27874791579356       -4.08998133737027        3.45474814002181
O           -3.93936840881020       -1.67566336830779        1.53691250716957
O           -3.02576735375205       -2.36642840198903       -0.90328885561026
C           -3.75180790721657        2.11777615003823       -2.73849461703468
C           -2.73351911920884       -6.11698913191791        3.54647100545040
H           -1.42207236076312        2.82684239283670       -1.32077319248762
H           -4.44147703552464       -0.00083764722528       -2.06484232060437
H            1.70310251967099        2.12350608513831        1.45825739294751
H            2.21338150129548       -1.24769737445249        4.12388978740885
H           -1.02332771512470       -4.51990679109554        4.39897636211392
H           -4.27405499051651       -4.22357224298127        1.80533433675597
O           -4.10966036703024        1.60705937502367       -3.87485424176741
O           -3.84311029867988        3.50318213347883       -2.31560862950407
C           -4.31048729097934        4.17583502475281       -3.57606584866458
C            3.59215434673296        1.14643820830695        3.19713535360544
O            4.36045024295409        0.58815354167202        3.92744890665938
O            3.96457479488293        2.37496247443280        2.54080205996875
C            5.04930645830023        3.06046732104293        3.15436557004976
O           -1.99480861770061       -6.41995858159356        4.53862783906851
O           -3.54126144336288       -6.95919651867769        2.94012788325865
C           -3.49126029488389       -8.25463050295149        3.39899230958029
C           -5.01222345516206       -1.48365537854866        2.42321120171409
C           -2.04865553396626       -2.99157967519812       -1.65906724619063
H           -3.61076595287289       -8.25756583950930        4.53921275287928
H           -2.67866404822174       -8.74340990323123        2.93836270930604
H           -4.42804275497938       -8.86091559245409        3.28816152699589
H            5.94835540707800        3.29098696182724        2.38503234616204
H            5.25601757899093        2.45447400685409        3.89280936252525
H            4.49770805003317        3.90756614355562        3.54243567961421
H           -2.47783862031239       -3.77651241587179       -2.11268985192282
H           -1.12764631844200       -3.03642680183605       -0.90498012082790
H           -1.78861138454436       -2.19612752440185       -2.30161700569343
H           -5.75101792350083       -1.81998425364925        1.75473091819214
H           -5.14848440199426       -0.38937202641446        2.56572220861061
H           -5.22700808515500       -1.93743480879283        3.41051825450310
H           -4.84702562834303        3.71296508176896       -4.36023798863959
H           -3.32018712207423        4.11612620007939       -4.19047641356431
H           -4.90810719562155        5.23286999838249       -3.51689280174973
C           -1.35945169429747        4.50410482939585        3.53815631143441
C           -1.50014616356984        3.28359931756257        4.01007639831119
C           -0.55801315878905        2.67251017711188        4.87097434411252
C            0.62616595203158        3.42930748647587        5.14025727825195
C            0.69069570443106        4.75167907839264        4.58918021127580
C           -0.26982162743917        5.32214661772630        3.87126412723423
C           -0.78968152497085        1.53667135381725        5.70135244176665
C            0.41809419949611        0.82336874391133        5.96508889607969
C            1.60550822927570        1.55336332091440        6.12427983797192
N            1.64267064283871        2.86123852592480        5.85234290913217
C           -1.97897055060782        0.86540172126258        6.08026144841923
C           -1.96495704223359       -0.57191276304244        6.22363750517610
N           -0.79440432898755       -1.21864912060650        6.14159284568603
C            0.30193190117015       -0.55574177027472        6.29952452161476
C            1.48670087144211       -1.17403562100801        6.67349277912930
C            2.65784060313659       -0.42115779781166        6.90917859164866
C            2.70787635584562        0.96285455703826        6.62547063948423
C           -3.11463006096056        1.54355616660270        6.06759833977089
C           -4.18201185261606        0.74343368893099        6.15282158597603
C           -4.26134838505943       -0.67346875100448        6.09484293399819
C           -3.10057109190767       -1.39025707834320        6.10388990263229
O           -3.27257489879386        2.92706560821436        6.11718008327959
O           -2.69247136839651        2.65084038259479        3.61473387279767
C           -0.43392345227740        6.80674147187599        3.58309153892759
C           -5.53277700292371       -1.30693146673497        6.26459007754237
H            1.21233289298985        5.58838415440303        5.07255447495386
H           -2.06818154038142        4.94385795025669        2.78435210874863
H            3.51686953581491        1.65236805969540        6.67176387776758
H            1.42101367777890       -2.19458150879289        6.94169035468917
H           -3.05053096832404       -2.48042936432987        6.09555229580383
H           -5.02791012150428        1.28955061168326        5.92242924775052
O           -0.55246927012573        7.72144402442159        4.33661179758173
O           -0.63579001767162        7.10599558883717        2.20081097706688
C           -0.51889485631318        8.42951255782139        1.69501729220458
C            3.74158981338467       -1.39375999111855        7.42718066844269
O            3.33973572838739       -2.55251898273623        7.35147993664780
O            5.09541378175189       -1.14320171151667        7.77738109829876
C            5.82807488936903       -2.44782652038177        8.07518529878625
O           -6.32283562055648       -1.03535182542018        5.32033069100245
O           -5.94968649583913       -2.25451882914032        7.18711279072790
C           -7.05167706320198       -2.91695053224748        6.66889967874246
C           -3.50304509040213        3.17049645606746        7.55772234303375
C           -2.80017992769437        1.37495908976601        3.06043549745768
H           -6.61509351820701       -3.37986669216267        5.64542853249196
H           -7.88403959763153       -2.24210074209219        6.25889937878505
H           -7.36086393326572       -3.26393433912612        7.64479309795737
H            5.45804602043997       -3.35452785285256        7.74836955437687
H            5.87107339867046       -2.49746752114671        9.05911117379263
H            6.81560493047111       -2.25456064117194        7.61568089111526
H           -2.65934328588237        1.65476343729583        1.96794939693112
H           -3.52024067993341        0.63256965414860        3.63579714840234
H           -1.91861702153378        0.77419582702251        3.40765317067419
H           -3.77659876716563        4.25573099289837        7.66416426304224
H           -2.43995129847424        2.89746065571303        8.13570760278183
H           -4.11285817809839        2.40523296913220        7.81311172612484
H           -1.39389707878852        8.80762434963517        1.24727371488595
H            0.47438224836407        8.54355420281370        1.03748637924603
H           -0.10443233025718        8.99073329343186        2.41323727859193
116
 energy: -22.577103996692 gnorm: 0.567418042702 xtb: 6.6.1 (8d0f1dd)
C           -3.71872327735109       -0.73893640845730       -1.60147709747318
C           -2.91547102894680       -1.25548771348230       -0.62585528907287
C           -1.90478608166761       -0.50085979692511        0.19842485881853
C           -1.44559396176928        0.75359079697358       -0.27605888545751
C           -1.99622138990496        1.14059429893449       -1.45080532170523
C           -3.24094975799380        0.52157010877414       -2.07957642182878
C           -1.26308445220274       -0.97866748823391        1.37170112279851
C           -0.04134279866609       -0.37679387412518        1.82261017045842
C            0.36880046982261        0.81901564768972        1.14523205480123
N           -0.30609500144376        1.39300183720131        0.18748416919459
C           -1.84635227705270       -1.81104610689708        2.37471296278664
C           -0.90472652105699       -2.60669323932267        3.28083824818209
N            0.39926735696982       -2.38589193961336        3.27312106727826
C            0.67039328622725       -1.08192336267516        2.81885088384661
C            1.95271131654990       -0.46005734680535        3.07836588695560
C            2.41291268679410        0.64764905027161        2.29928192119236
C            1.56063640707756        1.44987362286984        1.51369669425274
C           -3.29347790595953       -2.05666864765750        2.59704316063765
C           -3.72990068939969       -3.13393940915250        3.37637687395584
C           -2.85813638047473       -4.26835782212657        3.52215152942914
C           -1.43356445604802       -3.87268698620275        3.61869859463096
O           -4.13426823511976       -1.29063792046766        1.73220000417700
O           -2.89203435600531       -2.59551840330819       -0.45036785499834
C           -3.82407767377748        1.03248547842144       -3.39781909195960
C           -3.20892797242931       -5.64168225039912        3.32966391212568
H           -1.38049068712526        2.01507640949429       -1.83708021525456
H           -4.67056569985291       -1.21146612861423       -1.84205225684486
H            2.18552080924469        2.19956025530377        0.99220810263496
H            2.70438165299660       -0.97667603672807        3.73994779765371
H           -0.68484124962670       -4.69259563156655        3.73328738347138
H           -4.71061478113704       -3.28739006858000        3.43297178749035
O           -5.09654001524587        0.85427902843604       -3.46409281566108
O           -3.22094987191523        2.00285733321157       -4.06010038761103
C           -4.08909933225752        2.91124322302263       -4.88789899207299
C            3.93635940522993        1.02577739672786        2.53064758466355
O            4.71385489741072        0.21085635294277        2.89435583734902
O            4.27744467761813        2.32703010039535        2.28472780330304
C            5.79096886832520        2.46842631310873        2.39551848212659
O           -2.37698258821496       -6.43316793540141        3.07120322734239
O           -4.57082748108262       -6.04194390691603        3.42811095624409
C           -4.53703444840246       -7.38355985212580        2.70519197886107
C           -5.45740777958062       -1.07978035525762        2.27097385047830
C           -2.04638891483476       -3.29243131894773       -1.39372745950836
H           -3.73543633750254       -7.82890275334302        2.17351255448729
H           -5.21319167831014       -7.29380894817722        1.91517581679643
H           -4.82139889287989       -8.27616331420280        3.41911339237809
H            6.32789174145849        2.21533036688619        1.38336532827692
H            6.24391480122843        1.79258404627525        3.18460361042561
H            6.24491016697581        3.33732131350572        2.76086602312329
H           -1.72600788183168       -4.26046954046149       -0.88036390451090
H           -1.15103086131728       -2.75379374251490       -1.52162836298526
H           -2.66729581323000       -3.57501319521097       -2.27403749364411
H           -6.01538183816626       -0.77328514010117        1.35042135985785
H           -5.45640151693276       -0.64012423361189        3.20666889131635
H           -6.04793286637753       -1.88728079957786        2.64448169454906
H           -4.34683921676420        1.97730739043168       -5.43724745964985
H           -3.87968022900447        3.38554276309524       -5.81037413373083
H           -4.96861495625565        3.15010834312854       -4.34918185325795
C           -1.56610857694776        4.81454166164057        3.87339728774828
C           -1.76223429527237        3.56565980217249        4.46934895384794
C           -0.71781114638128        2.95229387613935        5.27393403943869
C            0.57180411765295        3.43751414558943        4.97382975712306
C            0.78535461996230        4.62777160912126        4.22953342949475
C           -0.31459737280427        5.33191148265433        3.63138434715531
C           -0.85124753825170        1.68094358224653        5.99633362425630
C            0.39854205660769        1.03675430618751        6.24853801488228
C            1.60437824485326        1.77338206995208        6.26070942144722
N            1.70346745603618        2.89720190787277        5.45365583083732
C           -1.96203218065515        0.86620206760309        6.13981017107433
C           -1.82603010214727       -0.56240589483515        5.83968416999092
N           -0.64216688113318       -1.21763166257307        6.06652647958270
C            0.38153048775294       -0.44905119006279        6.30767894724571
C            1.54451653316705       -1.02102822793627        6.83864364672505
C            2.69077295148742       -0.26947619263070        6.97056510441841
C            2.80204462773154        1.20250418397902        6.81984463139252
C           -3.27839622372387        1.31431035929116        6.46968040927963
C           -4.32812235502705        0.60022129859533        6.32543852348291
C           -4.28035450075276       -0.67685824492771        5.71627107203964
C           -3.01405567828633       -1.22658366443364        5.50760628256462
O           -3.28620097118629        2.56472626574605        7.20593591799943
O           -3.01166765998985        2.91828867747677        4.19527818203182
C           -0.02673147478627        6.78355206725891        3.42720945953470
C           -5.50112255274533       -1.59828404667487        5.61626900948454
H            1.80115185999850        4.97713248107198        4.01151292165184
H           -2.46825545623559        5.47059876865519        3.84750094875643
H            3.78403395184539        1.59947209702179        6.53509370150487
H            1.57607554603139       -1.94262691367711        7.24443210042313
H           -2.80553159732757       -2.27384080241156        5.53857205160894
H           -5.39526495809550        0.95259776913906        6.47696631190714
O            1.09105919893288        7.18849118819675        3.09803076563888
O           -1.08666031506919        7.47763862591593        3.95863612939506
C           -0.78847515622809        8.82058866611395        4.46351151311127
C            3.75929946999435       -1.11402775798360        7.59997929405902
O            3.41126220089515       -2.25169264460310        7.93834506670137
O            4.95011837957075       -0.72064071600969        8.12412380912739
C            5.86833149245647       -1.70923671462549        8.74668371100207
O           -6.56677064429129       -1.39998061855521        4.99659700668450
O           -5.28998220398124       -2.74998102336853        6.09833023126096
C           -6.23961308243755       -3.66951031210833        5.78972510712465
C           -2.37452873372061        2.56730662748259        8.41535762264837
C           -3.34948813300078        3.11405880937863        2.84963546867363
H           -5.97441305117714       -4.60632584307896        6.49448605759303
H           -6.20560695510877       -3.90390144266688        4.83000289172857
H           -7.39745637243742       -3.35438945718210        5.80415592189216
H            5.77513363678774       -2.57132350697847        8.27042938968338
H            5.61956921568059       -1.86817573597099        9.80675379718867
H            6.92833161797640       -1.52478694690605        8.43068872042961
H           -3.60711138132111        2.11084979525547        2.45425295732508
H           -2.43985392373832        3.54206371790207        2.43735196848488
H           -4.23168790648057        3.76995013652040        2.66491384431682
H           -1.88160651525505        1.55914204725892        8.45758212178167
H           -3.06577527821625        2.66141574828915        9.33942761702519
H           -1.54430369451724        3.26313944860232        8.44311633783678
H           -1.67091305504018        9.48841688524641        4.52125751214054
H           -0.17909080021172        8.99792847810746        3.53488497550149
H           -0.43779190678008        8.51538191176751        5.41833798314164
116
 energy: -22.595102844753 gnorm: 0.558877364479 xtb: 6.6.1 (8d0f1dd)
C           -3.70229441572852        0.03568632238228       -1.73122894537240
C           -3.05955043481855       -0.78744994348983       -0.72005696965158
C           -1.89105816661466       -0.13433419681360       -0.01952156395637
C           -1.32341139357738        1.06154921049355       -0.63608500696056
C           -2.04510676197669        1.61288096245657       -1.78016162771165
C           -3.24993736474185        1.21945233027297       -2.35776424092679
C           -1.33753573570352       -0.90757563847705        1.05580919458857
C            0.00949154037810       -0.50652149189959        1.22422337627848
C            0.45730677001801        0.68418626515112        0.65079488801239
N           -0.00239853170077        1.37531860591061       -0.42929413531729
C           -1.78419373569930       -1.70780084253860        2.17411476753244
C           -0.85295414474450       -2.56629077069173        2.90743272637800
N            0.48824608780582       -2.22786718919284        2.99506540192794
C            0.73264486028576       -1.09233720693459        2.32698849757872
C            1.81156888739127       -0.35293584646939        2.96526266791064
C            2.41767692613980        0.50446181970006        2.21818063940934
C            1.64980043147535        1.14649224493390        1.22330247237801
C           -3.25220616289716       -1.88045058840393        2.24486355688663
C           -3.61046102509443       -2.86714148034854        3.18634010715465
C           -2.70877177326732       -3.81621185674048        3.76160457250059
C           -1.40412450777741       -3.59656558374053        3.62005596703905
O           -3.98559137592319       -1.05529835897829        1.57223181021571
O           -3.23542210379202       -2.15952434095992       -0.61291000751913
C           -3.68181564194540        2.11803795215581       -3.57382062627511
C           -2.98897956616798       -4.79498998663600        4.80389345725190
H           -1.82753997591858        2.51178133897528       -2.18170070841652
H           -4.73258874685011       -0.10745446319021       -2.08860846315006
H            2.17238964342892        1.99001512594528        0.78427006210521
H            2.13786884474000       -0.57973255576710        3.93705329726153
H           -0.76983291564824       -4.11112471255079        4.35088113412189
H           -4.55300879165267       -3.10542827826527        3.46541888845901
O           -4.73619904198114        2.66208555941115       -3.58242344751639