156
 energy: -253.992227563800 gnorm: 0.140384168787 xtb: 6.7.1 (edcfbbe)
C            1.27340000000000        2.20170000000000       -3.61700000000000
C            2.23100000000000       -4.40090000000000       -0.35600000000000
C           -3.22330000000000        1.21180000000000       -1.52240000000000
C           -2.50910000000000        0.02310000000000       -1.42710000000000
C           -1.07670000000000        0.09600000000000       -1.53730000000000
C           -0.51140000000000        1.22640000000000       -2.19270000000000
C           -1.27560000000000        2.39020000000000       -2.27110000000000
C           -2.59160000000000        2.40580000000000       -1.84520000000000
C           -0.19440000000000       -0.93260000000000       -1.05240000000000
C            1.06570000000000       -1.06100000000000       -1.68840000000000
C            1.53000000000000       -0.04120000000000       -2.56650000000000
N            0.77040000000000        1.12200000000000       -2.74580000000000
C           -0.46510000000000       -1.75580000000000        0.09540000000000
C            0.31180000000000       -2.92940000000000        0.29770000000000
N            1.43580000000000       -3.16430000000000       -0.51180000000000
C            1.86470000000000       -2.20850000000000       -1.44120000000000
C            3.06410000000000       -2.33830000000000       -2.13100000000000
C            3.51510000000000       -1.35410000000000       -2.98890000000000
C            2.76140000000000       -0.21310000000000       -3.18530000000000
C           -1.39250000000000       -1.36010000000000        1.11610000000000
C           -1.59720000000000       -2.19740000000000        2.20390000000000
C           -0.91930000000000       -3.39240000000000        2.33440000000000
C            0.00590000000000       -3.75740000000000        1.37900000000000
O           -2.01090000000000       -0.10920000000000        1.07320000000000
O           -3.10930000000000       -1.22140000000000       -1.24370000000000
C           -3.27650000000000        3.69470000000000       -1.60120000000000
C           -1.09320000000000       -4.19040000000000        3.56720000000000
C            4.83410000000000       -1.48780000000000       -3.64280000000000
O            5.33700000000000       -0.52100000000000       -4.18580000000000
O            5.42500000000000       -2.71970000000000       -3.56920000000000
C            6.64880000000000       -2.68700000000000       -4.22990000000000
O           -2.64870000000000        4.73490000000000       -1.67650000000000
O           -4.58790000000000        3.61260000000000       -1.21300000000000
C           -5.01560000000000        4.84120000000000       -0.71850000000000
O           -2.00610000000000       -3.93000000000000        4.32900000000000
O           -0.16380000000000       -5.16750000000000        3.79910000000000
C           -0.38880000000000       -5.72370000000000        5.05370000000000
H           -4.26760000000000        1.24000000000000       -1.27570000000000
H           -0.83030000000000        3.32110000000000       -2.56830000000000
H           -2.22650000000000       -1.89000000000000        3.01780000000000
H            0.51580000000000       -4.68810000000000        1.52990000000000
H            3.68870000000000       -3.20060000000000       -2.00330000000000
H            3.17680000000000        0.54930000000000       -3.81580000000000
C            1.88140000000000       -5.43080000000000       -1.41820000000000
C            2.71500000000000       -6.69560000000000       -1.30890000000000
C            2.21680000000000        3.13940000000000       -2.88100000000000
C            2.77630000000000        4.23710000000000       -3.76770000000000
C           -3.30390000000000       -0.09200000000000        1.62990000000000
C           -4.48640000000000       -1.25610000000000       -1.53630000000000
H           -6.10230000000000        4.82840000000000       -0.61670000000000
H           -4.70890000000000        5.63450000000000       -1.40420000000000
H           -4.55560000000000        4.99140000000000        0.26230000000000
H            0.31030000000000       -6.54580000000000        5.21830000000000
H           -1.41840000000000       -6.08600000000000        5.10270000000000
H           -0.23870000000000       -4.94620000000000        5.80700000000000
H            7.10570000000000       -3.67780000000000       -4.19080000000000
H            7.29760000000000       -1.95520000000000       -3.74350000000000
H            6.48200000000000       -2.39190000000000       -5.26850000000000
H            2.09570000000000       -4.82530000000000        0.63840000000000
H            3.29370000000000       -4.14960000000000       -0.38570000000000
H            2.00160000000000       -4.97950000000000       -2.41100000000000
H            0.81240000000000       -5.66820000000000       -1.34520000000000
H            3.77850000000000       -6.47630000000000       -1.41550000000000
H            2.45170000000000       -7.42700000000000       -2.07560000000000
H            2.57980000000000       -7.17370000000000       -0.33750000000000
H           -3.77440000000000        0.86240000000000        1.39050000000000
H           -3.23840000000000       -0.20190000000000        2.70930000000000
H           -3.88960000000000       -0.90890000000000        1.20810000000000
H           -4.81460000000000       -2.29600000000000       -1.52470000000000
H           -4.66220000000000       -0.83770000000000       -2.52830000000000
H           -5.04790000000000       -0.69880000000000       -0.78640000000000
H            3.45050000000000        4.89920000000000       -3.22090000000000
H            1.97740000000000        4.85170000000000       -4.18560000000000
H            3.33540000000000        3.81870000000000       -4.60610000000000
H            3.03400000000000        2.55420000000000       -2.44160000000000
H            1.69330000000000        3.57300000000000       -2.02090000000000
H            0.42840000000000        2.75320000000000       -4.03600000000000
H            1.76210000000000        1.75860000000000       -4.48810000000000
C           -0.53130000000000        3.60950000000000        0.62250000000000
C            2.74470000000000       -2.07600000000000        4.07890000000000
C           -3.88690000000000        2.31780000000000        4.11770000000000
C           -2.87080000000000        1.37970000000000        4.26000000000000
C           -1.58870000000000        1.65180000000000        3.66460000000000
C           -1.50940000000000        2.69110000000000        2.69860000000000
C           -2.57130000000000        3.58610000000000        2.58300000000000
C           -3.73620000000000        3.42660000000000        3.30150000000000
C           -0.44110000000000        0.81130000000000        3.87790000000000
C            0.57600000000000        0.79260000000000        2.88800000000000
C            0.58940000000000        1.77620000000000        1.86230000000000
N           -0.43660000000000        2.72480000000000        1.79880000000000
C           -0.27830000000000       -0.04090000000000        5.02410000000000
C            0.61310000000000       -1.14590000000000        4.93670000000000
N            1.58700000000000       -1.16990000000000        3.93030000000000
C            1.59420000000000       -0.20120000000000        2.92140000000000
C            2.58350000000000       -0.17900000000000        1.94550000000000
C            2.62660000000000        0.81110000000000        0.98340000000000
C            1.63880000000000        1.77530000000000        0.95140000000000
C           -0.90350000000000        0.22470000000000        6.29140000000000
C           -0.91180000000000       -0.78740000000000        7.24430000000000
C           -0.23010000000000       -1.97720000000000        7.04420000000000
C            0.56090000000000       -2.12750000000000        5.92410000000000
O           -1.40630000000000        1.50060000000000        6.53150000000000
O           -3.08840000000000        0.12360000000000        4.82560000000000
C           -4.85040000000000        4.37960000000000        3.10750000000000
C           -0.29620000000000       -3.04830000000000        8.06210000000000
C            3.74270000000000        0.86950000000000        0.01570000000000
O            3.81900000000000        1.80480000000000       -0.75870000000000
O            4.64510000000000       -0.15750000000000        0.06510000000000
C            5.64910000000000        0.05780000000000       -0.87420000000000
O           -4.73830000000000        5.28800000000000        2.30450000000000
O           -5.97260000000000        4.15680000000000        3.85740000000000
C           -6.92910000000000        5.12290000000000        3.56450000000000
O           -0.86340000000000       -2.84020000000000        9.11860000000000
O            0.30410000000000       -4.23540000000000        7.74030000000000
C            0.15530000000000       -5.12660000000000        8.79800000000000
H           -4.83660000000000        2.17290000000000        4.59550000000000
H           -2.51460000000000        4.42540000000000        1.91630000000000
H           -1.44310000000000       -0.66840000000000        8.16920000000000
H            1.12540000000000       -3.03450000000000        5.82170000000000
H            3.35060000000000       -0.92860000000000        1.91980000000000
H            1.72940000000000        2.54630000000000        0.21170000000000
C            2.58510000000000       -3.35350000000000        3.27510000000000
C            3.76770000000000       -4.29520000000000        3.41340000000000
C            0.05320000000000        4.99050000000000        0.86450000000000
C           -0.14170000000000        5.91500000000000       -0.32610000000000
C           -1.94180000000000        1.70090000000000        7.81580000000000
C           -4.35850000000000       -0.08310000000000        5.39350000000000
H           -7.80560000000000        4.96450000000000        4.19600000000000
H           -7.20650000000000        5.04050000000000        2.51130000000000
H           -6.50390000000000        6.11110000000000        3.75470000000000
H            0.63630000000000       -6.07390000000000        8.54630000000000
H           -0.91050000000000       -5.28280000000000        8.98060000000000
H            0.61780000000000       -4.69740000000000        9.68980000000000
H            6.30680000000000       -0.81290000000000       -0.90460000000000
H            6.21450000000000        0.94840000000000       -0.59230000000000
H            5.19100000000000        0.21230000000000       -1.85390000000000
H            2.89140000000000       -2.30110000000000        5.13820000000000
H            3.65490000000000       -1.54390000000000        3.79120000000000
H            2.42790000000000       -3.09000000000000        2.22260000000000
H            1.66150000000000       -3.85670000000000        3.58580000000000
H            4.68960000000000       -3.82300000000000        3.07050000000000
H            3.63120000000000       -5.21110000000000        2.83510000000000
H            3.92000000000000       -4.58440000000000        4.45440000000000
H           -2.28870000000000        2.73260000000000        7.88500000000000
H           -1.17040000000000        1.53260000000000        8.56840000000000
H           -2.78770000000000        1.03120000000000        7.97330000000000
H           -4.37060000000000       -1.07970000000000        5.83700000000000
H           -5.12740000000000       -0.02700000000000        4.62220000000000
H           -4.53990000000000        0.65630000000000        6.17400000000000
H            0.23950000000000        6.91960000000000       -0.13440000000000
H           -1.19890000000000        6.00280000000000       -0.58410000000000
H            0.36700000000000        5.53160000000000       -1.21140000000000
H            1.11830000000000        4.89590000000000        1.11080000000000
H           -0.40560000000000        5.42410000000000        1.76170000000000
H           -1.57970000000000        3.68260000000000        0.32290000000000
H           -0.04880000000000        3.12910000000000       -0.22960000000000
156
 energy: -254.021687245322 gnorm: 0.062728268319 xtb: 6.7.1 (edcfbbe)
C            1.26706547135824        2.19065573869789       -3.60865377857716
C            2.22299681955929       -4.38897583884478       -0.36214241429550
C           -3.22438966332446        1.20064508202935       -1.52180814764300
C           -2.49986417763456        0.02770270594558       -1.42078954967156
C           -1.07811400815554        0.08480816601839       -1.54747164688845
C           -0.51301911574123        1.21171340010615       -2.20598310252628
C           -1.26687795865049        2.38202259519188       -2.27513021203243
C           -2.58753756981992        2.39605164118875       -1.84146816808111
C           -0.19741392898900       -0.92905198075911       -1.05062093143952
C            1.06547005871661       -1.05628025315838       -1.68090584309082
C            1.52631138001067       -0.03664105993444       -2.56234779255689
N            0.76716994520940        1.11676437343684       -2.74267990468346
C           -0.45888897254380       -1.74667349756686        0.09815227233850
C            0.32802560198740       -2.91584118278859        0.30332401456745
N            1.43216428926370       -3.16215404262507       -0.51425424509853
C            1.86254338268917       -2.20790948227268       -1.43342775191981
C            3.05790187411535       -2.35075653217263       -2.12393214300128
C            3.50426335017263       -1.35824724753999       -2.98651647757806
C            2.75574902799865       -0.20444197038971       -3.18436121147867
C           -1.38789486785699       -1.36843649462692        1.11219377376586
C           -1.59028973138775       -2.18983520882371        2.20452787326896
C           -0.91109161539465       -3.39136743464416        2.32741543918914
C            0.02182098493593       -3.75835884693415        1.36954112114131
O           -2.00749350833194       -0.13597393637120        1.05120584007229
O           -3.09325366243903       -1.20452328016719       -1.24383105171402
C           -3.25909340491615        3.68868370663906       -1.61900734803009
C           -1.11648059895857       -4.17576611841845        3.55735151682270
C            4.81578632222747       -1.46982859980525       -3.65030126450828
O            5.33372916004779       -0.52302215617690       -4.20454773303458
O            5.40838177393095       -2.68826476239758       -3.57375593584561
C            6.65212330734172       -2.68848478890548       -4.23161404054633
O           -2.65729187229042        4.73874729943077       -1.70164130206615
O           -4.55248802387966        3.60896556513741       -1.21923076183586
C           -5.02076413852552        4.84281960290743       -0.72304175544288
O           -2.01447811892940       -3.92839619461267        4.33239672944381
O           -0.19591781698883       -5.14689779334425        3.78884982468721
C           -0.39292090117161       -5.73379377623408        5.05324858024371
H           -4.27516518645097        1.23025134923825       -1.29112376097809
H           -0.82995267441293        3.31717597008287       -2.58163720655511
H           -2.23251432661524       -1.89273932612252        3.01609247238286
H            0.52052143768717       -4.69849121984615        1.51521693066043
H            3.68734911945095       -3.21209981247762       -2.00029217569214
H            3.17587518163616        0.55272380536502       -3.82224166136413
C            1.87319977292141       -5.42610937074004       -1.42619782272271
C            2.71505040826144       -6.68855179002676       -1.30415139367816
C            2.21355063339933        3.13760604854155       -2.87620918481160
C            2.76719363538633        4.23277299844035       -3.77415072140926
C           -3.30169594219857       -0.10373142319696        1.61592200483396
C           -4.47392640941359       -1.25186903480511       -1.53396885937257
H           -6.10497665847509        4.80327558057626       -0.63019253514660
H           -4.73024156785781        5.65082037666489       -1.39828389219285
H           -4.57656168437667        5.02344457547122        0.25964293915358
H            0.31993356805376       -6.54623308806132        5.18864201344099
H           -1.41651597167523       -6.10913246992794        5.12548880603247
H           -0.24611642428486       -4.97424368591525        5.82414175308495
H            7.08538600291461       -3.68642864746168       -4.17619750637224
H            7.31793845663856       -1.96185311691190       -3.75774826205321
H            6.51030200533941       -2.39833712040431       -5.27617537897771
H            2.07333902500071       -4.81429872519843        0.62977502533109
H            3.28608182556950       -4.13567646166450       -0.40271477213236
H            2.01000619026862       -4.98158355942261       -2.41673496496083
H            0.81065267612164       -5.67462738791382       -1.33846202237515
H            3.77565273581482       -6.46528382933908       -1.41571894269407
H            2.44553748574249       -7.41208071294933       -2.07218199144562
H            2.57363407361760       -7.16461369369645       -0.33426317639458
H           -3.74939426057487        0.86032338925571        1.37179157377023
H           -3.25614173480372       -0.20890295871412        2.69482721059494
H           -3.90681408897682       -0.91442333843887        1.20662617331114
H           -4.78037288589641       -2.29827051139138       -1.51820257326192
H           -4.66995624221089       -0.83685610358288       -2.52687554889186
H           -5.05822859911686       -0.70473147303076       -0.78943559716605
H            3.43867481136027        4.88418500027679       -3.21656716270557
H            1.96825295019716        4.84872982236192       -4.18683173918045
H            3.33093261826289        3.80971325946388       -4.60480730814481
H            3.03637922483747        2.56142833238254       -2.44940994648204
H            1.68492574664987        3.58514662908797       -2.02943553820173
H            0.41578579780785        2.74113927116145       -4.01742330234874
H            1.76763567626927        1.74451203199525       -4.47294664183605
C           -0.52821512222561        3.60410360813647        0.63931666369507
C            2.73437029881148       -2.06536303211261        4.07884173690858
C           -3.88564792720078        2.30921515706824        4.12601025352726
C           -2.86057620965228        1.39417532312451        4.27527667066214
C           -1.59048500685307        1.63872970035706        3.65925126237393
C           -1.51422562965680        2.66796767047011        2.68129341977937
C           -2.56138804682801        3.58087857887441        2.57461368721497
C           -3.72670267282546        3.42446192272660        3.31024253755501
C           -0.44428423009362        0.80846006215606        3.88190269878384
C            0.57050695582518        0.78797866432146        2.88938836811810
C            0.57900128879987        1.77027179332523        1.86062652746973
N           -0.43709556950668        2.71636966008831        1.80161765816810
C           -0.27006502350077       -0.03251857142732        5.02806184669517
C            0.62808907064843       -1.13137680448956        4.94198684895984
N            1.58498140874668       -1.16602858683395        3.93205286346820
C            1.59216813006063       -0.20351481916836        2.92906439903102
C            2.57917620667899       -0.19561722232335        1.95371967174531
C            2.61903232580527        0.80341181037633        0.99118192739321
C            1.63260084222748        1.77999145016796        0.95493805226710
C           -0.90485615174001        0.21265951177939        6.28458261566286
C           -0.90877888908709       -0.78327410835465        7.24319924871620
C           -0.23055248850874       -1.97924420387033        7.03150701884507
C            0.57229267580658       -2.12817758999079        5.91041678826793
O           -1.41019728821126        1.47259046536993        6.51790802165789
O           -3.07003784632221        0.15541777924238        4.85026365594665
C           -4.82277532236639        4.38571070780680        3.10858078182361
C           -0.31084498453805       -3.02271847847328        8.06675652251760
C            3.72420849748276        0.87937489510885        0.02106439511221
O            3.83324162908788        1.81144434637967       -0.74623429909238
O            4.61986501336810       -0.13731306182027        0.06424108007121
C            5.65494549065051        0.05946848521362       -0.87001896742295
O           -4.73389104921014        5.30014545227340        2.31490058358912
O           -5.94214902055492        4.16352320763207        3.84264315703112
C           -6.93185065701364        5.12427838328703        3.56579353228404
O           -0.87197957251502       -2.83664601951067        9.12518087044596
O            0.29547978637825       -4.19958469434205        7.75905994834140
C            0.15674679588090       -5.12954550297490        8.80509781054557
H           -4.83975661452371        2.16668638351618        4.60115366809640
H           -2.50608369423055        4.42813865478308        1.91401276340332
H           -1.43795390606201       -0.66958284391751        8.17369591204930
H            1.14132370685809       -3.03488771081776        5.81133437975134
H            3.35128289960654       -0.94199271439460        1.92509515497066
H            1.73064870404344        2.54942793520265        0.21060850255990
C            2.58110438658720       -3.34989516026758        3.27294776277361
C            3.77085150439669       -4.28710647845316        3.41822624511133
C            0.06068178267683        4.99131442023379        0.87846599986880
C           -0.13937745075222        5.90812963941599       -0.32131110565974
C           -1.94062549962787        1.69494880283677        7.80469038972169
C           -4.34707209891704       -0.07687217410617        5.39887527957715
H           -7.79428846580302        4.94283560392462        4.20606387485348
H           -7.22462125817755        5.05729153449271        2.51427790085304
H           -6.53027306515778        6.12426402307971        3.75119919925257
H            0.64460522738740       -6.06221192276594        8.52356088116480
H           -0.90503583335554       -5.30420510055668        8.99830160424345
H            0.61392018725938       -4.72260729239705        9.71069562788451
H            6.29545004475780       -0.82149092964795       -0.88197114064059
H            6.23558642625373        0.94428204222971       -0.59822608636875
H            5.22482643394035        0.22288855261657       -1.85988786604741
H            2.86880756529428       -2.29479349129636        5.13947947593932
H            3.64068608810994       -1.53151622485124        3.77772128697086
H            2.43879865472100       -3.08480982585085        2.22221069007715
H            1.67013579307655       -3.86058034042958        3.59153656090978
H            4.68874787686433       -3.81443174664163        3.07042910091057
H            3.62333665802950       -5.19760685025267        2.83824124218762
H            3.91594444161859       -4.57761957940519        4.45801767133234
H           -2.27715805198786        2.73131347035250        7.85037735636364
H           -1.17735218320341        1.53540375136212        8.57190126946307
H           -2.79327136959023        1.03635175384061        7.98930291168680
H           -4.33770860989251       -1.07866272976905        5.82920785513041
H           -5.12302824405291       -0.03022486455994        4.62792323528945
H           -4.56018282329489        0.65156144145440        6.18473086399931
H            0.24360797602517        6.90752908336804       -0.12102179755937
H           -1.19398477594662        5.99454953236940       -0.57497726507133
H            0.37412306002435        5.52360710092439       -1.20133525544497
H            1.12720391905044        4.89527770500714        1.10701060011052
H           -0.41021802046912        5.43171849614108        1.76261975649696
H           -1.57678671106998        3.68514476807383        0.34721607687444
H           -0.03835786381938        3.12459036922082       -0.20845822624765
156
 energy: -254.033977473587 gnorm: 0.016737694501 xtb: 6.7.1 (edcfbbe)
C            1.25933767038743        2.17810960129232       -3.60206445114616
C            2.21515401004936       -4.37542277037401       -0.36885914213448
C           -3.22650411396742        1.19572817508339       -1.52845838431774
C           -2.49424651695408        0.03265256467359       -1.42386865655030
C           -1.07811673034854        0.07746462531337       -1.55375669837503
C           -0.51258077218235        1.20165544385153       -2.21402457047245
C           -1.26056364206941        2.37485538578426       -2.28103352505273
C           -2.58356332873732        2.39170785047931       -1.84228759467587
C           -0.19827371257815       -0.92540795588123       -1.04747320180359
C            1.06808384223007       -1.05109900209780       -1.67398781907792
C            1.52510803767448       -0.03246007582818       -2.55739955462859
N            0.76553005344602        1.11237930127864       -2.73716565951956
C           -0.45204252196788       -1.73875651828578        0.10287793143562
C            0.34084648233481       -2.90557131162438        0.30983868193624
N            1.42778101521950       -3.15868081470383       -0.51820648078472
C            1.86342183437291       -2.20458764462350       -1.42866308787157
C            3.05536364058912       -2.35654655381113       -2.12349889005750
C            3.49656400580719       -1.35808888805081       -2.98646555634577
C            2.75259498623038       -0.19721906650370       -3.18275065697061
C           -1.38448254281741       -1.37461146843125        1.11108406997403
C           -1.58804636977414       -2.18771620571968        2.20487115029596
C           -0.90768894211874       -3.39212647671529        2.32384071199148
C            0.03041223510781       -3.75917037345272        1.36531600872194
O           -2.01051840885694       -0.16140362163273        1.02974820424598
O           -3.07965192692364       -1.19001172009915       -1.24697233626999
C           -3.23663017293434        3.69032633811743       -1.63050247701889
C           -1.14025023896436       -4.15788890094062        3.55585033405888
C            4.79880496885282       -1.44796205325820       -3.66462497558638
O            5.32229975738505       -0.51728778665524       -4.23778617987506
O            5.39649717823162       -2.65444916246022       -3.58257721620106
C            6.65676180952268       -2.69106270173013       -4.23433074315850
O           -2.65862889706535        4.75096657939345       -1.74544225043256
O           -4.51365212471202        3.61176650485428       -1.21457880227383
C           -5.03061282545036        4.84795603270631       -0.73187617155321
O           -2.03458915984895       -3.92442959896057        4.33576776316775
O           -0.23009502310047       -5.12886105299117        3.78615602753993
C           -0.39903642830669       -5.75084921596534        5.05310709956410
H           -4.28088465529849        1.22750177774342       -1.31179599479607
H           -0.83442180367584        3.31402332323758       -2.59154152427308
H           -2.23852034048573       -1.90251757501218        3.01472476092218
H            0.51170674710731       -4.70963971708338        1.50693771227885
H            3.68848805357077       -3.21716406433783       -2.01378049061067
H            3.18039718567964        0.55178990492628       -3.82574943991747
C            1.86511607499053       -5.41862379930781       -1.43454401896584
C            2.71352763453946       -6.67893886188570       -1.30070012706861
C            2.20500731361008        3.13588027934200       -2.87251985214318
C            2.75500334277007        4.22688073602128       -3.78206037292701
C           -3.30383874684942       -0.11012176388833        1.60046419990345
C           -4.46115463909880       -1.25740806681149       -1.53132936022691
H           -6.11277322870079        4.76080403409770       -0.65699479968490
H           -4.75734215731876        5.66108779825948       -1.40739689076268
H           -4.60621378069799        5.05756274368112        0.25436512632907
H            0.33385427435307       -6.55116058047360        5.14082310863252
H           -1.41495835799855       -6.14308207494721        5.13995646174781
H           -0.25042757057774       -5.00928494987007        5.84103161412530
H            7.05308894924532       -3.70129018025361       -4.15253957824367
H            7.33678244437136       -1.97261358096996       -3.76741474099477
H            6.53628292941648       -2.41086671122486       -5.28457475355096
H            2.05830451282641       -4.80520313434091        0.61757884289689
H            3.27763907653093       -4.12479029033022       -0.41443040913332
H            2.01232179917240       -4.98250421129152       -2.42402208195104
H            0.80844072832789       -5.67586495317144       -1.33687172884235
H            3.77116702203987       -6.44988688988378       -1.41346380635187
H            2.44073964451599       -7.39879085200573       -2.06859706692690
H            2.56685616669057       -7.14877397599506       -0.33021956535963
H           -3.72449976029960        0.86218803966539        1.34253942016785
H           -3.27253505935182       -0.20648829676874        2.68104230314264
H           -3.92517725850984       -0.91563367972834        1.20098973236935
H           -4.73667480848177       -2.31207849982547       -1.51105896027400