Optimization of monomers started
      -----------------------------------------------------------      
     |                   =====================                   |     
     |                           x T B                           |     
     |                   =====================                   |     
     |                         S. Grimme                         |     
     |          Mulliken Center for Theoretical Chemistry        |     
     |                    University of Bonn                     |     
      -----------------------------------------------------------      

   * xtb version 6.7.1 (edcfbbe) compiled by 'runner@Mac-1732539442253.local' on 2024-11-25

   xtb is free software: you can redistribute it and/or modify it under
   the terms of the GNU Lesser General Public License as published by
   the Free Software Foundation, either version 3 of the License, or
   (at your option) any later version.
   
   xtb is distributed in the hope that it will be useful,
   but WITHOUT ANY WARRANTY; without even the implied warranty of
   MERCHANTABILITY or FITNESS FOR A PARTICULAR PURPOSE.  See the
   GNU Lesser General Public License for more details.
   
   Cite this work as:
   * C. Bannwarth, E. Caldeweyher, S. Ehlert, A. Hansen, P. Pracht,
     J. Seibert, S. Spicher, S. Grimme, WIREs Comput. Mol. Sci., 2020, 11,
     e01493. DOI: 10.1002/wcms.1493
   
   for GFN2-xTB:
   * C. Bannwarth, S. Ehlert and S. Grimme., J. Chem. Theory Comput., 2019,
     15, 1652-1671. DOI: 10.1021/acs.jctc.8b01176
   for GFN1-xTB:
   * S. Grimme, C. Bannwarth, P. Shushkov, J. Chem. Theory Comput., 2017,
     13, 1989-2009. DOI: 10.1021/acs.jctc.7b00118
   for GFN0-xTB:
   * P. Pracht, E. Caldeweyher, S. Ehlert, S. Grimme, ChemRxiv, 2019, preprint.
     DOI: 10.26434/chemrxiv.8326202.v1
   for GFN-FF:
   * S. Spicher and S. Grimme, Angew. Chem. Int. Ed., 2020, 59, 15665-15673.
     DOI: 10.1002/anie.202004239
   
   for ALPB and GBSA implicit solvation:
   * S. Ehlert, M. Stahn, S. Spicher, S. Grimme, J. Chem. Theory Comput.,
     2021, 17, 4250-4261. DOI: 10.1021/acs.jctc.1c00471
   
   for ddCOSMO and CPCM-X implicit solvation:
   * M. Stahn, S. Ehlert, S. Grimme, J. Phys. Chem. A,
     2023, XX, XXXX-XXXX. DOI: 10.1021/acs.jpca.3c04382
   
   for DFT-D4:
   * E. Caldeweyher, C. Bannwarth and S. Grimme, J. Chem. Phys., 2017,
     147, 034112. DOI: 10.1063/1.4993215
   * E. Caldeweyher, S. Ehlert, A. Hansen, H. Neugebauer, S. Spicher,
     C. Bannwarth and S. Grimme, J. Chem. Phys., 2019, 150, 154122.
     DOI: 10.1063/1.5090222
   * E. Caldeweyher, J.-M. Mewes, S. Ehlert and S. Grimme, Phys. Chem. Chem. Phys.
     2020, 22, 8499-8512. DOI: 10.1039/D0CP00502A
   
   for sTDA-xTB:
   * S. Grimme and C. Bannwarth, J. Chem. Phys., 2016, 145, 054103.
     DOI: 10.1063/1.4959605
   
   in the mass-spec context:
   * V. Asgeirsson, C. Bauer and S. Grimme, Chem. Sci., 2017, 8, 4879.
     DOI: 10.1039/c7sc00601b
   * J. Koopman and S. Grimme, ACS Omega 2019, 4, 12, 15120-15133.
     DOI: 10.1021/acsomega.9b02011
   
   for metadynamics refer to:
   * S. Grimme, J. Chem. Theory Comput., 2019, 155, 2847-2862
     DOI: 10.1021/acs.jctc.9b00143
   
   for SPH calculations refer to:
   * S. Spicher and S. Grimme, J. Chem. Theory Comput., 2021, 17, 1701-1714
     DOI: 10.1021/acs.jctc.0c01306
   
   for ONIOM refer to:
   * C. Plett, A. Katbashev, S. Ehlert, S. Grimme, M. Bursch,
     Phys. Chem. Chem. Phys., 2023, 25, 17860-17868. DOI: 10.1039/D3CP02178E
   
   for DIPRO refer to:
   * J. Kohn, N. Gildemeister, S. Grimme, D. Fazzi, A. Hansen,
     J. Chem. Phys., 2023, just accepted.
   
   for PTB refer to:
   * S. Grimme, M. Mueller, A. Hansen, J. Chem. Phys., 2023, 158, 124111.
     DOI: 10.1063/5.0137838
   
   with help from (in alphabetical order)
   P. Atkinson, C. Bannwarth, F. Bohle, G. Brandenburg, E. Caldeweyher
   M. Checinski, S. Dohm, S. Ehlert, S. Ehrlich, I. Gerasimov, C. Hölzer
   A. Katbashev, J. Kohn, J. Koopman, C. Lavigne, S. Lehtola, F. März, M. Müller,
   F. Musil, H. Neugebauer, J. Pisarek, C. Plett, P. Pracht, F. Pultar,
   J. Seibert, P. Shushkov, S. Spicher, M. Stahn, M. Steiner, T. Strunk,
   J. Stückrath, T. Rose, and J. Unsleber
   
 * started run on 2025/03/21 at 15:34:50.284     
   ID    Z sym.   atoms
    1    6 C      1-9, 11, 12, 14-21, 25-33, 35, 36, 38-45, 48-71
    2    7 N      10, 13, 34, 37
    3    8 O      22, 23, 46, 47
    4    5 B      24
    5    1 H      72-137

           -------------------------------------------------
          |                Calculation Setup                |
           -------------------------------------------------

          program call               : xtb Base1tBu.mol --opt --chrg 0 --uhf 1 --tight --spinpol --tblite
          coordinate file            : Base1tBu.mol
          omp threads                :                     8

########################################################################
[WARNING] Please study the warnings concerning your input carefully
-2- prog_main: Charge in sdf/mol input was overwritten
-1- prog_main_parseArguments: Unknown option '--tight' provided
########################################################################
repulsion energy          3.2090722321784E+00 Eh
dispersion energy         3.5956337761325E-03 Eh
interaction energy        0.0000000000000E+00 Eh
number of electrons       3.6100000000000E+02 e
integral cutoff           1.9311100799991E+01 bohr

------------------------------------------------------------
  cycle        total energy    energy error   density error
------------------------------------------------------------
      1     -194.1166666330  -1.9732933E+02   1.0151847E-01
      2     -191.9702656157   2.1464010E+00   7.6509153E-02
      3     -183.2465914748   8.7236741E+00   9.6160515E-02
      4     -187.5389681637  -4.2923767E+00   8.2993526E-02
      5     -194.3789747086  -6.8400065E+00   4.0672749E-02
      6     -194.8602747524  -4.8130004E-01   2.2051328E-02
      7     -194.7777188246   8.2555928E-02   2.3266824E-02
      8     -194.9051969849  -1.2747816E-01   1.5686825E-02
      9     -194.9503535852  -4.5156600E-02   1.1195889E-02
     10     -194.9490306811   1.3229041E-03   7.0118803E-03
     11     -194.9580932862  -9.0626051E-03   4.5528831E-03
     12     -194.9579370827   1.5620343E-04   5.5374407E-03
     13     -194.9611052353  -3.1681526E-03   4.2897596E-03
     14     -194.9639854276  -2.8801923E-03   2.8755858E-03
     15     -194.9654343746  -1.4489470E-03   1.6308700E-03
     16     -194.9657449243  -3.1054977E-04   1.1811120E-03
     17     -194.9656041242   1.4080017E-04   1.2375549E-03
     18     -194.9658439399  -2.3981575E-04   7.0271926E-04
     19     -194.9659752183  -1.3127838E-04   2.0507855E-04
     20     -194.9659658298   9.3884774E-06   2.1142731E-04
     21     -194.9659701855  -4.3556703E-06   1.9306662E-04
     22     -194.9659824282  -1.2242757E-05   4.7745732E-05
     23     -194.9659826163  -1.8810115E-07   3.4914744E-05
     24     -194.9659828491  -2.3278076E-07   1.8536130E-05
------------------------------------------------------------

electronic energy        -1.9817865071507E+02 Eh
total energy             -1.9496598284912E+02 Eh

 total:                                  10.399 sec
 - repulsion                              0.002 sec (  0%)
 - dispersion                             0.026 sec (  0%)
 - coulomb                                0.005 sec (  0%)
 - hamiltonian                            0.022 sec (  0%)
 - scc                                   10.344 sec ( 99%)

      ----------------------------------------------------------- 
     |                   =====================                   |
     |                        A N C O P T                        |
     |                   =====================                   |
     |               Approximate Normal Coordinate               |
     |                Rational Function Optimizer                |
      ----------------------------------------------------------- 
      ----------------------------------------------------------- 
     |                   =====================                   |
     |                        A N C O P T                        |
     |                   =====================                   |
     |               Approximate Normal Coordinate               |
     |                Rational Function Optimizer                |
      ----------------------------------------------------------- 

          ...................................................
          :                      SETUP                      :
          :.................................................:
          :   optimization level            normal          :
          :   max. optcycles                   411          :
          :   ANC micro-cycles                  20          :
          :   degrees of freedom               405          :
          :.................................................:
          :   RF solver                   davidson          :
          :   write xtbopt.log                true          :
          :   linear?                        false          :
          :   energy convergence         0.5000000E-05 Eh   :
          :   grad. convergence          0.1000000E-02 Eh/α :
          :   maxmium RF displ.          1.0000000          :
          :   Hlow (freq-cutoff)         0.1000000E-01      :
          :   Hmax (freq-cutoff)         5.0000000          :
          :   S6 in model hess.         20.0000000          :
          ...................................................

generating ANC from exact Hessian ...
Using Lindh-Hessian (1995)
 Shifting diagonal of input Hessian by    1.1664657831475000E-002
 Lowest  eigenvalues of input Hessian
    0.010000    0.010251    0.010624    0.011290    0.011469    0.000000
    0.000000    0.000000    0.000000    0.000000    0.000000    0.011707
    0.011746    0.011811    0.011912    0.011972    0.012037    0.012230
 Highest eigenvalues
    2.329077    2.462783    2.516340    2.516772    2.690956    2.703279


........................................................................
.............................. CYCLE    1 ..............................
........................................................................
------------------------------------------------------------
  cycle        total energy    energy error   density error
------------------------------------------------------------
      1     -194.9659541964  -1.9817862E+02   2.2950643E-04
      2     -194.9642253066   1.7288898E-03   1.8803487E-03
      3     -194.9657360505  -1.5107439E-03   7.1017762E-04
      4     -194.9659826585  -2.4660804E-04   2.9115298E-05
      5     -194.9659827591  -1.0061919E-07   2.2997010E-05
      6     -194.9659829311  -1.7203885E-07   9.8264280E-06
------------------------------------------------------------

 total:                                   2.741 sec
 * total energy  :  -194.9659829 Eh     change       -0.8203040E-07 Eh
   gradient norm :     0.6936680 Eh/α   predicted     0.0000000E+00 (-100.00%)
   displ. norm   :     0.6091860 α      lambda       -0.3478815E+00
   maximum displ.:     0.1518396 α      in ANC's #260, #285, #264, ...

........................................................................
.............................. CYCLE    2 ..............................
........................................................................
------------------------------------------------------------
  cycle        total energy    energy error   density error
------------------------------------------------------------
      1     -195.2133136930  -1.9835531E+02   9.2276235E-03
      2     -194.8565258774   3.5678782E-01   2.3776842E-02
      3     -195.2250189058  -3.6849303E-01   6.4444628E-03
      4     -195.1639560038   6.1062902E-02   1.1861970E-02
      5     -195.2056906982  -4.1734694E-02   8.3704434E-03
      6     -195.2273701110  -2.1679413E-02   4.2950186E-03
      7     -195.2277502015  -3.8009046E-04   3.3983948E-03
      8     -195.2306864011  -2.9361997E-03   2.5831548E-03
      9     -195.2308685532  -1.8215205E-04   2.4007652E-03
     10     -195.2316519546  -7.8340140E-04   1.7145445E-03
     11     -195.2317830670  -1.3111237E-04   1.3872560E-03
     12     -195.2318366012  -5.3534205E-05   1.2140680E-03
     13     -195.2321193491  -2.8274795E-04   6.8228025E-04
     14     -195.2322042451  -8.4895980E-05   2.4115145E-04
     15     -195.2322012512   2.9939004E-06   1.7827539E-04
     16     -195.2322090490  -7.7977757E-06   1.2049602E-04
     17     -195.2322095775  -5.2855509E-07   5.1652110E-05
     18     -195.2322098953  -3.1778865E-07   4.5820519E-05
     19     -195.2322105809  -6.8561636E-07   1.1734550E-05
------------------------------------------------------------

 total:                                   8.892 sec
 * total energy  :  -195.2322106 Eh     change       -0.2662276E+00 Eh
   gradient norm :     0.3457762 Eh/α   predicted    -0.2386278E+00 ( -10.37%)
   displ. norm   :     0.6757914 α      lambda       -0.2002623E+00
   maximum displ.:     0.1732634 α      in ANC's #260, #257, #285, ...

........................................................................
.............................. CYCLE    3 ..............................
........................................................................
------------------------------------------------------------
  cycle        total energy    energy error   density error
------------------------------------------------------------
      1     -195.3606168000  -1.9855720E+02   1.0176607E-02
      2     -195.0328371002   3.2777970E-01   2.3192995E-02
      3     -195.3789319374  -3.4609484E-01   5.8664066E-03
      4     -195.3335905414   4.5341396E-02   1.0088225E-02
      5     -195.3513607446  -1.7770203E-02   9.1357902E-03
      6     -195.3719665301  -2.0605785E-02   6.1930883E-03
      7     -195.3773131903  -5.3466602E-03   4.1553328E-03
      8     -195.3811839363  -3.8707460E-03   2.8038789E-03
      9     -195.3819440624  -7.6012608E-04   2.2159539E-03
     10     -195.3827095354  -7.6547301E-04   1.4619859E-03
     11     -195.3828200148  -1.1047940E-04   1.2381910E-03
     12     -195.3829247354  -1.0472067E-04   9.5504514E-04
     13     -195.3830481119  -1.2337649E-04   6.3451281E-04
     14     -195.3831226422  -7.4530259E-05   2.3915730E-04
     15     -195.3831327834  -1.0141217E-05   6.6495302E-05
     16     -195.3831320345   7.4890934E-07   8.8586250E-05
     17     -195.3831326137  -5.7923430E-07   4.7277227E-05
     18     -195.3831330985  -4.8472108E-07   7.0641330E-06
------------------------------------------------------------

 total:                                   8.138 sec
 * total energy  :  -195.3831331 Eh     change       -0.1509225E+00 Eh
   gradient norm :     0.1601044 Eh/α   predicted    -0.1458605E+00 (  -3.35%)
   displ. norm   :     0.7329722 α      lambda       -0.1019341E+00
   maximum displ.:     0.1651365 α      in ANC's #82, #85, #94, ...

........................................................................
.............................. CYCLE    4 ..............................
........................................................................
------------------------------------------------------------
  cycle        total energy    energy error   density error
------------------------------------------------------------
      1     -195.4599153832  -1.9866844E+02   7.9282900E-03
      2     -195.4149308648   4.4984518E-02   1.0285352E-02
      3     -195.4013361319   1.3594733E-02   1.2454418E-02
      4     -195.4411859269  -3.9849795E-02   7.4844575E-03
      5     -195.4549257667  -1.3739840E-02   4.2702046E-03
      6     -195.4597313609  -4.8055942E-03   4.0694634E-03
      7     -195.4596181887   1.1317221E-04   4.0456183E-03
      8     -195.4602097930  -5.9160425E-04   3.7009709E-03
      9     -195.4648248267  -4.6150337E-03   4.6785336E-04
     10     -195.4649120174  -8.7190773E-05   2.6909801E-04
     11     -195.4649342914  -2.2274014E-05   1.6049504E-04
     12     -195.4649320016   2.2898429E-06   1.4339880E-04
     13     -195.4649262799   5.7216992E-06   1.5512569E-04
     14     -195.4649334972  -7.2172780E-06   8.4644605E-05
     15     -195.4649353853  -1.8881423E-06   3.9195531E-05
     16     -195.4649357553  -3.6998327E-07   1.5846644E-05
------------------------------------------------------------

 total:                                   6.938 sec
 * total energy  :  -195.4649358 Eh     change       -0.8180266E-01 Eh
   gradient norm :     0.1047509 Eh/α   predicted    -0.7834922E-01 (  -4.22%)
   displ. norm   :     0.7744659 α      lambda       -0.6567612E-01
   maximum displ.:     0.1946128 α      in ANC's #82, #30, #22, ...

........................................................................
.............................. CYCLE    5 ..............................
........................................................................
------------------------------------------------------------
  cycle        total energy    energy error   density error
------------------------------------------------------------
      1     -195.5172413131  -1.9871152E+02   6.7550611E-03
      2     -195.4930433525   2.4197961E-02   8.6533515E-03
      3     -195.4643985354   2.8644817E-02   1.1956587E-02
      4     -195.5061342403  -4.1735705E-02   5.6809247E-03
      5     -195.5175251204  -1.1390880E-02   2.1824113E-03
      6     -195.5186743086  -1.1491882E-03   1.4143623E-03
      7     -195.5196021717  -9.2786315E-04   5.5751936E-04
      8     -195.5194722815   1.2989021E-04   7.8401052E-04
      9     -195.5196233523  -1.5107083E-04   3.7930823E-04
     10     -195.5196565063  -3.3154000E-05   2.5217576E-04
     11     -195.5196810021  -2.4495734E-05   5.4725028E-05
     12     -195.5196811338  -1.3173471E-07   5.3662370E-05
     13     -195.5196819547  -8.2093922E-07   1.5994975E-05
------------------------------------------------------------

 total:                                   5.474 sec
 * total energy  :  -195.5196820 Eh     change       -0.5474620E-01 Eh
   gradient norm :     0.0795115 Eh/α   predicted    -0.5253427E-01 (  -4.04%)
   displ. norm   :     0.8106878 α      lambda       -0.4737337E-01
   maximum displ.:     0.2286354 α      in ANC's #30, #22, #82, ...

........................................................................
.............................. CYCLE    6 ..............................
........................................................................
------------------------------------------------------------
  cycle        total energy    energy error   density error
------------------------------------------------------------
      1     -195.5593669722  -1.9873728E+02   5.5938045E-03
      2     -195.5393731227   1.9993849E-02   7.6469510E-03
      3     -195.5111382569   2.8234866E-02   1.1316095E-02
      4     -195.5456016595  -3.4463403E-02   5.3362891E-03
      5     -195.5565877779  -1.0986118E-02   2.5884232E-03
      6     -195.5603114233  -3.7236453E-03   5.8715616E-04
      7     -195.5604359620  -1.2453878E-04   2.8524200E-04
      8     -195.5604544646  -1.8502586E-05   1.9465524E-04
      9     -195.5604603935  -5.9288501E-06   1.0903504E-04
     10     -195.5604566769   3.7165666E-06   1.3607590E-04
     11     -195.5604638832  -7.2063181E-06   2.6512060E-05
     12     -195.5604639438  -6.0605856E-08   1.6808734E-05
------------------------------------------------------------

 total:                                   3.962 sec
 * total energy  :  -195.5604639 Eh     change       -0.4078199E-01 Eh
   gradient norm :     0.0619162 Eh/α   predicted    -0.3925397E-01 (  -3.75%)
   displ. norm   :     0.8438352 α      lambda       -0.3719719E-01
   maximum displ.:     0.2536697 α      in ANC's #22, #30, #24, ...

........................................................................
.............................. CYCLE    7 ..............................
........................................................................
------------------------------------------------------------
  cycle        total energy    energy error   density error
------------------------------------------------------------
      1     -195.5928927445  -1.9875125E+02   4.5216911E-03
      2     -195.5851013747   7.7913697E-03   5.0532305E-03
      3     -195.5679172061   1.7184169E-02   7.9354864E-03
      4     -195.5850463576  -1.7129151E-02   3.8611433E-03
      5     -195.5876128835  -2.5665260E-03   3.6140225E-03
      6     -195.5928986456  -5.2857621E-03   1.0444689E-03
      7     -195.5932899387  -3.9129308E-04   3.9232480E-04
      8     -195.5933364444  -4.6505679E-05   1.3533451E-04
      9     -195.5933390681  -2.6237149E-06   8.7584525E-05
     10     -195.5933414803  -2.4121966E-06   4.2011324E-05
     11     -195.5933415552  -7.4945007E-08   3.1615843E-05
     12     -195.5933417704  -2.1512540E-07   1.8294847E-05
------------------------------------------------------------

 total:                                   4.169 sec
 * total energy  :  -195.5933418 Eh     change       -0.3287783E-01 Eh
   gradient norm :     0.0495287 Eh/α   predicted    -0.3184191E-01 (  -3.15%)
   displ. norm   :     0.8687056 α      lambda       -0.3126072E-01
   maximum displ.:     0.2835158 α      in ANC's #22, #30, #24, ...

........................................................................
.............................. CYCLE    8 ..............................
........................................................................
------------------------------------------------------------
  cycle        total energy    energy error   density error
------------------------------------------------------------
      1     -195.6205479054  -1.9876329E+02   3.9785972E-03
      2     -195.6157038806   4.8440248E-03   4.1382028E-03
      3     -195.5778043970   3.7899484E-02   1.0541455E-02
      4     -195.6140074624  -3.6203065E-02   3.6033547E-03
      5     -195.6187673435  -4.7598811E-03   2.0686927E-03
      6     -195.6202544260  -1.4870825E-03   1.2377439E-03
      7     -195.6207465196  -4.9209359E-04   5.5865133E-04
      8     -195.6208558072  -1.0928754E-04   1.3866267E-04
      9     -195.6208588543  -3.0471522E-06   7.6828384E-05
     10     -195.6208584812   3.7313382E-07   7.8083169E-05
     11     -195.6208600999  -1.6187682E-06   3.9468199E-05
     12     -195.6208605228  -4.2280996E-07   1.4774391E-05
------------------------------------------------------------

 total:                                   3.953 sec
 * total energy  :  -195.6208605 Eh     change       -0.2751875E-01 Eh
   gradient norm :     0.0431359 Eh/α   predicted    -0.2742586E-01 (  -0.34%)
   displ. norm   :     0.8929938 α      lambda       -0.2766165E-01
   maximum displ.:     0.2863401 α      in ANC's #22, #30, #24, ...

........................................................................
.............................. CYCLE    9 ..............................
........................................................................
------------------------------------------------------------
  cycle        total energy    energy error   density error
------------------------------------------------------------
      1     -195.6423610394  -1.9876641E+02   3.8324625E-03
      2     -195.6044348660   3.7926173E-02   9.9306655E-03
      3     -195.6337715332  -2.9336667E-02   5.1122434E-03
      4     -195.6327868740   9.8465918E-04   4.6117528E-03
      5     -195.6427336900  -9.9468161E-03   1.1800365E-03
      6     -195.6431955698  -4.6187973E-04   5.0328496E-04
      7     -195.6432953146  -9.9744808E-05   2.3661050E-04
      8     -195.6433025215  -7.2069421E-06   1.6526102E-04
      9     -195.6433085418  -6.0202409E-06   8.3691122E-05
     10     -195.6433105062  -1.9644592E-06   2.9322803E-05
     11     -195.6433105070  -7.6883566E-10   2.8720043E-05
     12     -195.6433106958  -1.8886101E-07   1.6934281E-05
------------------------------------------------------------

 total:                                   4.755 sec
 * total energy  :  -195.6433107 Eh     change       -0.2245017E-01 Eh
   gradient norm :     0.0537756 Eh/α   predicted    -0.2486005E-01 (  10.73%)
   displ. norm   :     0.8567778 α      lambda       -0.2414371E-01
   maximum displ.:     0.3056931 α      in ANC's #22, #30, #24, ...

........................................................................
.............................. CYCLE   10 ..............................
........................................................................
------------------------------------------------------------
  cycle        total energy    energy error   density error
------------------------------------------------------------
      1     -195.6624022824  -1.9877354E+02   2.9828375E-03
      2     -195.6595924011   2.8098813E-03   3.2188688E-03
      3     -195.6418899374   1.7702464E-02   7.1395271E-03
      4     -195.6610127178  -1.9122780E-02   1.8360062E-03
      5     -195.6618296022  -8.1688442E-04   1.2705608E-03
      6     -195.6624662356  -6.3663339E-04   4.4747072E-04
      7     -195.6625610769  -9.4841368E-05   1.2922322E-04
      8     -195.6625664724  -5.3955028E-06   6.4064041E-05
      9     -195.6625671503  -6.7781946E-07   2.7801524E-05
     10     -195.6625671213   2.8978860E-08   2.6420441E-05
     11     -195.6625672947  -1.7347494E-07   1.2678529E-05
------------------------------------------------------------

 total:                                   3.630 sec
 * total energy  :  -195.6625673 Eh     change       -0.1925660E-01 Eh
   gradient norm :     0.0476408 Eh/α   predicted    -0.2093342E-01 (   8.71%)
   displ. norm   :     0.8486226 α      lambda       -0.2084531E-01
   maximum displ.:     0.2983693 α      in ANC's #22, #24, #30, ...

........................................................................
.............................. CYCLE   11 ..............................
........................................................................
------------------------------------------------------------
  cycle        total energy    energy error   density error
------------------------------------------------------------
      1     -195.6776357640  -1.9876734E+02   3.1212396E-03
      2     -195.6769117932   7.2397076E-04   2.4225525E-03
      3     -195.6588650526   1.8046741E-02   6.7593716E-03
      4     -195.6661614447  -7.2963921E-03   5.5082710E-03
      5     -195.6765638305  -1.0402386E-02   1.7346792E-03
      6     -195.6776645916  -1.1007611E-03   7.8187502E-04
      7     -195.6779715388  -3.0694724E-04   2.0686799E-04
      8     -195.6779800015  -8.4626824E-06   1.1964767E-04
      9     -195.6779849520  -4.9505180E-06   3.7037263E-05
     10     -195.6779849587  -6.6721100E-09   3.0514263E-05
     11     -195.6779852482  -2.8950396E-07   1.4621450E-05
------------------------------------------------------------

 total:                                   3.774 sec
 * total energy  :  -195.6779852 Eh     change       -0.1541795E-01 Eh
   gradient norm :     0.0549402 Eh/α   predicted    -0.1792866E-01 (  16.28%)
   displ. norm   :     0.8160959 α      lambda       -0.1743704E-01
   maximum displ.:     0.2881173 α      in ANC's #22, #24, #34, ...

........................................................................
.............................. CYCLE   12 ..............................
........................................................................
------------------------------------------------------------
  cycle        total energy    energy error   density error
------------------------------------------------------------
      1     -195.6920314871  -1.9877257E+02   2.4845320E-03
      2     -195.6892950729   2.7364142E-03   2.8540170E-03
      3     -195.6786947110   1.0600362E-02   5.8245000E-03
      4     -195.6819674786  -3.2727676E-03   4.9386735E-03
      5     -195.6918724790  -9.9050004E-03   9.8268884E-04
      6     -195.6922452310  -3.7275194E-04   3.4245306E-04
      7     -195.6922971323  -5.1901304E-05   1.5329256E-04
      8     -195.6923042704  -7.1381385E-06   7.0016129E-05
      9     -195.6923033214   9.4904274E-07   7.8202783E-05
     10     -195.6923056120  -2.2906583E-06   2.0058437E-05
     11     -195.6923056520  -3.9944609E-08   1.3837795E-05
------------------------------------------------------------

 total:                                   2.927 sec
 * total energy  :  -195.6923057 Eh     change       -0.1432040E-01 Eh
   gradient norm :     0.0320184 Eh/α   predicted    -0.1452517E-01 (   1.43%)
   displ. norm   :     0.8471828 α      lambda       -0.1443721E-01
   maximum displ.:     0.3144500 α      in ANC's #22, #24, #18, ...

........................................................................
.............................. CYCLE   13 ..............................
........................................................................
------------------------------------------------------------
  cycle        total energy    energy error   density error
------------------------------------------------------------
      1     -195.7042502446  -1.9877022E+02   2.5302968E-03
      2     -195.7013318592   2.9183854E-03   3.1277346E-03
      3     -195.6889789759   1.2352883E-02   6.2265803E-03
      4     -195.7012454530  -1.2266477E-02   2.3522645E-03
      5     -195.7032860587  -2.0406058E-03   1.5274763E-03
      6     -195.7043353225  -1.0492638E-03   2.4696987E-04
      7     -195.7043565103  -2.1187744E-05   8.1019057E-05
      8     -195.7043571863  -6.7604094E-07   6.2963860E-05
      9     -195.7043577803  -5.9401646E-07   4.6048797E-05
     10     -195.7043582509  -4.7063159E-07   2.3414134E-05
     11     -195.7043584026  -1.5169266E-07   1.0972620E-05
------------------------------------------------------------

 total:                                   3.200 sec
 * total energy  :  -195.7043584 Eh     change       -0.1205275E-01 Eh
   gradient norm :     0.0294281 Eh/α   predicted    -0.1239955E-01 (   2.88%)
   displ. norm   :     0.8568541 α      lambda       -0.1205782E-01
   maximum displ.:     0.3043042 α      in ANC's #22, #24, #18, ...

........................................................................
.............................. CYCLE   14 ..............................
........................................................................
------------------------------------------------------------
  cycle        total energy    energy error   density error
------------------------------------------------------------
      1     -195.7146400144  -1.9877137E+02   2.4645373E-03
      2     -195.7005935497   1.4046465E-02   6.1954181E-03
      3     -195.7102769735  -9.6834238E-03   3.5416243E-03
      4     -195.7108041878  -5.2721429E-04   2.9848503E-03
      5     -195.7141460357  -3.3418479E-03   1.2424128E-03
      6     -195.7148425759  -6.9654018E-04   4.1239887E-04
      7     -195.7148885818  -4.6005923E-05   2.4180028E-04
      8     -195.7149049773  -1.6395537E-05   1.2386172E-04
      9     -195.7149102434  -5.2660217E-06   3.5702769E-05
     10     -195.7149104677  -2.2438539E-07   1.6768514E-05
------------------------------------------------------------

 total:                                   3.708 sec
 * total energy  :  -195.7149105 Eh     change       -0.1055207E-01 Eh
   gradient norm :     0.0225245 Eh/α   predicted    -0.1045533E-01 (  -0.92%)
   displ. norm   :     0.8656870 α      lambda       -0.1005586E-01
   maximum displ.:     0.3001000 α      in ANC's #22, #19, #18, ...

........................................................................
.............................. CYCLE   15 ..............................
........................................................................
------------------------------------------------------------
  cycle        total energy    energy error   density error
------------------------------------------------------------
      1     -195.7236014438  -1.9876702E+02   2.5866350E-03
      2     -195.7124155059   1.1185938E-02   5.4323337E-03
      3     -195.7147118395  -2.2963336E-03   4.9526224E-03
      4     -195.7179001038  -3.1882643E-03   3.3700518E-03
      5     -195.7229284814  -5.0283776E-03   1.3738742E-03
      6     -195.7237718088  -8.4332737E-04   2.7326571E-04
      7     -195.7237993676  -2.7558800E-05   9.9500781E-05
      8     -195.7238013616  -1.9939966E-06   6.4343931E-05
      9     -195.7238015143  -1.5275810E-07   4.9649141E-05
     10     -195.7238016987  -1.8435821E-07   3.1184188E-05
     11     -195.7238019770  -2.7833582E-07   1.2530360E-05
------------------------------------------------------------

 total:                                   5.522 sec
 * total energy  :  -195.7238020 Eh     change       -0.8891509E-02 Eh
   gradient norm :     0.0215721 Eh/α   predicted    -0.8795952E-02 (  -1.07%)
   displ. norm   :     0.8774742 α      lambda       -0.9251637E-02
   maximum displ.:     0.2731758 α      in ANC's #22, #18, #19, ...

........................................................................
.............................. CYCLE   16 ..............................
........................................................................
------------------------------------------------------------
  cycle        total energy    energy error   density error
------------------------------------------------------------
      1     -195.7307733999  -1.9877015E+02   2.9354446E-03
      2     -195.7075124666   2.3260933E-02   7.7702105E-03
      3     -195.7273376563  -1.9825190E-02   3.4013979E-03
      4     -195.7267917617   5.4589463E-04   3.0619722E-03
      5     -195.7302746603  -3.4828986E-03   1.4831993E-03
      6     -195.7311568444  -8.8218412E-04   5.9872539E-04
      7     -195.7311861493  -2.9304970E-05   5.0924539E-04
      8     -195.7312769992  -9.0849822E-05   1.4925173E-04
      9     -195.7312841933  -7.1941330E-06   3.0062236E-05
     10     -195.7312842677  -7.4359889E-08   2.2895611E-05
     11     -195.7312843653  -9.7637809E-08   1.6117847E-05
------------------------------------------------------------

 total:                                   5.024 sec
 * total energy  :  -195.7312844 Eh     change       -0.7482388E-02 Eh
   gradient norm :     0.0347655 Eh/α   predicted    -0.8187517E-02 (   9.42%)
   displ. norm   :     0.8238201 α      lambda       -0.8233066E-02
   maximum displ.:     0.2468356 α      in ANC's #22, #19, #18, ...

........................................................................
.............................. CYCLE   17 ..............................
........................................................................
------------------------------------------------------------
  cycle        total energy    energy error   density error
------------------------------------------------------------
      1     -195.7377607005  -1.9876767E+02   2.7179871E-03
      2     -195.7364653170   1.2953835E-03   2.3854303E-03
      3     -195.7322317695   4.2335475E-03   3.5245436E-03
      4     -195.7184809028   1.3750867E-02   6.7153135E-03
      5     -195.7375705804  -1.9089678E-02   9.9023674E-04
      6     -195.7379034401  -3.3285972E-04   3.4679247E-04
      7     -195.7379494069  -4.5966770E-05   1.7505851E-04
      8     -195.7379542893  -4.8824824E-06   1.3256718E-04
      9     -195.7379566435  -2.3541611E-06   9.2021917E-05
     10     -195.7379587597  -2.1162094E-06   4.6041224E-05
     11     -195.7379594740  -7.1434326E-07   1.2393416E-05
------------------------------------------------------------

 total:                                   4.661 sec
 * total energy  :  -195.7379595 Eh     change       -0.6675109E-02 Eh
   gradient norm :     0.0220193 Eh/α   predicted    -0.6910352E-02 (   3.52%)
   displ. norm   :     0.8232161 α      lambda       -0.6555646E-02
   maximum displ.:     0.2264687 α      in ANC's #22, #19, #8, ...

........................................................................
.............................. CYCLE   18 ..............................
........................................................................
------------------------------------------------------------
  cycle        total energy    energy error   density error
------------------------------------------------------------
      1     -195.7432097812  -1.9876149E+02   2.8170237E-03
      2     -195.7191989097   2.4010871E-02   7.7622374E-03
      3     -195.7342058234  -1.5006914E-02   5.0193691E-03
      4     -195.7361911558  -1.9853324E-03   3.8482905E-03
      5     -195.7429244970  -6.7333412E-03   1.0921581E-03
      6     -195.7435035634  -5.7906632E-04   2.4941822E-04
      7     -195.7435177678  -1.4204398E-05   1.4837358E-04
      8     -195.7435233233  -5.5555034E-06   8.3104170E-05
      9     -195.7435237877  -4.6437870E-07   6.0888271E-05
     10     -195.7435243433  -5.5567136E-07   3.4596424E-05
     11     -195.7435246367  -2.9340922E-07   1.4716017E-05
------------------------------------------------------------

 total:                                   4.885 sec
 * total energy  :  -195.7435246 Eh     change       -0.5565163E-02 Eh
   gradient norm :     0.0195048 Eh/α   predicted    -0.5499156E-02 (  -1.19%)
   displ. norm   :     0.8265284 α      lambda       -0.5771903E-02
   maximum displ.:     0.2446374 α      in ANC's #14, #19, #8, ...

........................................................................
.............................. CYCLE   19 ..............................
........................................................................
------------------------------------------------------------
  cycle        total energy    energy error   density error
------------------------------------------------------------
      1     -195.7483784189  -1.9876974E+02   2.6741728E-03
      2     -195.7464082228   1.9701961E-03   2.7523285E-03
      3     -195.7223900870   2.4018136E-02   7.9478065E-03
      4     -195.7317548000  -9.3647129E-03   6.1808907E-03
      5     -195.7479733630  -1.6218563E-02   1.0286392E-03
      6     -195.7483857791  -4.1241613E-04   5.2304001E-04
      7     -195.7484675520  -8.1772898E-05   2.8038294E-04
      8     -195.7484934251  -2.5873085E-05   1.0477347E-04
      9     -195.7484965746  -3.1494438E-06   4.5521603E-05
     10     -195.7484965650   9.5225801E-09   3.3460336E-05
     11     -195.7484969601  -3.9510769E-07   9.2525293E-06
------------------------------------------------------------

 total:                                   4.442 sec
 * total energy  :  -195.7484970 Eh     change       -0.4972323E-02 Eh
   gradient norm :     0.0161640 Eh/α   predicted    -0.4857492E-02 (  -2.31%)
   displ. norm   :     0.8455393 α      lambda       -0.5283545E-02
   maximum displ.:     0.2657451 α      in ANC's #14, #8, #19, ...

........................................................................
.............................. CYCLE   20 ..............................
........................................................................
------------------------------------------------------------
  cycle        total energy    energy error   density error
------------------------------------------------------------
      1     -195.7525288695  -1.9876573E+02   3.0252326E-03
      2     -195.7495541926   2.9746769E-03   3.1575768E-03
      3     -195.7248603376   2.4693855E-02   8.0671267E-03
      4     -195.7417771818  -1.6916844E-02   4.8143540E-03
      5     -195.7517230196  -9.9458378E-03   1.4451358E-03
      6     -195.7525451159  -8.2209626E-04   5.8299038E-04
      7     -195.7525189881   2.6127808E-05   6.2132487E-04
      8     -195.7525510556  -3.2067531E-05   5.3616072E-04
      9     -195.7526316692  -8.0613581E-05   2.7211425E-04
     10     -195.7526601981  -2.8528981E-05   3.5103000E-05
     11     -195.7526603044  -1.0629537E-07   3.2563830E-05
     12     -195.7526605143  -2.0990981E-07   1.9339513E-05
------------------------------------------------------------

 total:                                   4.829 sec
 * total energy  :  -195.7526605 Eh     change       -0.4163554E-02 Eh
   gradient norm :     0.0255509 Eh/α   predicted    -0.4530477E-02 (   8.81%)
   displ. norm   :     0.7751804 α      lambda       -0.5073510E-02
   maximum displ.:     0.2875915 α      in ANC's #14, #8, #31, ...
 * RMSD in coord.:     1.1210394 α      energy gain  -0.7866777E+00 Eh

generating ANC from exact Hessian ...
Using Lindh-Hessian (1995)
 Shifting diagonal of input Hessian by    1.0425281571689532E-002
 Lowest  eigenvalues of input Hessian
    0.010000    0.000000    0.000000    0.000000    0.000000    0.000000
    0.000000    0.010463    0.010520    0.010567    0.010629    0.010723
    0.010843    0.010877    0.010898    0.010960    0.011221    0.011230
 Highest eigenvalues
    2.080676    2.082143    2.187304    2.193985    2.196232    2.201279


........................................................................
.............................. CYCLE   21 ..............................
........................................................................
------------------------------------------------------------
  cycle        total energy    energy error   density error
------------------------------------------------------------
      1     -195.7560880960  -1.9877401E+02   2.6980485E-03
      2     -195.7250442561   3.1043840E-02   8.6983648E-03
      3     -195.7477431548  -2.2698899E-02   4.7725319E-03
      4     -195.7506048161  -2.8616613E-03   3.5710323E-03
      5     -195.7559815215  -5.3767054E-03   1.0119773E-03
      6     -195.7563224358  -3.4091429E-04   5.9317843E-04
      7     -195.7564220041  -9.9568351E-05   3.2488133E-04
      8     -195.7564606542  -3.8650087E-05   9.7195407E-05
      9     -195.7564617156  -1.0614568E-06   7.4101759E-05
     10     -195.7564631921  -1.4764400E-06   3.6837335E-05
     11     -195.7564636324  -4.4029088E-07   1.4910852E-05
------------------------------------------------------------

 total:                                   4.749 sec
 * total energy  :  -195.7564636 Eh     change       -0.3803118E-02 Eh
   gradient norm :     0.0210039 Eh/α   predicted     0.0000000E+00 (-100.00%)
   displ. norm   :     0.3404673 α      lambda       -0.2740453E-02
   maximum displ.:     0.1180710 α      in ANC's #9, #6, #27, ...

........................................................................
.............................. CYCLE   22 ..............................
........................................................................
------------------------------------------------------------
  cycle        total energy    energy error   density error
------------------------------------------------------------
      1     -195.7587886607  -1.9878029E+02   1.4989810E-03
      2     -195.7583284445   4.6021624E-04   1.3259264E-03
      3     -195.7411835307   1.7144914E-02   6.4508441E-03
      4     -195.7585546120  -1.7371081E-02   7.2332415E-04
      5     -195.7586319909  -7.7378932E-05   6.1909607E-04
      6     -195.7587911002  -1.5910927E-04   2.1278154E-04
      7     -195.7587867567   4.3434701E-06   2.2559512E-04
      8     -195.7587973706  -1.0613809E-05   1.5665117E-04
      9     -195.7588058035  -8.4329247E-06   5.7794261E-05
     10     -195.7588071250  -1.3215335E-06   7.1880312E-06
     11     -195.7588071415  -1.6519778E-08   3.0814516E-06
------------------------------------------------------------

 total:                                   5.518 sec
 * total energy  :  -195.7588071 Eh     change       -0.2343509E-02 Eh
   gradient norm :     0.0095168 Eh/α   predicted    -0.1529099E-02 ( -34.75%)
   displ. norm   :     0.7315483 α      lambda       -0.4182669E-02
   maximum displ.:     0.2618793 α      in ANC's #9, #27, #6, ...

........................................................................
.............................. CYCLE   23 ..............................
........................................................................
------------------------------------------------------------
  cycle        total energy    energy error   density error
------------------------------------------------------------
      1     -195.7622251790  -1.9878485E+02   2.8941525E-03
      2     -195.7613858666   8.3931240E-04   2.3068823E-03
      3     -195.7176966424   4.3689224E-02   1.0212097E-02
      4     -195.7605059487  -4.2809306E-02   1.9920422E-03
      5     -195.7617644602  -1.2585115E-03   1.1214729E-03
      6     -195.7621432383  -3.7877808E-04   5.9048343E-04
      7     -195.7622707221  -1.2748377E-04   2.2240863E-04
      8     -195.7622830745  -1.2352434E-05   1.3495318E-04
      9     -195.7622899716  -6.8970976E-06   5.2505156E-05
     10     -195.7622896418   3.2977294E-07   5.6931262E-05
     11     -195.7622905891  -9.4727486E-07   2.9468745E-05
     12     -195.7622908320  -2.4287399E-07   1.3917375E-05
------------------------------------------------------------

 total:                                   5.696 sec
 * total energy  :  -195.7622908 Eh     change       -0.3483690E-02 Eh
   gradient norm :     0.0177780 Eh/α   predicted    -0.3211245E-02 (  -7.82%)
   displ. norm   :     0.7771861 α      lambda       -0.3578637E-02
   maximum displ.:     0.2910387 α      in ANC's #9, #27, #11, ...

........................................................................
.............................. CYCLE   24 ..............................
........................................................................
------------------------------------------------------------
  cycle        total energy    energy error   density error
------------------------------------------------------------
      1     -195.7654356038  -1.9878497E+02   2.8347442E-03
      2     -195.7564078708   9.0277330E-03   4.8494002E-03
      3     -195.7448296109   1.1578260E-02   7.0871803E-03
      4     -195.7644515159  -1.9621905E-02   1.5975778E-03
      5     -195.7651836164  -7.3210047E-04   9.0206803E-04
      6     -195.7654316176  -2.4800120E-04   5.3826012E-04
      7     -195.7654146505   1.6967089E-05   5.8516741E-04
      8     -195.7654230951  -8.4446144E-06   5.4971070E-04
      9     -195.7655345044  -1.1140935E-04   1.3157377E-04
     10     -195.7655412356  -6.7311119E-06   1.2991511E-05
     11     -195.7655412572  -2.1667972E-08   9.4452453E-06
------------------------------------------------------------

 total:                                   4.602 sec
 * total energy  :  -195.7655413 Eh     change       -0.3250425E-02 Eh
   gradient norm :     0.0237549 Eh/α   predicted    -0.2870099E-02 ( -11.70%)
   displ. norm   :     0.8178949 α      lambda       -0.3958580E-02
   maximum displ.:     0.3154804 α      in ANC's #9, #11, #6, ...

........................................................................
.............................. CYCLE   25 ..............................
........................................................................
------------------------------------------------------------
  cycle        total energy    energy error   density error
------------------------------------------------------------
      1     -195.7690444210  -1.9878634E+02   2.7990915E-03
      2     -195.7644673067   4.5771143E-03   3.7266045E-03
      3     -195.7405721240   2.3895183E-02   8.2721094E-03
      4     -195.7677546791  -2.7182555E-02   1.7945884E-03
      5     -195.7687296696  -9.7499053E-04   9.5140896E-04
      6     -195.7690053192  -2.7564953E-04   5.1469234E-04
      7     -195.7691122251  -1.0690595E-04   1.8445711E-04
      8     -195.7691136957  -1.4706116E-06   1.7543113E-04
      9     -195.7691261056  -1.2409853E-05   3.0492526E-05
     10     -195.7691254381   6.6747316E-07   4.7780180E-05
     11     -195.7691261226  -6.8448131E-07   2.5783212E-05
     12     -195.7691263419  -2.1933636E-07   1.0324033E-05
------------------------------------------------------------

 total:                                   5.499 sec
 * total energy  :  -195.7691263 Eh     change       -0.3585085E-02 Eh
   gradient norm :     0.0179732 Eh/α   predicted    -0.3303340E-02 (  -7.86%)
   displ. norm   :     0.8341138 α      lambda       -0.3852841E-02
   maximum displ.:     0.3301132 α      in ANC's #9, #11, #6, ...

........................................................................
.............................. CYCLE   26 ..............................
........................................................................
------------------------------------------------------------
  cycle        total energy    energy error   density error
------------------------------------------------------------
      1     -195.7724993265  -1.9878951E+02   2.8326924E-03
      2     -195.7653780903   7.1212362E-03   4.3621132E-03
      3     -195.7498499702   1.5528120E-02   7.3272998E-03
      4     -195.7715963831  -2.1746413E-02   1.5602424E-03
      5     -195.7722085260  -6.1214293E-04   9.2361266E-04
      6     -195.7724923622  -2.8383622E-04   5.2341178E-04
      7     -195.7724791320   1.3230276E-05   5.6497713E-04
      8     -195.7724705719   8.5600902E-06   5.6851102E-04
      9     -195.7725823023  -1.1173040E-04   1.8181976E-04
     10     -195.7725954046  -1.3102308E-05   1.4435176E-05
     11     -195.7725954590  -5.4435162E-08   8.8696061E-06
------------------------------------------------------------

 total:                                   4.945 sec
 * total energy  :  -195.7725955 Eh     change       -0.3469117E-02 Eh
   gradient norm :     0.0124333 Eh/α   predicted    -0.3266724E-02 (  -5.83%)
   displ. norm   :     0.8425599 α      lambda       -0.3512958E-02
   maximum displ.:     0.3425942 α      in ANC's #9, #11, #6, ...

........................................................................
.............................. CYCLE   27 ..............................
........................................................................
------------------------------------------------------------
  cycle        total energy    energy error   density error
------------------------------------------------------------
      1     -195.7756992091  -1.9879434E+02   2.7896938E-03
      2     -195.7717762843   3.9229248E-03   3.3952735E-03
      3     -195.7485149254   2.3261359E-02   7.8685444E-03
      4     -195.7751233097  -2.6608384E-02   1.1618567E-03
      5     -195.7755323993  -4.0908966E-04   7.3298491E-04
      6     -195.7756072605  -7.4861166E-05   6.6811628E-04
      7     -195.7756018399   5.4205744E-06   6.8671917E-04
      8     -195.7756050924  -3.2524707E-06   6.6550654E-04
      9     -195.7757608015  -1.5570914E-04   1.8401567E-04
     10     -195.7757735232  -1.2721696E-05   4.5767274E-05
     11     -195.7757738851  -3.6181385E-07   3.1801546E-05
     12     -195.7757742595  -3.7440807E-07   5.7719264E-06
------------------------------------------------------------

 total:                                   5.510 sec
 * total energy  :  -195.7757743 Eh     change       -0.3178800E-02 Eh
   gradient norm :     0.0102165 Eh/α   predicted    -0.3003415E-02 (  -5.52%)
   displ. norm   :     0.8656431 α      lambda       -0.3226242E-02
   maximum displ.:     0.3562471 α      in ANC's #9, #11, #6, ...

........................................................................
.............................. CYCLE   28 ..............................
........................................................................
------------------------------------------------------------
  cycle        total energy    energy error   density error
------------------------------------------------------------
      1     -195.7786540852  -1.9879589E+02   2.7873971E-03
      2     -195.7766311059   2.0229794E-03   2.6710019E-03
      3     -195.7468434402   2.9787666E-02   8.3187232E-03
      4     -195.7766671084  -2.9823668E-02   2.0129673E-03
      5     -195.7782631773  -1.5960689E-03   1.0305727E-03
      6     -195.7785850252  -3.2184788E-04   6.4508673E-04
      7     -195.7785135459   7.1479334E-05   7.6693671E-04
      8     -195.7785222077  -8.6618259E-06   7.3894584E-04
      9     -195.7787156790  -1.9347125E-04   1.8002381E-04
     10     -195.7787255068  -9.8278616E-06   1.0201791E-04
     11     -195.7787279259  -2.4190643E-06   5.7746311E-05
     12     -195.7787291487  -1.2227810E-06   8.2033881E-06
     13     -195.7787288321   3.1659170E-07   3.0481531E-05
     14     -195.7787290549  -2.2282856E-07   1.7365095E-05
------------------------------------------------------------

 total:                                   6.672 sec
 * total energy  :  -195.7787291 Eh     change       -0.2954795E-02 Eh
   gradient norm :     0.0126287 Eh/α   predicted    -0.2821938E-02 (  -4.50%)
   displ. norm   :     0.8539165 α      lambda       -0.3330426E-02
   maximum displ.:     0.3522993 α      in ANC's #9, #11, #6, ...

........................................................................
.............................. CYCLE   29 ..............................
........................................................................
------------------------------------------------------------
  cycle        total energy    energy error   density error
------------------------------------------------------------
      1     -195.7812488093  -1.9881209E+02   2.6940662E-03
      2     -195.7676518030   1.3597006E-02   5.8342841E-03
      3     -195.7697546443  -2.1028413E-03   5.3711036E-03
      4     -195.7800055309  -1.0250887E-02   1.6209770E-03
      5     -195.7809815340  -9.7600309E-04   9.6750119E-04
      6     -195.7813832565  -4.0172247E-04   2.9951793E-04
      7     -195.7813829603   2.9616652E-07   3.0730914E-04
      8     -195.7813817214   1.2389508E-06   3.0272241E-04
      9     -195.7814059061  -2.4184734E-05   1.7206861E-04
     10     -195.7814167580  -1.0851897E-05   4.3363710E-05
     11     -195.7814173251  -5.6703655E-07   1.9840187E-05
------------------------------------------------------------

 total:                                   4.854 sec
 * total energy  :  -195.7814173 Eh     change       -0.2688270E-02 Eh
   gradient norm :     0.0200085 Eh/α   predicted    -0.2879442E-02 (   7.11%)
   displ. norm   :     0.8496468 α      lambda       -0.3301704E-02
   maximum displ.:     0.3468420 α      in ANC's #9, #6, #11, ...

........................................................................
.............................. CYCLE   30 ..............................
........................................................................
------------------------------------------------------------
  cycle        total energy    energy error   density error
------------------------------------------------------------
      1     -195.7839964663  -1.9880258E+02   2.7080125E-03
      2     -195.7827084744   1.2879919E-03   2.3551560E-03
      3     -195.7520013457   3.0707129E-02   8.6638145E-03
      4     -195.7653941628  -1.3392817E-02   6.3373831E-03
      5     -195.7838493592  -1.8455196E-02   8.4955508E-04
      6     -195.7840831159  -2.3375665E-04   3.4686438E-04
      7     -195.7841301958  -4.7079873E-05   1.1563603E-04
      8     -195.7841320884  -1.8926240E-06   8.5272549E-05
      9     -195.7841343398  -2.2514243E-06   4.0675799E-05
     10     -195.7841347658  -4.2601164E-07   1.8919872E-05
------------------------------------------------------------

 total:                                   3.565 sec
 * total energy  :  -195.7841348 Eh     change       -0.2717441E-02 Eh
   gradient norm :     0.0177686 Eh/α   predicted    -0.2842602E-02 (   4.61%)
   displ. norm   :     0.7724037 α      lambda       -0.2741584E-02
   maximum displ.:     0.3128585 α      in ANC's #6, #9, #11, ...

........................................................................
.............................. CYCLE   31 ..............................
........................................................................
------------------------------------------------------------
  cycle        total energy    energy error   density error
------------------------------------------------------------
      1     -195.7865543003  -1.9880015E+02   2.2313958E-03
      2     -195.7835946004   2.9596998E-03   2.8927993E-03
      3     -195.7672391387   1.6355462E-02   6.7072555E-03
      4     -195.7836001205  -1.6360982E-02   2.4346334E-03
      5     -195.7863415212  -2.7414006E-03   8.3802839E-04
      6     -195.7865524248  -2.1090360E-04   4.5521454E-04
      7     -195.7865673898  -1.4964999E-05   4.0767873E-04
      8     -195.7866002526  -3.2862804E-05   2.8390336E-04
      9     -195.7866245518  -2.4299224E-05   1.3636051E-04
     10     -195.7866314264  -6.8745457E-06   3.5544581E-05
     11     -195.7866318268  -4.0040746E-07   1.4321077E-05
------------------------------------------------------------

 total:                                   3.838 sec
 * total energy  :  -195.7866318 Eh     change       -0.2497061E-02 Eh
   gradient norm :     0.0164839 Eh/α   predicted    -0.2188622E-02 ( -12.35%)
   displ. norm   :     0.7824692 α      lambda       -0.3305360E-02
   maximum displ.:     0.3093068 α      in ANC's #6, #11, #9, ...

........................................................................
.............................. CYCLE   32 ..............................
........................................................................
------------------------------------------------------------
  cycle        total energy    energy error   density error
------------------------------------------------------------
      1     -195.7893449447  -1.9881022E+02   2.2935160E-03
      2     -195.7889731655   3.7177920E-04   1.6625652E-03
      3     -195.7648764304   2.4096735E-02   7.3212328E-03
      4     -195.7846244207  -1.9747990E-02   3.2632427E-03
      5     -195.7888729439  -4.2485232E-03   1.0979797E-03
      6     -195.7893694553  -4.9651149E-04   3.4413226E-04
      7     -195.7893538153   1.5640082E-05   3.9710976E-04
      8     -195.7893621989  -8.3836146E-06   3.5936159E-04
      9     -195.7894008721  -3.8673182E-05   1.7312627E-04
     10     -195.7894125888  -1.1716754E-05   1.5336949E-05
     11     -195.7894126616  -7.2814174E-08   7.1706549E-06
------------------------------------------------------------

 total:                                   3.122 sec
 * total energy  :  -195.7894127 Eh     change       -0.2780835E-02 Eh
   gradient norm :     0.0147640 Eh/α   predicted    -0.2664552E-02 (  -4.18%)
   displ. norm   :     0.8422487 α      lambda       -0.2867374E-02
   maximum displ.:     0.3577023 α      in ANC's #6, #11, #9, ...

........................................................................
.............................. CYCLE   33 ..............................
........................................................................
------------------------------------------------------------
  cycle        total energy    energy error   density error
------------------------------------------------------------
      1     -195.7917578588  -1.9880859E+02   2.4905597E-03
      2     -195.7836374846   8.1203742E-03   4.5357694E-03
      3     -195.7764866582   7.1508264E-03   6.1021565E-03
      4     -195.7860908992  -9.6042410E-03   3.3743331E-03
      5     -195.7915368590  -5.4459598E-03   9.2889292E-04
      6     -195.7918005770  -2.6371800E-04   4.8070965E-04
      7     -195.7918080335  -7.4564560E-06   4.5661427E-04
      8     -195.7918413960  -3.3362524E-05   3.4696825E-04
      9     -195.7918759340  -3.4538022E-05   1.7861766E-04
     10     -195.7918865883  -1.0654240E-05   6.3548138E-05
     11     -195.7918877130  -1.1247764E-06   3.0125783E-05
     12     -195.7918879714  -2.5831602E-07   9.6603776E-06
------------------------------------------------------------

 total:                                   4.215 sec
 * total energy  :  -195.7918880 Eh     change       -0.2475310E-02 Eh
   gradient norm :     0.0150396 Eh/α   predicted    -0.2450729E-02 (  -0.99%)
   displ. norm   :     0.7900439 α      lambda       -0.2648751E-02
   maximum displ.:     0.3323079 α      in ANC's #6, #3, #11, ...

........................................................................
.............................. CYCLE   34 ..............................
........................................................................
------------------------------------------------------------
  cycle        total energy    energy error   density error
------------------------------------------------------------
      1     -195.7939846040  -1.9881614E+02   2.3521915E-03
      2     -195.7815602152   1.2424389E-02   5.5683103E-03
      3     -195.7860384931  -4.4782778E-03   4.5130185E-03
      4     -195.7911220437  -5.0835506E-03   2.4225959E-03
      5     -195.7937659150  -2.6438714E-03   8.5702212E-04
      6     -195.7940720961  -3.0618106E-04   2.9415623E-04
      7     -195.7940838325  -1.1736372E-05   2.4314778E-04
      8     -195.7940884484  -4.6159215E-06   2.1327729E-04
      9     -195.7940989607  -1.0512262E-05   1.3482523E-04
     10     -195.7941045034  -5.5427818E-06   6.1358858E-05
     11     -195.7941055096  -1.0061378E-06   3.2759992E-05
     12     -195.7941058428  -3.3321098E-07   1.2333395E-05
------------------------------------------------------------

 total:                                   3.797 sec
 * total energy  :  -195.7941058 Eh     change       -0.2217871E-02 Eh
   gradient norm :     0.0131156 Eh/α   predicted    -0.2151014E-02 (  -3.01%)
   displ. norm   :     0.7855530 α      lambda       -0.2193874E-02
   maximum displ.:     0.3714058 α      in ANC's #6, #3, #11, ...

........................................................................
.............................. CYCLE   35 ..............................
........................................................................
------------------------------------------------------------
  cycle        total energy    energy error   density error
------------------------------------------------------------
      1     -195.7959412937  -1.9881432E+02   2.0642988E-03
      2     -195.7952325976   7.0869607E-04   1.8005745E-03
      3     -195.7645824424   3.0650155E-02   8.5997046E-03
      4     -195.7906589838  -2.6076541E-02   3.3175559E-03
      5     -195.7958102113  -5.1512275E-03   6.1810929E-04
      6     -195.7959601083  -1.4989706E-04   2.4132775E-04
      7     -195.7959824163  -2.2308004E-05   9.8452927E-05
      8     -195.7959859474  -3.5310711E-06   3.8399206E-05
      9     -195.7959861436  -1.9617039E-07   2.7366394E-05
     10     -195.7959863475  -2.0396129E-07   1.2809036E-05
------------------------------------------------------------

 total:                                   3.030 sec
 * total energy  :  -195.7959863 Eh     change       -0.1880505E-02 Eh
   gradient norm :     0.0120141 Eh/α   predicted    -0.1773858E-02 (  -5.67%)
   displ. norm   :     0.7336327 α      lambda       -0.2056368E-02
   maximum displ.:     0.3609021 α      in ANC's #6, #3, #11, ...

........................................................................
.............................. CYCLE   36 ..............................
........................................................................
------------------------------------------------------------
  cycle        total energy    energy error   density error
------------------------------------------------------------
      1     -195.7974972681  -1.9881979E+02   1.8586111E-03
      2     -195.7918064369   5.6908312E-03   3.8044306E-03
      3     -195.7880033309   3.8031060E-03   4.8535926E-03
      4     -195.7970208567  -9.0175258E-03   1.0517577E-03
      5     -195.7974241177  -4.0326097E-04   5.3758565E-04
      6     -195.7975283320  -1.0421433E-04   3.0618144E-04
      7     -195.7975592351  -3.0903120E-05   1.5291693E-04
      8     -195.7975622070  -2.9718679E-06   1.2121770E-04
      9     -195.7975655132  -3.3062556E-06   7.5729870E-05
     10     -195.7975674658  -1.9525390E-06   2.7193772E-05
     11     -195.7975676826  -2.1680481E-07   1.3310181E-05
------------------------------------------------------------

 total:                                   3.567 sec
 * total energy  :  -195.7975677 Eh     change       -0.1581335E-02 Eh
   gradient norm :     0.0172531 Eh/α   predicted    -0.1581571E-02 (   0.01%)
   displ. norm   :     0.7549112 α      lambda       -0.2101705E-02
   maximum displ.:     0.3746964 α      in ANC's #6, #3, #11, ...

........................................................................
.............................. CYCLE   37 ..............................
........................................................................
------------------------------------------------------------
  cycle        total energy    energy error   density error
------------------------------------------------------------
      1     -195.7990293676  -1.9882011E+02   1.7764970E-03
      2     -195.7918700723   7.1592953E-03   4.2319403E-03
      3     -195.7932014906  -1.3314184E-03   3.8641632E-03
      4     -195.7950283078  -1.8268171E-03   2.8607527E-03
      5     -195.7990745272  -4.0462194E-03   3.4455530E-04
      6     -195.7991030841  -2.8556843E-05   2.0324989E-04
      7     -195.7991125099  -9.4258334E-06   1.3927853E-04
      8     -195.7991184111  -5.9012233E-06   6.8197157E-05
      9     -195.7991193959  -9.8482059E-07   4.2039066E-05
     10     -195.7991198988  -5.0283566E-07   2.2416394E-05
     11     -195.7991200626  -1.6385764E-07   9.0211996E-06
------------------------------------------------------------

 total:                                   3.517 sec
 * total energy  :  -195.7991201 Eh     change       -0.1552380E-02 Eh
   gradient norm :     0.0162167 Eh/α   predicted    -0.1649731E-02 (   6.27%)
   displ. norm   :     0.6778820 α      lambda       -0.1868472E-02
   maximum displ.:     0.3558422 α      in ANC's #6, #3, #8, ...

........................................................................
.............................. CYCLE   38 ..............................
........................................................................
------------------------------------------------------------
  cycle        total energy    energy error   density error
------------------------------------------------------------
      1     -195.8005544648  -1.9881647E+02   1.5425568E-03
      2     -195.7862739902   1.4280475E-02   5.8210890E-03
      3     -195.7986738894  -1.2399899E-02   2.3486516E-03
      4     -195.7994897534  -8.1586398E-04   1.5434393E-03
      5     -195.8006287325  -1.1389791E-03   4.7494795E-04
      6     -195.8006859085  -5.7175991E-05   2.9070714E-04
      7     -195.8007090649  -2.3156363E-05   1.6180893E-04
      8     -195.8007179225  -8.8576018E-06   5.7720225E-05
      9     -195.8007188738  -9.5135894E-07   2.4196564E-05
     10     -195.8007191074  -2.3363685E-07   4.8674387E-06
------------------------------------------------------------

 total:                                   3.790 sec
 * total energy  :  -195.8007191 Eh     change       -0.1599045E-02 Eh
   gradient norm :     0.0138220 Eh/α   predicted    -0.1363541E-02 ( -14.73%)
   displ. norm   :     0.7180284 α      lambda       -0.2422419E-02
   maximum displ.:     0.3855481 α      in ANC's #6, #3, #8, ...

........................................................................
.............................. CYCLE   39 ..............................
........................................................................
------------------------------------------------------------
  cycle        total energy    energy error   density error
------------------------------------------------------------
      1     -195.8023928095  -1.9882304E+02   1.6976835E-03
      2     -195.7872117718   1.5181038E-02   6.0404374E-03
      3     -195.8002925175  -1.3080746E-02   2.4960658E-03
      4     -195.8018853841  -1.5928666E-03   1.1988817E-03
      5     -195.8023348465  -4.4946242E-04   7.4851601E-04
      6     -195.8025548583  -2.2001179E-04   2.8614044E-04
      7     -195.8025809760  -2.6117695E-05   1.2305468E-04
      8     -195.8025852747  -4.2987203E-06   6.1895221E-05
      9     -195.8025866007  -1.3259940E-06   1.9678826E-05
     10     -195.8025866955  -9.4769007E-08   1.2678076E-05
------------------------------------------------------------

 total:                                   2.820 sec
 * total energy  :  -195.8025867 Eh     change       -0.1867588E-02 Eh
   gradient norm :     0.0157683 Eh/α   predicted    -0.1835671E-02 (  -1.71%)
   displ. norm   :     0.7930686 α      lambda       -0.2060479E-02
   maximum displ.:     0.4149469 α      in ANC's #6, #3, #8, ...

........................................................................
.............................. CYCLE   40 ..............................
........................................................................
------------------------------------------------------------
  cycle        total energy    energy error   density error
------------------------------------------------------------
      1     -195.8044141633  -1.9882215E+02   1.6283041E-03
      2     -195.8024249899   1.9891734E-03   2.3514199E-03
      3     -195.7905902836   1.1834706E-02   5.8459791E-03
      4     -195.8035630821  -1.2972798E-02   1.3070999E-03
      5     -195.8043721929  -8.0911079E-04   4.2546601E-04
      6     -195.8044457775  -7.3584658E-05   1.2178008E-04
      7     -195.8044484342  -2.6566493E-06   8.1204517E-05
      8     -195.8044502588  -1.8246123E-06   4.4455078E-05
      9     -195.8044506769  -4.1811802E-07   2.9956199E-05
     10     -195.8044506865  -9.5733128E-09   2.8820335E-05
     11     -195.8044507871  -1.0061027E-07   2.3604828E-05
     12     -195.8044509304  -1.4329714E-07   1.2939479E-05
------------------------------------------------------------

 total:                                   4.564 sec
 * total energy  :  -195.8044509 Eh     change       -0.1864235E-02 Eh
   gradient norm :     0.0157988 Eh/α   predicted    -0.1678227E-02 (  -9.98%)
   displ. norm   :     0.8268086 α      lambda       -0.2217364E-02
   maximum displ.:     0.4456354 α      in ANC's #6, #3, #8, ...

........................................................................
.............................. CYCLE   41 ..............................
........................................................................
------------------------------------------------------------
  cycle        total energy    energy error   density error
------------------------------------------------------------
      1     -195.8064069039  -1.9882250E+02   1.6425522E-03
      2     -195.8063763724   3.0531455E-05   9.9884760E-04
      3     -195.7940350758   1.2341297E-02   5.4570975E-03
      4     -195.8048721407  -1.0837065E-02   1.8685522E-03
      5     -195.8063318757  -1.4597350E-03   4.5522459E-04
      6     -195.8064254926  -9.3616963E-05   9.8936906E-05
      7     -195.8064249168   5.7580164E-07   9.9912988E-05
      8     -195.8064268071  -1.8903123E-06   7.2849488E-05
      9     -195.8064280201  -1.2129789E-06   4.7295259E-05
     10     -195.8064284772  -4.5712156E-07   3.1115379E-05
     11     -195.8064286403  -1.6310079E-07   2.2898077E-05
     12     -195.8064287566  -1.1626690E-07   1.4289990E-05
------------------------------------------------------------

 total:                                   4.997 sec
 * total energy  :  -195.8064288 Eh     change       -0.1977826E-02 Eh
   gradient norm :     0.0111665 Eh/α   predicted    -0.1866596E-02 (  -5.62%)
   displ. norm   :     0.8463322 α      lambda       -0.2181722E-02
   maximum displ.:     0.4513497 α      in ANC's #6, #3, #8, ...

........................................................................
.............................. CYCLE   42 ..............................
........................................................................
------------------------------------------------------------
  cycle        total energy    energy error   density error
------------------------------------------------------------
      1     -195.8083228449  -1.9882460E+02   1.6629291E-03
      2     -195.8080432228   2.7962210E-04   1.2714842E-03
      3     -195.7887878682   1.9255355E-02   6.8015919E-03
      4     -195.8076647457  -1.8876877E-02   1.2123199E-03
      5     -195.8082203901  -5.5564448E-04   5.3021504E-04
      6     -195.8083336101  -1.1321997E-04   1.7898204E-04
      7     -195.8083440654  -1.0455259E-05   7.4412608E-05
      8     -195.8083457580  -1.6926194E-06   3.2159392E-05
      9     -195.8083461071  -3.4912415E-07   1.5846390E-05
------------------------------------------------------------

 total:                                   3.166 sec
 * total energy  :  -195.8083461 Eh     change       -0.1917351E-02 Eh
   gradient norm :     0.0116942 Eh/α   predicted    -0.1872228E-02 (  -2.35%)
   displ. norm   :     0.8583054 α      lambda       -0.2057266E-02
   maximum displ.:     0.4571972 α      in ANC's #6, #3, #8, ...
 * RMSD in coord.:     1.1826454 α      energy gain  -0.5568559E-01 Eh

generating ANC from exact Hessian ...
Using Lindh-Hessian (1995)
 Shifting diagonal of input Hessian by    1.0089435516234990E-002
 Lowest  eigenvalues of input Hessian
    0.010000    0.000000    0.000000    0.000000    0.000000    0.000000
    0.000000    0.010125    0.010147    0.010244    0.010269    0.010416
    0.010489    0.010554    0.010593    0.010826    0.010891    0.010950
 Highest eigenvalues
    2.088920    2.093209    2.187069    2.187652    2.201935    2.205696


........................................................................
.............................. CYCLE   43 ..............................
........................................................................
------------------------------------------------------------
  cycle        total energy    energy error   density error
------------------------------------------------------------
      1     -195.8101663546  -1.9882523E+02   1.6583116E-03
      2     -195.8065500126   3.6163421E-03   3.1121856E-03
      3     -195.8020913648   4.4586477E-03   4.5307241E-03
      4     -195.8100990780  -8.0077132E-03   4.7980136E-04
      5     -195.8102062529  -1.0717484E-04   1.2182044E-04
      6     -195.8102108448  -4.5919325E-06   7.0850516E-05
      7     -195.8102115145  -6.6966905E-07   5.0935845E-05
      8     -195.8102123490  -8.3451812E-07   2.2151837E-05
      9     -195.8102122223   1.2674852E-07   2.4149793E-05
     10     -195.8102124933  -2.7107328E-07   8.5265671E-06
------------------------------------------------------------

 total:                                   3.238 sec
 * total energy  :  -195.8102125 Eh     change       -0.1866386E-02 Eh
   gradient norm :     0.0123710 Eh/α   predicted     0.0000000E+00 (-100.00%)
   displ. norm   :     0.2183727 α      lambda       -0.8122681E-03
   maximum displ.:     0.1011929 α      in ANC's #7, #3, #1, ...

........................................................................
.............................. CYCLE   44 ..............................
........................................................................
------------------------------------------------------------
  cycle        total energy    energy error   density error
------------------------------------------------------------
      1     -195.8108629527  -1.9883097E+02   7.1438036E-04
      2     -195.8021096187   8.7533340E-03   4.6416704E-03
      3     -195.8108061946  -8.6965759E-03   6.3183907E-04
      4     -195.8105689431   2.3725142E-04   8.3566565E-04
      5     -195.8109107189  -3.4177574E-04   1.4726802E-04
      6     -195.8109203490  -9.6301091E-06   3.4554221E-05
      7     -195.8109207524  -4.0339768E-07   1.9316165E-05
------------------------------------------------------------

 total:                                   2.881 sec
 * total energy  :  -195.8109208 Eh     change       -0.7082590E-03 Eh
   gradient norm :     0.0056169 Eh/α   predicted    -0.4255075E-03 ( -39.92%)
   displ. norm   :     0.6135463 α      lambda       -0.1692652E-02
   maximum displ.:     0.2893803 α      in ANC's #7, #3, #1, ...

........................................................................
.............................. CYCLE   45 ..............................
........................................................................
------------------------------------------------------------
  cycle        total energy    energy error   density error
------------------------------------------------------------
      1     -195.8122646595  -1.9883747E+02   1.4440133E-03
      2     -195.8051721341   7.0925255E-03   4.2311061E-03
      3     -195.8092244497  -4.0523157E-03   2.8719199E-03
      4     -195.8108126725  -1.5882227E-03   1.6861102E-03
      5     -195.8122297574  -1.4170849E-03   5.1264753E-04
      6     -195.8123258128  -9.6055398E-05   1.7051428E-04
      7     -195.8123347180  -8.9052333E-06   8.4997140E-05
      8     -195.8123362392  -1.5211444E-06   5.6167823E-05
      9     -195.8123366727  -4.3350994E-07   4.1918788E-05
     10     -195.8123371386  -4.6587479E-07   2.2366347E-05
     11     -195.8123372534  -1.1482499E-07   1.4106886E-05
------------------------------------------------------------

 total:                                   4.494 sec
 * total energy  :  -195.8123373 Eh     change       -0.1416501E-02 Eh
   gradient norm :     0.0092452 Eh/α   predicted    -0.1164916E-02 ( -17.76%)
   displ. norm   :     0.7438648 α      lambda       -0.1630190E-02
   maximum displ.:     0.3519536 α      in ANC's #7, #3, #1, ...

........................................................................
.............................. CYCLE   46 ..............................
........................................................................
------------------------------------------------------------
  cycle        total energy    energy error   density error
------------------------------------------------------------
      1     -195.8138251216  -1.9883786E+02   1.5381558E-03
      2     -195.8129014419   9.2367971E-04   1.7946753E-03
      3     -195.7998326815   1.3068760E-02   5.8737954E-03
      4     -195.8136768793  -1.3844198E-02   5.9849197E-04
      5     -195.8138282399  -1.5136055E-04   1.9216845E-04
      6     -195.8138365557  -8.3158503E-06   1.2037110E-04
      7     -195.8138394454  -2.8897387E-06   8.8157192E-05
      8     -195.8138421066  -2.6611573E-06   5.2090357E-05
      9     -195.8138428595  -7.5286607E-07   2.8795640E-05
     10     -195.8138430846  -2.2512097E-07   1.5236797E-05
------------------------------------------------------------

 total:                                   3.665 sec
 * total energy  :  -195.8138431 Eh     change       -0.1505831E-02 Eh
   gradient norm :     0.0142529 Eh/α   predicted    -0.1266221E-02 ( -15.91%)
   displ. norm   :     0.8268756 α      lambda       -0.1849187E-02
   maximum displ.:     0.3953535 α      in ANC's #7, #3, #1, ...

........................................................................
.............................. CYCLE   47 ..............................
........................................................................
------------------------------------------------------------
  cycle        total energy    energy error   density error
------------------------------------------------------------
[...]
   but WITHOUT ANY WARRANTY; without even the implied warranty of
   MERCHANTABILITY or FITNESS FOR A PARTICULAR PURPOSE.  See the
   GNU Lesser General Public License for more details.
   
   Cite this work as:
   * C. Bannwarth, E. Caldeweyher, S. Ehlert, A. Hansen, P. Pracht,
     J. Seibert, S. Spicher, S. Grimme, WIREs Comput. Mol. Sci., 2020, 11,
     e01493. DOI: 10.1002/wcms.1493
   
   for GFN2-xTB:
   * C. Bannwarth, S. Ehlert and S. Grimme., J. Chem. Theory Comput., 2019,
     15, 1652-1671. DOI: 10.1021/acs.jctc.8b01176
   for GFN1-xTB:
   * S. Grimme, C. Bannwarth, P. Shushkov, J. Chem. Theory Comput., 2017,
     13, 1989-2009. DOI: 10.1021/acs.jctc.7b00118
   for GFN0-xTB:
   * P. Pracht, E. Caldeweyher, S. Ehlert, S. Grimme, ChemRxiv, 2019, preprint.
     DOI: 10.26434/chemrxiv.8326202.v1
   for GFN-FF:
   * S. Spicher and S. Grimme, Angew. Chem. Int. Ed., 2020, 59, 15665-15673.
     DOI: 10.1002/anie.202004239
   
   for ALPB and GBSA implicit solvation:
   * S. Ehlert, M. Stahn, S. Spicher, S. Grimme, J. Chem. Theory Comput.,
     2021, 17, 4250-4261. DOI: 10.1021/acs.jctc.1c00471
   
   for ddCOSMO and CPCM-X implicit solvation:
   * M. Stahn, S. Ehlert, S. Grimme, J. Phys. Chem. A,
     2023, XX, XXXX-XXXX. DOI: 10.1021/acs.jpca.3c04382
   
   for DFT-D4:
   * E. Caldeweyher, C. Bannwarth and S. Grimme, J. Chem. Phys., 2017,
     147, 034112. DOI: 10.1063/1.4993215
   * E. Caldeweyher, S. Ehlert, A. Hansen, H. Neugebauer, S. Spicher,
     C. Bannwarth and S. Grimme, J. Chem. Phys., 2019, 150, 154122.
     DOI: 10.1063/1.5090222
   * E. Caldeweyher, J.-M. Mewes, S. Ehlert and S. Grimme, Phys. Chem. Chem. Phys.
     2020, 22, 8499-8512. DOI: 10.1039/D0CP00502A
   
   for sTDA-xTB:
   * S. Grimme and C. Bannwarth, J. Chem. Phys., 2016, 145, 054103.
     DOI: 10.1063/1.4959605
   
   in the mass-spec context:
   * V. Asgeirsson, C. Bauer and S. Grimme, Chem. Sci., 2017, 8, 4879.
     DOI: 10.1039/c7sc00601b
   * J. Koopman and S. Grimme, ACS Omega 2019, 4, 12, 15120-15133.
     DOI: 10.1021/acsomega.9b02011
   
   for metadynamics refer to:
   * S. Grimme, J. Chem. Theory Comput., 2019, 155, 2847-2862
     DOI: 10.1021/acs.jctc.9b00143
   
   for SPH calculations refer to:
   * S. Spicher and S. Grimme, J. Chem. Theory Comput., 2021, 17, 1701-1714
     DOI: 10.1021/acs.jctc.0c01306
   
   for ONIOM refer to:
   * C. Plett, A. Katbashev, S. Ehlert, S. Grimme, M. Bursch,
     Phys. Chem. Chem. Phys., 2023, 25, 17860-17868. DOI: 10.1039/D3CP02178E
   
   for DIPRO refer to:
   * J. Kohn, N. Gildemeister, S. Grimme, D. Fazzi, A. Hansen,
     J. Chem. Phys., 2023, just accepted.
   
   for PTB refer to:
   * S. Grimme, M. Mueller, A. Hansen, J. Chem. Phys., 2023, 158, 124111.
     DOI: 10.1063/5.0137838
   
   with help from (in alphabetical order)
   P. Atkinson, C. Bannwarth, F. Bohle, G. Brandenburg, E. Caldeweyher
   M. Checinski, S. Dohm, S. Ehlert, S. Ehrlich, I. Gerasimov, C. Hölzer
   A. Katbashev, J. Kohn, J. Koopman, C. Lavigne, S. Lehtola, F. März, M. Müller,
   F. Musil, H. Neugebauer, J. Pisarek, C. Plett, P. Pracht, F. Pultar,
   J. Seibert, P. Shushkov, S. Spicher, M. Stahn, M. Steiner, T. Strunk,
   J. Stückrath, T. Rose, and J. Unsleber
   
 * started run on 2025/03/21 at 17:15:48.297     
   ID    Z sym.   atoms
    1    6 C      1-9, 11, 12, 14-21, 25-33, 35, 36, 38-45, 48-71, 138-146,
                  148, 149, 151-158, 162-170, 172, 173, 175-182, 185-208
    2    7 N      10, 13, 34, 37, 147, 150, 171, 174
    3    8 O      22, 23, 46, 47, 159, 160, 183, 184
    4    5 B      24, 161
    5    1 H      72-137, 209-274

           -------------------------------------------------
          |                Calculation Setup                |
           -------------------------------------------------

          program call               : xtb opt_dimer.mol --dipro 0.3 --chrg 0 --uhf 2 --spinpol --tblite
          coordinate file            : opt_dimer.mol
          omp threads                :                     8


molecular fragmentation (1/2 indicates fragments):
111111111111111111111111111111111111111111111111111111111111111111111111
111111111111111111111111111111111111111111111111111111111111111112222222
222222222222222222222222222222222222222222222222222222222222222222222222
2222222222222222222222222222222222222222222222222222222222
# atoms in fragment 1/2:   137   137
 fragment masses (1/2) :      942.03      942.03
CMA distance (Bohr)    :  12.170
constraining FC (au)   :  0.0500
Wavefunction read from restart file
           -------------------------------------------------
          |                    D I P R O                    |
           -------------------------------------------------
Calculation for dimer 
--------------------- 
  
charge of dimer :   0.
unpaired e- of dimer :  2
repulsion energy          6.0513738865641E+00 Eh
dispersion energy         3.5102573730843E-02 Eh
number of electrons       7.2200000000000E+02 e
integral cutoff           1.9311100799991E+01 bohr

------------------------------------------------------------
  cycle        total energy    energy error   density error
------------------------------------------------------------
      1     -390.5775262988  -3.9666400E+02   1.3848505E-01
      2     -391.4777615929  -9.0023529E-01   7.2722821E-02
      3     -390.1448418625   1.3329197E+00   5.3233979E-02
      4     -387.5222385658   2.6226033E+00   5.5950476E-02
      5     -390.1625579148  -2.6403193E+00   3.8624740E-02
      6     -391.3470618378  -1.1845039E+00   2.6339778E-02
      7     -391.6504394544  -3.0337762E-01   1.7780818E-02
      8     -391.7021808642  -5.1741410E-02   1.3279046E-02
      9     -391.6835263534   1.8654511E-02   1.1517863E-02
     10     -391.7439972620  -6.0470909E-02   8.2174892E-03
     11     -391.7202538088   2.3743453E-02   1.0720038E-02
     12     -391.7704500203  -5.0196211E-02   4.3747501E-03
     13     -391.7580768402   1.2373180E-02   5.9237253E-03
     14     -391.7741735230  -1.6096683E-02   3.0961307E-03
     15     -391.7649300430   9.2434799E-03   4.4692493E-03
     16     -391.7785420649  -1.3612022E-02   1.5176725E-03
     17     -391.7788430201  -3.0095520E-04   1.1878295E-03
     18     -391.7795148113  -6.7179110E-04   6.2617203E-04
     19     -391.7797605776  -2.4576639E-04   2.3932015E-04
     20     -391.7797996206  -3.9042923E-05   8.7466919E-05
     21     -391.7798023710  -2.7504338E-06   4.6512916E-05
     22     -391.7798027936  -4.2264082E-07   3.5000258E-05
     23     -391.7798033399  -5.4627588E-07   1.4536912E-05
------------------------------------------------------------

electronic energy        -3.9786627980021E+02 Eh
total energy             -3.9177980333992E+02 Eh

 total:                                  18.264 sec
 - repulsion                              0.000 sec (  0%)
 - dispersion                             0.032 sec (  0%)
 - coulomb                                0.012 sec (  0%)
 - hamiltonian                            0.022 sec (  0%)
 - scc                                   18.197 sec ( 99%)

Found 2 fragments!
Fragment 1:  1-137
Fragment 2:  138-274

[Info] Fragment spin read from .UHFfrag
Calculation for fragment 1
 ------------------------------
   
charge of fragment :   0.
unpaired e- of fragment :  1
------------------------------------------------------------
  cycle        total energy    energy error   density error
------------------------------------------------------------
      1     -195.2535961287  -1.9828205E+02   1.4029324E-01
      2     -195.7203926710  -4.6679654E-01   7.3995401E-02
      3     -195.2968703164   4.2352235E-01   5.1974664E-02
      4     -195.2128995398   8.3970777E-02   4.2220802E-02
      5     -195.7296776078  -5.1677807E-01   2.2351653E-02
      6     -195.7935565358  -6.3878928E-02   1.6139963E-02
      7     -195.8477212692  -5.4164733E-02   8.0167588E-03
      8     -195.8563377773  -8.6165081E-03   5.3887622E-03
      9     -195.8561451011   1.9267627E-04   5.0378291E-03
     10     -195.8591086422  -2.9635411E-03   2.7196030E-03
     11     -195.8553382065   3.7704357E-03   3.9727308E-03
     12     -195.8598063947  -4.4681881E-03   1.7174836E-03
     13     -195.8607719240  -9.6552929E-04   3.0116015E-04
     14     -195.8607916142  -1.9690226E-05   1.1621770E-04
     15     -195.8607888812   2.7330214E-06   1.0986087E-04
     16     -195.8607925327  -3.6515661E-06   3.2639649E-05
     17     -195.8607927234  -1.9065735E-07   1.7098844E-05
------------------------------------------------------------

 total:                                   2.714 sec
Calculation for fragment 2
 ------------------------------
   
charge of fragment :   0.
unpaired e- of fragment :  1
------------------------------------------------------------
  cycle        total energy    energy error   density error
------------------------------------------------------------
      1     -195.2541611223  -1.9828386E+02   1.3686997E-01
      2     -195.7072066522  -4.5304553E-01   7.1522693E-02
      3     -195.2116158593   4.9559079E-01   5.2662533E-02
      4     -195.2381489452  -2.6533086E-02   4.0840956E-02
      5     -195.7181734787  -4.8002453E-01   2.3138082E-02
      6     -195.8155304957  -9.7357017E-02   1.4134417E-02
      7     -195.8352404851  -1.9709989E-02   1.0262916E-02
      8     -195.8524502857  -1.7209801E-02   6.4854743E-03
      9     -195.8597716334  -7.3213477E-03   3.8048822E-03
     10     -195.8598496512  -7.8017758E-05   3.0099940E-03
     11     -195.8598927325  -4.3081340E-05   2.5261628E-03
     12     -195.8615086992  -1.6159666E-03   1.4802610E-03
     13     -195.8623039785  -7.9527937E-04   3.8436913E-04
     14     -195.8622748619   2.9116633E-05   4.0816981E-04
     15     -195.8623209611  -4.6099250E-05   2.1185869E-04
     16     -195.8623388019  -1.7840728E-05   2.7256990E-05
     17     -195.8623382520   5.4982391E-07   4.1450768E-05
     18     -195.8623386252  -3.7318569E-07   2.8237534E-05
     19     -195.8623389079  -2.8269517E-07   7.3937649E-06
------------------------------------------------------------

 total:                                   3.615 sec
   
   ::::::::::::::::::::::::::::::::::::::::::::::
   ::     D I P R O      C O U P L I N G S     ::
   ::::::::::::::::::::::::::::::::::::::::::::::
   
energy threshhold for near-degenerate orbitals near HOMO and LUMO considered for DIPRO:  0.300 eV
no. of orbitals within energy window of frag 1         6
no. of orbitals within energy window of frag 2         6
   
  Fragment 1 SOMO-3  Fragment 2 SOMO-3
--------------------------------------
E_mon(orb) frag1 frag2              -9.838    -9.829 eV
J(AB):                0.017 eV
S(AB):            -0.00063171 Eh
|J(AB,eff)|:            0.010 eV
   
  Fragment 1 SOMO-3  Fragment 2 SOMO-2
--------------------------------------
E_mon(orb) frag1 frag2              -9.838    -9.728 eV
J(AB):                0.008 eV
S(AB):            -0.00032216 Eh
|J(AB,eff)|:            0.005 eV
   
  Fragment 1 SOMO-3  Fragment 2 SOMO-1
--------------------------------------
E_mon(orb) frag1 frag2              -9.838    -9.734 eV
J(AB):               -0.001 eV
S(AB):             0.00002136 Eh
|J(AB,eff)|:            0.000 eV
   
  Fragment 1 SOMO-3  Fragment 2 SOMO 
--------------------------------------
E_mon(orb) frag1 frag2              -9.838    -9.597 eV
J(AB):               -0.016 eV
S(AB):             0.00060595 Eh
|J(AB,eff)|:            0.010 eV
   
  Fragment 1 SOMO-3  Fragment 2 LUMO 
--------------------------------------
E_mon(orb) frag1 frag2              -9.838    -9.263 eV
J(AB):               -0.013 eV
S(AB):             0.00043450 Eh
|J(AB,eff)|:            0.009 eV
   
  Fragment 1 SOMO-3  Fragment 2 LUMO+1
--------------------------------------
E_mon(orb) frag1 frag2              -9.838    -9.244 eV
J(AB):               -0.014 eV
S(AB):             0.00047677 Eh
|J(AB,eff)|:            0.009 eV
   
  Fragment 1 SOMO-2  Fragment 2 SOMO-3
--------------------------------------
E_mon(orb) frag1 frag2              -9.747    -9.829 eV
J(AB):                0.002 eV
S(AB):            -0.00010317 Eh
|J(AB,eff)|:            0.001 eV
   
  Fragment 1 SOMO-2  Fragment 2 SOMO-2
--------------------------------------
E_mon(orb) frag1 frag2              -9.747    -9.728 eV
J(AB):                0.001 eV
S(AB):            -0.00003152 Eh
|J(AB,eff)|:            0.001 eV
   
  Fragment 1 SOMO-2  Fragment 2 SOMO-1
--------------------------------------
E_mon(orb) frag1 frag2              -9.747    -9.734 eV
J(AB):                0.000 eV
S(AB):            -0.00000695 Eh
|J(AB,eff)|:            0.000 eV
   
  Fragment 1 SOMO-2  Fragment 2 SOMO 
--------------------------------------
E_mon(orb) frag1 frag2              -9.747    -9.597 eV
J(AB):                0.002 eV
S(AB):            -0.00007430 Eh
|J(AB,eff)|:            0.001 eV
   
  Fragment 1 SOMO-2  Fragment 2 LUMO 
--------------------------------------
E_mon(orb) frag1 frag2              -9.747    -9.263 eV
J(AB):               -0.002 eV
S(AB):             0.00006885 Eh
|J(AB,eff)|:            0.002 eV
   
  Fragment 1 SOMO-2  Fragment 2 LUMO+1
--------------------------------------
E_mon(orb) frag1 frag2              -9.747    -9.244 eV
J(AB):               -0.003 eV
S(AB):             0.00009545 Eh
|J(AB,eff)|:            0.002 eV
   
  Fragment 1 SOMO-1  Fragment 2 SOMO-3
--------------------------------------
E_mon(orb) frag1 frag2              -9.708    -9.829 eV
J(AB):               -0.008 eV
S(AB):             0.00031777 Eh
|J(AB,eff)|:            0.005 eV
   
  Fragment 1 SOMO-1  Fragment 2 SOMO-2
--------------------------------------
E_mon(orb) frag1 frag2              -9.708    -9.728 eV
J(AB):               -0.002 eV
S(AB):             0.00008433 Eh
|J(AB,eff)|:            0.001 eV
   
  Fragment 1 SOMO-1  Fragment 2 SOMO-1
--------------------------------------
E_mon(orb) frag1 frag2              -9.708    -9.734 eV
J(AB):                0.001 eV
S(AB):            -0.00004225 Eh
|J(AB,eff)|:            0.000 eV
   
  Fragment 1 SOMO-1  Fragment 2 SOMO 
--------------------------------------
E_mon(orb) frag1 frag2              -9.708    -9.597 eV
J(AB):                0.008 eV
S(AB):            -0.00030390 Eh
|J(AB,eff)|:            0.005 eV
   
  Fragment 1 SOMO-1  Fragment 2 LUMO 
--------------------------------------
E_mon(orb) frag1 frag2              -9.708    -9.263 eV
J(AB):                0.008 eV
S(AB):            -0.00032106 Eh
|J(AB,eff)|:            0.005 eV
   
  Fragment 1 SOMO-1  Fragment 2 LUMO+1
--------------------------------------
E_mon(orb) frag1 frag2              -9.708    -9.244 eV
J(AB):                0.005 eV
S(AB):            -0.00018668 Eh
|J(AB,eff)|:            0.003 eV
   
  Fragment 1 SOMO   Fragment 2 SOMO-3
--------------------------------------
E_mon(orb) frag1 frag2              -9.584    -9.829 eV
J(AB):                0.011 eV
S(AB):            -0.00040740 Eh
|J(AB,eff)|:            0.007 eV
   
  Fragment 1 SOMO   Fragment 2 SOMO-2
--------------------------------------
E_mon(orb) frag1 frag2              -9.584    -9.728 eV
J(AB):                0.006 eV
S(AB):            -0.00025340 Eh
|J(AB,eff)|:            0.004 eV
   
  Fragment 1 SOMO   Fragment 2 SOMO-1
--------------------------------------
E_mon(orb) frag1 frag2              -9.584    -9.734 eV
J(AB):                0.001 eV
S(AB):            -0.00002670 Eh
|J(AB,eff)|:            0.000 eV
   
  Fragment 1 SOMO   Fragment 2 SOMO 
--------------------------------------
E_mon(orb) frag1 frag2              -9.584    -9.597 eV
J(AB):               -0.018 eV
S(AB):             0.00067819 Eh
|J(AB,eff)|:            0.011 eV
   
  Fragment 1 SOMO   Fragment 2 LUMO 
--------------------------------------
E_mon(orb) frag1 frag2              -9.584    -9.263 eV
J(AB):               -0.012 eV
S(AB):             0.00036786 Eh
|J(AB,eff)|:            0.008 eV
   
  Fragment 1 SOMO   Fragment 2 LUMO+1
--------------------------------------
E_mon(orb) frag1 frag2              -9.584    -9.244 eV
J(AB):               -0.015 eV
S(AB):             0.00052976 Eh
|J(AB,eff)|:            0.010 eV
   
  Fragment 1 LUMO   Fragment 2 SOMO-3
--------------------------------------
E_mon(orb) frag1 frag2              -9.260    -9.829 eV
J(AB):                0.006 eV
S(AB):            -0.00024436 Eh
|J(AB,eff)|:            0.004 eV
   
  Fragment 1 LUMO   Fragment 2 SOMO-2
--------------------------------------
E_mon(orb) frag1 frag2              -9.260    -9.728 eV
J(AB):               -0.001 eV
S(AB):             0.00000534 Eh
|J(AB,eff)|:            0.000 eV
   
  Fragment 1 LUMO   Fragment 2 SOMO-1
--------------------------------------
E_mon(orb) frag1 frag2              -9.260    -9.734 eV
J(AB):               -0.003 eV
S(AB):             0.00015724 Eh
|J(AB,eff)|:            0.001 eV
   
  Fragment 1 LUMO   Fragment 2 SOMO 
--------------------------------------
E_mon(orb) frag1 frag2              -9.260    -9.597 eV
J(AB):               -0.000 eV
S(AB):             0.00000051 Eh
|J(AB,eff)|:            0.000 eV
   
  Fragment 1 LUMO   Fragment 2 LUMO 
--------------------------------------
E_mon(orb) frag1 frag2              -9.260    -9.263 eV
J(AB):               -0.014 eV
S(AB):             0.00053089 Eh
|J(AB,eff)|:            0.009 eV
   
  Fragment 1 LUMO   Fragment 2 LUMO+1
--------------------------------------
E_mon(orb) frag1 frag2              -9.260    -9.244 eV
J(AB):               -0.001 eV
S(AB):             0.00002264 Eh
|J(AB,eff)|:            0.001 eV
   
  Fragment 1 LUMO+1  Fragment 2 SOMO-3
--------------------------------------
E_mon(orb) frag1 frag2              -9.258    -9.829 eV
J(AB):               -0.002 eV
S(AB):             0.00007717 Eh
|J(AB,eff)|:            0.001 eV
   
  Fragment 1 LUMO+1  Fragment 2 SOMO-2
--------------------------------------
E_mon(orb) frag1 frag2              -9.258    -9.728 eV
J(AB):               -0.003 eV
S(AB):             0.00011412 Eh
|J(AB,eff)|:            0.002 eV
   
  Fragment 1 LUMO+1  Fragment 2 SOMO-1
--------------------------------------
E_mon(orb) frag1 frag2              -9.258    -9.734 eV
J(AB):                0.003 eV
S(AB):            -0.00014878 Eh
|J(AB,eff)|:            0.001 eV
   
  Fragment 1 LUMO+1  Fragment 2 SOMO 
--------------------------------------
E_mon(orb) frag1 frag2              -9.258    -9.597 eV
J(AB):                0.004 eV
S(AB):            -0.00014943 Eh
|J(AB,eff)|:            0.002 eV
   
  Fragment 1 LUMO+1  Fragment 2 LUMO 
--------------------------------------
E_mon(orb) frag1 frag2              -9.258    -9.263 eV
J(AB):               -0.002 eV
S(AB):             0.00005889 Eh
|J(AB,eff)|:            0.001 eV
   
  Fragment 1 LUMO+1  Fragment 2 LUMO+1
--------------------------------------
E_mon(orb) frag1 frag2              -9.258    -9.244 eV
J(AB):               -0.007 eV
S(AB):             0.00026637 Eh
|J(AB,eff)|:            0.005 eV
   
..............................................................................
:  total |J(AB,eff)| for hole transport (occ. MOs) :               0.022 eV  :
:  total |J(AB,eff)| for charge transport (unocc. MOs) :           0.010 eV  :
:  total |J(AB,eff)| for charge transfer (CT) :                    0.020 eV  :
..............................................................................
  
 Please remember, DIPRO is not available for restart!
   
normal termination of dipro
----------------------------------------------------------
 * finished run on 2025/03/21 at 17:16:12.988     
----------------------------------------------------------
 dipro:
 * wall-time:     0 d,  0 h,  0 min, 24.660 sec
 *  cpu-time:     0 d,  0 h,  1 min, 19.428 sec
 * ratio c/w:     3.221 speedup
Reorganization energy (electron): 0.03145895180935379 eV
Reorganization energy (hole): 0.03656842174767643 eV
Electron Transfer integral J: 0.01 eV
Hole Transfer integral J: 0.022 eV
