116
 energy: -213.864806018921 gnorm: 0.155083423000 xtb: 6.7.1 (edcfbbe)
C           -2.71000000000000        2.68390000000000       -2.25060000000000
C           -2.33790000000000        1.45990000000000       -1.71040000000000
C           -1.43670000000000        1.45490000000000       -0.59070000000000
C           -0.69850000000000        2.64050000000000       -0.30820000000000
C           -1.11370000000000        3.84340000000000       -0.90100000000000
C           -2.13150000000000        3.87330000000000       -1.82650000000000
C           -1.17740000000000        0.30720000000000        0.22280000000000
C            0.03940000000000        0.29230000000000        0.91010000000000
C            0.82180000000000        1.47960000000000        0.97930000000000
N            0.41120000000000        2.65490000000000        0.46390000000000
C           -2.03870000000000       -0.81590000000000        0.42300000000000
C           -1.46520000000000       -2.00460000000000        0.95740000000000
N           -0.22230000000000       -2.05600000000000        1.48960000000000
C            0.48420000000000       -0.90930000000000        1.53030000000000
C            1.72490000000000       -0.89490000000000        2.17330000000000
C            2.49920000000000        0.24880000000000        2.22230000000000
C            2.04650000000000        1.42180000000000        1.64890000000000
C           -3.46250000000000       -0.74080000000000        0.25910000000000
C           -4.20140000000000       -1.91170000000000        0.37030000000000
C           -3.61170000000000       -3.10930000000000        0.75630000000000
C           -2.27280000000000       -3.14650000000000        1.06370000000000
O           -4.04060000000000        0.51290000000000        0.10770000000000
O           -2.82360000000000        0.29680000000000       -2.33650000000000
C           -2.57270000000000        5.16010000000000       -2.41040000000000
C           -4.45230000000000       -4.30700000000000        0.96700000000000
H           -0.63560000000000        4.76190000000000       -0.60770000000000
H           -3.42790000000000        2.70330000000000       -3.04980000000000
H            2.65210000000000        2.30700000000000        1.71690000000000
H            2.09170000000000       -1.79200000000000        2.63820000000000
H           -1.84940000000000       -4.05400000000000        1.45370000000000
H           -5.26410000000000       -1.90760000000000        0.21920000000000
O           -2.29970000000000        6.20250000000000       -1.84710000000000
O           -3.28500000000000        5.08630000000000       -3.57300000000000
C           -3.58920000000000        6.36870000000000       -4.01530000000000
C            3.81570000000000        0.21140000000000        2.89020000000000
O            4.17800000000000       -0.80810000000000        3.44500000000000
O            4.55450000000000        1.35860000000000        2.84310000000000
C            5.73330000000000        1.17250000000000        3.55120000000000
O           -5.63130000000000       -4.27770000000000        0.67140000000000
O           -3.83000000000000       -5.38930000000000        1.51980000000000
C           -4.75650000000000       -6.40720000000000        1.71440000000000
C           -5.43200000000000        0.51800000000000       -0.08290000000000
C           -1.82090000000000       -0.62210000000000       -2.71760000000000
H           -4.25160000000000       -7.27030000000000        2.15380000000000
H           -5.19500000000000       -6.67380000000000        0.74960000000000
H           -5.53970000000000       -6.04570000000000        2.38580000000000
H            6.31060000000000        2.09970000000000        3.54010000000000
H            6.30000000000000        0.36040000000000        3.08880000000000
H            5.46770000000000        0.89950000000000        4.57490000000000
H           -2.29440000000000       -1.45060000000000       -3.24530000000000
H           -1.29950000000000       -1.00490000000000       -1.84200000000000
H           -1.11210000000000       -0.12470000000000       -3.38060000000000
H           -5.74880000000000        1.55170000000000       -0.22820000000000
H           -5.92750000000000        0.11280000000000        0.80060000000000
H           -5.67990000000000       -0.06010000000000       -0.97440000000000
H           -4.14960000000000        6.30040000000000       -4.95020000000000
H           -2.65660000000000        6.91620000000000       -4.17330000000000
H           -4.18610000000000        6.87420000000000       -3.25240000000000
C           -2.68710000000000        2.31560000000000        3.15560000000000
C           -2.37630000000000        1.19510000000000        3.91740000000000
C           -1.14090000000000        1.17970000000000        4.65460000000000
C           -0.16510000000000        2.17500000000000        4.35770000000000
C           -0.53480000000000        3.26190000000000        3.55210000000000
C           -1.78340000000000        3.35540000000000        2.98820000000000
C           -0.78150000000000        0.17450000000000        5.60900000000000
C            0.58410000000000        0.02270000000000        5.87840000000000
C            1.50150000000000        1.02980000000000        5.46880000000000
N            1.11930000000000        2.12010000000000        4.77810000000000
C           -1.65910000000000       -0.70500000000000        6.32060000000000
C           -1.10630000000000       -1.90710000000000        6.84840000000000
N            0.22230000000000       -2.12760000000000        6.95870000000000
C            1.04290000000000       -1.12680000000000        6.58320000000000
C            2.40740000000000       -1.22170000000000        6.87220000000000
C            3.29530000000000       -0.22050000000000        6.52650000000000
C            2.84390000000000        0.89070000000000        5.83710000000000
C           -3.04080000000000       -0.40720000000000        6.57500000000000
C           -3.85750000000000       -1.43020000000000        7.04080000000000
C           -3.34140000000000       -2.67690000000000        7.37350000000000
C           -1.98510000000000       -2.89250000000000        7.32020000000000
O           -3.47640000000000        0.90130000000000        6.40500000000000
O           -3.28260000000000        0.12090000000000        3.85130000000000
C           -2.11460000000000        4.52790000000000        2.14930000000000
C           -4.24620000000000       -3.75360000000000        7.83080000000000
H            0.18400000000000        4.03550000000000        3.34980000000000
H           -3.62360000000000        2.34250000000000        2.62970000000000
H            3.53810000000000        1.66530000000000        5.57010000000000
H            2.77690000000000       -2.08220000000000        7.40010000000000
H           -1.58890000000000       -3.83410000000000        7.65410000000000
H           -4.91040000000000       -1.27420000000000        7.17940000000000
O           -1.24800000000000        5.34220000000000        1.89380000000000
O           -3.39950000000000        4.62520000000000        1.69860000000000
C           -3.53500000000000        5.77920000000000        0.93520000000000
C            4.71660000000000       -0.35260000000000        6.92180000000000
O            5.06320000000000       -1.31870000000000        7.57430000000000
O            5.56830000000000        0.64340000000000        6.53830000000000
C            6.84320000000000        0.36330000000000        7.01840000000000
O           -5.44090000000000       -3.54450000000000        7.91530000000000
O           -3.65770000000000       -4.94960000000000        8.12770000000000
C           -4.63010000000000       -5.85920000000000        8.52750000000000
C           -4.87100000000000        1.07230000000000        6.42820000000000
C           -2.69370000000000       -1.12250000000000        3.55150000000000
H           -4.15270000000000       -6.81280000000000        8.76260000000000
H           -5.34910000000000       -5.98710000000000        7.71460000000000
H           -5.14070000000000       -5.46420000000000        9.40920000000000
H            7.52510000000000        1.16460000000000        6.72630000000000
H            7.17520000000000       -0.58990000000000        6.59890000000000
H            6.79800000000000        0.28540000000000        8.10760000000000
H           -3.35540000000000       -1.64920000000000        2.86600000000000
H           -2.57490000000000       -1.71900000000000        4.45400000000000
H           -1.72740000000000       -0.95480000000000        3.07650000000000
H           -5.08960000000000        2.11050000000000        6.17540000000000
H           -5.25560000000000        0.85760000000000        7.42610000000000
H           -5.32730000000000        0.41980000000000        5.68180000000000
H           -4.56380000000000        5.85770000000000        0.57830000000000
H           -2.84630000000000        5.71770000000000        0.08930000000000
H           -3.27800000000000        6.64410000000000        1.55180000000000
116
 energy: -213.894049400973 gnorm: 0.069290956019 xtb: 6.7.1 (edcfbbe)
C           -2.70698420446640        2.66686320372964       -2.26302077267628
C           -2.33731301377630        1.45716174899474       -1.71157158301719
C           -1.44596862891074        1.44789321021300       -0.60280080345548
C           -0.70637377544670        2.63557483926785       -0.31127538370142
C           -1.11500412356488        3.84763832045155       -0.89852842480100
C           -2.13227551142718        3.86574179793808       -1.82622855925178
C           -1.18576458193137        0.31088065571333        0.21987209582176
C            0.03276744810667        0.29662291116701        0.90779541609696
C            0.81584022686031        1.48608897280588        0.97346841074403
N            0.39071578209562        2.64537832226556        0.46180304156305
C           -2.04982813744246       -0.80706266414372        0.42402807213767
C           -1.46278597287764       -1.99946659555649        0.95138779627502
N           -0.21891766416636       -2.04668721119830        1.45924641551214
C            0.47936399978842       -0.90720097625218        1.52843008946088
C            1.72467578379238       -0.89879370583686        2.17611259441927
C            2.49405006990543        0.25507067517183        2.21905473065668
C            2.04664214966104        1.43706508260926        1.64611553282139
C           -3.46260676559070       -0.74494749916169        0.25472591284484
C           -4.19993990571956       -1.90887517615449        0.37088695390644
C           -3.59553895286964       -3.11170892454471        0.75303774834167
C           -2.25582879162553       -3.15606390686984        1.05999734201670
O           -4.03035817274400        0.49061848681338        0.09957685330786
O           -2.82049145760660        0.30487583707430       -2.31854790432895
C           -2.55771727948498        5.16131235818247       -2.40013018340568
C           -4.46153944038678       -4.29337706062798        0.95095315177272
H           -0.61666386816478        4.76192786620008       -0.61564122128533
H           -3.42945315522696        2.68554853839390       -3.06176362755128
H            2.64900803501349        2.32606415433119        1.71462997790685
H            2.09213013192411       -1.80098600952666        2.63815834356584
H           -1.82547103336893       -4.05934078647023        1.45531184479187
H           -5.26578894214656       -1.91393127212165        0.21849164159870
O           -2.28888583609246        6.21170133807490       -1.86391292383519
O           -3.26506390062920        5.08777130529101       -3.54761672808700
C           -3.59241180657804        6.37198268889908       -4.02096518035869
C            3.80482838492179        0.19403964392462        2.89773702835698
O            4.18481367500123       -0.81061492270763        3.45498848053693
O            4.53502756853152        1.32529575998549        2.83878533012472
C            5.74415458926189        1.17595318496922        3.54158979682457
O           -5.63749364708304       -4.27746282972567        0.66837493947446
O           -3.85031036338622       -5.36339544967158        1.50294243403040
C           -4.76045040355346       -6.41456455085930        1.71494270260873
C           -5.42622971413237        0.51573780225532       -0.08450164295690
C           -1.81921743402109       -0.61367144407109       -2.71316285132762
H           -4.23068850559771       -7.25902818997653        2.15314493978315
H           -5.21080152245114       -6.70191927314199        0.76109607469871
H           -5.55340728974931       -6.07556485081955        2.38747024188986
H            6.29647145604869        2.11345061873396        3.51249162445467
H            6.33068451671445        0.36895993830430        3.09469790485831
H            5.51321130895038        0.90688324770400        4.57292496301053
H           -2.31380558971632       -1.43007658902473       -3.23828256660692
H           -1.28478883943820       -1.02140489865563       -1.85364241362299
H           -1.10695623348796       -0.12964131426788       -3.38746615751801
H           -5.71802333091680        1.55633758280498       -0.22537147717391
H           -5.93836541727818        0.11730660074481        0.79589297642471
H           -5.69836550083439       -0.05494270422462       -0.97574495433805
H           -4.14996431693835        6.27573704341690       -4.95116676340578
H           -2.67312820750215        6.94000493675293       -4.18822233216944
H           -4.19218764918798        6.89569923848654       -3.27150964147939
C           -2.69192865080490        2.30239870807335        3.15308740137982
C           -2.37723328388383        1.19745657304489        3.91998310311620
C           -1.15301932855593        1.16924776796404        4.64643993681845
C           -0.17083460616637        2.16780282926654        4.35368407775531
C           -0.53076152855365        3.26542196397900        3.55290886334871
C           -1.78411768511472        3.35226323015975        2.99491745570309
C           -0.78955266297561        0.17579069102329        5.60869764947071
C            0.57811533465496        0.02432233454816        5.87659793417816
C            1.49735670987786        1.02853308623510        5.45619441983687
N            1.10213892201689        2.11136724023844        4.78052591311212
C           -1.66716908105275       -0.69178455059626        6.32874746904037
C           -1.10412751132914       -1.89744271560512        6.85272243562445
N            0.21628476648434       -2.11252922935302        6.94904583824692
C            1.03841478207321       -1.12253391419941        6.58735241784472
C            2.40776624760987       -1.22714867328609        6.87419087919480
C            3.29094384032764       -0.21596991425580        6.52426851260151
C            2.84686303611391        0.90059639122728        5.82834161777576
C           -3.04140770204587       -0.40794212247860        6.58130706405042
C           -3.85475042736207       -1.42402637938824        7.04677825750300
C           -3.32731158831170       -2.67937249875010        7.37068676242782
C           -1.97171997195573       -2.90065951495969        7.32064655495066
O           -3.47199639594885        0.87951648743060        6.40043320571274
O           -3.27134383460312        0.13776812909679        3.86007826459217
C           -2.09262532694323        4.52961443823542        2.15525797635061
C           -4.25664590707445       -3.73512781770518        7.82539944191734
H            0.19538837882327        4.03519566293046        3.34896900640002
H           -3.63267245361678        2.32903316772402        2.62875391998708
H            3.53547967660866        1.68639913631909        5.56880405851093
H            2.77583075612383       -2.09201452258813        7.40173860327524
H           -1.56669700422666       -3.83832889495696        7.65913401263827
H           -4.91255260158227       -1.27746686984578        7.18331494716162
O           -1.24941745713099        5.35589217760562        1.89841720730560
O           -3.36534197963395        4.62014771326168        1.71294934131809
C           -3.54218078363337        5.78440438251791        0.94011456428787
C            4.70298139672022       -0.37407359379547        6.93990047087422
O            5.06701984250120       -1.32869593451328        7.58351558662740
O            5.54455678366960        0.61852479424009        6.57271502317374
C            6.85194590485624        0.36377036463251        7.02669046476643
O           -5.44769220260319       -3.54309506154874        7.91539626290512
O           -3.67766605939658       -4.91950842355506        8.11970280434948
C           -4.63426378674561       -5.86517841031753        8.53028162072902
C           -4.86740748612341        1.07078859381466        6.42823090856318
C           -2.69615693946349       -1.11698667060303        3.56682810622332
H           -4.13071908315381       -6.80359238396948        8.75769295086554
H           -5.36466188965450       -6.01205089639952        7.72988518891923
H           -5.15682743124447       -5.49178474252693        9.41511241213981
H            7.50466483599993        1.17856037462933        6.71617951425892
H            7.20292211598555       -0.58373101224238        6.60898744317794
H            6.83736202571649        0.28176489967425        8.11630073419221
H           -3.36520638387629       -1.63279704804668        2.87949287542492
H           -2.57686873091103       -1.73084705142240        4.45966532880958
H           -1.72439453107782       -0.97766983807004        3.09687597724781
H           -5.06004459778472        2.11256095777973        6.17358850217194
H           -5.26731304934665        0.86598832249843        7.42495147220380
H           -5.34458169727944        0.42731738841806        5.68485834152204
H           -4.57432675210517        5.83527566830132        0.59711437800332
H           -2.86118625527061        5.75710340218235        0.08824250214785
H           -3.29703694667900        6.66357270186720        1.54051271098105
116
 energy: -213.905810728380 gnorm: 0.017375730738 xtb: 6.7.1 (edcfbbe)
C           -2.70348537127804        2.65844323288290       -2.27574642819415
C           -2.33415292425131        1.45627125915700       -1.71603826069654
C           -1.45355656236330        1.44354982865009       -0.61117318461490
C           -0.71247276735300        2.63289041017714       -0.31229606490292
C           -1.11461039186882        3.85060499074281       -0.90033401856007
C           -2.13135872470618        3.86233781880545       -1.82851480281979
C           -1.19119708848914        0.31374776916401        0.21902750867065
C            0.02815566716435        0.30042237692681        0.90812596198350
C            0.81138310165577        1.49195737795878        0.97381952048966
N            0.37378312594086        2.63735025326145        0.46165670571512
C           -2.05914023598577       -0.80111797865287        0.42362496461414
C           -1.46087736350966       -1.99792873660820        0.94076559313686
N           -0.21602482188110       -2.04005562519275        1.42738671537568
C            0.47729505985981       -0.90715599939360        1.52177258171134
C            1.72384917371943       -0.90025645118197        2.17680041876970
C            2.48748716080091        0.26066905938789        2.22048350732319
C            2.04721237343349        1.44872472167876        1.64927390901671
C           -3.46537200084302       -0.74951002922136        0.25200511231372
C           -4.19673229313973       -1.91380333816186        0.36797268701253
C           -3.58069828754790       -3.11861072134941        0.74733995248872
C           -2.24152236242998       -3.16787942539109        1.05154718342205
O           -4.02514051794171        0.46922450524251        0.09005086239809
O           -2.81399070884859        0.30967996513346       -2.30356618928520
C           -2.53887835592033        5.16864077365516       -2.39316015814763
C           -4.47733894906467       -4.28169873501953        0.93833113467754
H           -0.60113175171687        4.75856458138371       -0.62261174722902
H           -3.42251362687738        2.67545758816088       -3.07907482478498
H            2.64513730933190        2.34135784630605        1.71600224005745
H            2.09028636184775       -1.80484623989936        2.63681326636581
H           -1.79870326922470       -4.06533213721140        1.44708328587701
H           -5.26356050259558       -1.93249978498280        0.21689097026265
O           -2.26356067575768        6.22604402740213       -1.87786514269940
O           -3.24674074108162        5.09675717445475       -3.52623146870491
C           -3.59839338851793        6.37697790240697       -4.03221331279050
C            3.79757995823046        0.17207189857907        2.90765895944461
O            4.18381536431998       -0.82363314089328        3.47170847439469
O            4.52273683847182        1.28936991628019        2.84121830152557
C            5.76197780335672        1.18223630564732        3.53047806744857
O           -5.65103085368390       -4.27152374110988        0.65626863290917
O           -3.87746128866625       -5.34508829728629        1.48573971652800
C           -4.76637408804703       -6.42776335230247        1.71514249957595
C           -5.42318069857263        0.52038575151920       -0.08829995550362
C           -1.82028654824481       -0.61096562873018       -2.71439729443451
H           -4.19702898926672       -7.24499941703478        2.15187863113721
H           -5.22270554995957       -6.73505082454093        0.77040199222186
H           -5.56325433701089       -6.10833870336417        2.39266726983870
H            6.27539003516691        2.13891280059893        3.46640551391215
H            6.36401504465521        0.38510721928030        3.08708449500441
H            5.56610677585827        0.92205295383253        4.57179380449049
H           -2.33926208118093       -1.41273609324584       -3.23809751615324
H           -1.27159718631747       -1.03921885119980       -1.87105419925422
H           -1.10839553824024       -0.13305994942324       -3.39605590832485
H           -5.68113697672674        1.57022015158963       -0.22342719104629
H           -5.94739526974650        0.12923574767924        0.79012957856140
H           -5.71897659654673       -0.04283191653670       -0.97846729638024
H           -4.15294490552792        6.23548222592589       -4.95646964969375
H           -2.69070174243961        6.95995207544747       -4.21159780380335
H           -4.20386238652615        6.91142728283909       -3.29492728863813
C           -2.69291938552034        2.29597651634941        3.14639473982558
C           -2.37474826530315        1.19651082691220        3.91530221256315
C           -1.16102443187745        1.16042466915552        4.63990749690282
C           -0.17307325537469        2.16157524543104        4.35140550338571
C           -0.52553570087262        3.26550296564867        3.55138458842112
C           -1.78113743339634        3.35080585567542        2.99685819735015
C           -0.79401043386375        0.17641375488976        5.61044987541158
C            0.57556152387595        0.02422574503466        5.87565927611192
C            1.49724915748202        1.02565296194805        5.44848680231465
N            1.09085702489732        2.10025301502021        4.78081961258693
C           -1.67464450151436       -0.68013117874291        6.33876131922952
C           -1.10504857440056       -1.89032967228170        6.85852094940116
N            0.20821565700972       -2.09936762275053        6.94419409482138
C            1.03491188948909       -1.12084979202565        6.59043756539945
C            2.40743840840296       -1.23072819447996        6.87656200018614
C            3.28698961819114       -0.21288277322052        6.52616702080312
C            2.85227342652385        0.90611735282665        5.82530567412133
C           -3.04520379272770       -0.40718812106415        6.59039403134431
C           -3.85311167332164       -1.42314604874640        7.05485675621973
C           -3.31664159947466       -2.68354801920905        7.37301087957113
C           -1.96327244201261       -2.90843546326650        7.32549364201799
O           -3.47200983684861        0.86121508569845        6.39838988874438
O           -3.25997345918758        0.14922883992164        3.86305282000128
C           -2.06836328675641        4.54155383365545        2.16440586677781
C           -4.27410735043787       -3.71868982577696        7.82213164876628
H            0.20648924424864        4.03079024460425        3.34979090809017
H           -3.63504183629502        2.32167366534339        2.62223616204096
H            3.53333989478420        1.70144277188201        5.57010306059873
H            2.77316985097235       -2.09809727275162        7.40287022566589
H           -1.54528566917478       -3.84102790407989        7.66322244484891
H           -4.91331075321104       -1.28986927803295        7.19297399409746
O           -1.23863447632000        5.37742371540047        1.90967546713758
O           -3.32975337330297        4.62299221120317        1.72244153126437
C           -3.55490512947321        5.79533864256172        0.94728078278716
C            4.69182064797338       -0.39924269637378        6.96310714326994
O            5.06666982910163       -1.35048771307223        7.59894580313568
O            5.52612260414116        0.59135245264229        6.60959675204120
C            6.86293396627946        0.36599117494423        7.03709914809328
O           -5.46384590094801       -3.53342594318022        7.91361648421780
O           -3.70560206201446       -4.89498499900597        8.11461791611696
C           -4.64107158718090       -5.87586274415828        8.53506446335536
C           -4.86577303397807        1.07792596958983        6.42856450609616
C           -2.70266654659901       -1.11868476398690        3.58565686024618
H           -4.09597075658985       -6.79209396566612        8.75079740673859
H           -5.37750771644307       -6.04214747334616        7.74382948610270
H           -5.16888012624103       -5.52239876355252        9.42500845575623
H            7.47356524781512        1.20187932593317        6.70091974274178
H            7.23004350769171       -0.57322992783219        6.61518480523762
H            6.88076693340219        0.28432981954427        8.12693977687905
H           -3.37996966160816       -1.61941141684555        2.89468234380913
H           -2.59622813574691       -1.74130183952829        4.47602418237120
H           -1.72102657747867       -1.00874563194373        3.12658434864357
H           -5.02415572131857        2.12412896435195        6.17062276558399
H           -5.27700616551450        0.88365157507795        7.42423941098542
H           -5.36323764502411        0.44272459527634        5.68938362388074
H           -4.59409599925552        5.79918162788410        0.62548030052008
H           -2.88146811944558        5.80189268005139        0.08913037058415
H           -3.33211845014382        6.68241026624095        1.54452655277100
116
 energy: -213.909725029452 gnorm: 0.015885440811 xtb: 6.7.1 (edcfbbe)
C           -2.69469409879479        2.66211489745413       -2.28528512482641
C           -2.33033420632078        1.45939293279177       -1.72037581710359
C           -1.45537044946377        1.44490433838687       -0.61146402233951
C           -0.71294924583570        2.63381498934423       -0.30996538437041
C           -1.10956299326100        3.85205499707915       -0.90225986516685
C           -2.12268080515439        3.86577906143055       -1.83382112013812
C           -1.19285545068561        0.31422957172480        0.21852527477359
C            0.02572466309739        0.30082334950145        0.90972178539782
C            0.80866614960606        1.49300805295249        0.98097210870021
N            0.36861489020162        2.63594646667767        0.46762852885801
C           -2.06110102124713       -0.80245938635274        0.41832782351908
C           -1.45971474918271       -2.00234078025172        0.92622787717856
N           -0.21303743922716       -2.04345156053259        1.40412268857127
C            0.47675262948699       -0.91045507334248        1.51428668320481
C            1.72109213777392       -0.90305380279212        2.17516144999749
C            2.48185624864865        0.25949082209075        2.22837923584769
C            2.04487212013648        1.44977244393733        1.65920741342722
C           -3.46726244100911       -0.75366618428921        0.24548320349794
C           -4.19464231987146       -1.92093583885994        0.36161374186746
C           -3.57617490228091       -3.12647573054915        0.73744204676743
C           -2.23592901192482       -3.17743132941519        1.03545448954619
O           -4.02342187043065        0.46217647363273        0.07962972449762
O           -2.81238086106506        0.31209140178405       -2.30033794767403
C           -2.51886170528823        5.17760029304802       -2.39793023495889
C           -4.48667355043118       -4.28334200464469        0.92052898429746
H           -0.58917741703090        4.75579330382708       -0.62573937482633
H           -3.40632866425140        2.67651241888389       -3.09543242987471
H            2.63850515170418        2.34556646088159        1.72656337982269
H            2.08677024682406       -1.80881825835285        2.63268795063349
H           -1.78121086483375       -4.07217635281175        1.42439621627794
H           -5.26119414918830       -1.94704322985500        0.21118311884309
O           -2.23146761242758        6.23665026623480       -1.89068516104154