116
 energy: -22.928061455056 gnorm: 0.329736929581 xtb: 6.6.1 (8d0f1dd)
C           -3.31122850772930        0.79849766164622       -0.92477639677520
C           -2.44380812530352       -0.12270372891954       -0.27661132624697
C           -1.41337090092821        0.39579727573559        0.56335275196199
C           -0.89266158675590        1.65801491088749        0.27377586709581
C           -1.72665675402493        2.51431363229076       -0.49448366572522
C           -2.95444148494349        2.13954154133227       -1.01494489940871
C           -0.74098268209890       -0.43411532818871        1.49825021926784
C            0.56872586496315        0.03782116815119        1.86248088067890
C            1.03782416582094        1.29402317993033        1.50887470833621
N            0.31238977034758        2.07067427098208        0.65193736800696
C           -1.29695700510141       -1.39996043042223        2.41574187746061
C           -0.38243517664656       -2.18060797534842        3.13232615520648
N            0.91308504082021       -1.90366887689689        3.30325166013478
C            1.37712470144904       -0.74872102533751        2.81811050966982
C            2.52149331701875       -0.17739833758153        3.39379298866852
C            2.95849061756259        1.02681208890480        2.95105897606587
C            2.24288949469137        1.78498308775960        2.03503020483770
C           -2.74860936222260       -1.74497937691422        2.38401158947411
C           -3.09416315450955       -2.91614440870436        3.00571134491758
C           -2.16786021984049       -3.77788778654213        3.63251872101904
C           -0.85708937311598       -3.40495313382985        3.68547234358092
O           -3.71994433332149       -0.94984598373544        1.67726658385724
O           -2.55702603277562       -1.47241711578389       -0.57241635275616
C           -3.84297843593025        3.13357444054366       -1.60938954875544
C           -2.68769581069131       -5.03867041417370        4.30484659386931
H           -1.39666850744143        3.51251503834900       -0.76806311868865
H           -4.27662633836220        0.55105838579656       -1.33106614114542
H            2.66329581305412        2.73912661909249        1.72562431984580
H            3.05775395548473       -0.69369546277216        4.16536137542516
H           -0.24710966264510       -4.12034095424229        4.22946223699121
H           -4.11477991332403       -3.04712728052358        3.03244694615357
O           -4.21824883374556        4.03433712717988       -0.87713382485991
O           -4.44510595673734        2.90643496899600       -2.81853501752979
C           -5.44216520282800        3.83300025693726       -3.02488532025093
C            4.23586651889298        1.50004220933226        3.59165660008449
O            5.05927614697201        0.66079890002952        3.91714215179376
O            4.47001334453535        2.86385149488593        3.72605651435371
C            5.79457498613219        3.08584475587818        4.15829123132174
O           -3.82227255313510       -5.27347675879771        4.16636005494405
O           -1.85023202017753       -5.79767454267276        5.06656077253571
C           -2.55119635829503       -6.86252441382958        5.62930343183426
C           -5.07197156564436       -1.42399175670916        1.58830531863830
C           -1.33089900128490       -2.23622472573986       -0.99264499351172
H           -2.54510546830388       -7.76426885143998        4.99136022291012
H           -3.57194749219491       -6.44405511486021        5.74196173723541
H           -2.09133598235598       -7.02043774843818        6.64022264233588
H            5.72707967266424        3.46798026205549        5.10135971236643
H            6.34060091246885        3.78468702308830        3.50069950143490
H            6.17933064298187        2.03010500085905        4.19342358084693
H           -0.91862729772622       -2.57650129080332       -0.01361370304871
H           -0.49769766914251       -1.60651221708571       -1.34094446550576
H           -1.52632419730509       -2.94569707152159       -1.75361447637286
H           -5.11788846557077       -2.41810833635233        1.17520213188926
H           -5.67929807973498       -0.69619639428435        1.04301666067831
H           -5.57598832326623       -1.42383358739762        2.57928294206544
H           -6.13050215934830        3.76035386975488       -2.23272855695873
H           -5.86615610071888        3.45938329385866       -4.02668959924245
H           -5.13479557532099        4.87790991548477       -2.98314551356402
C           -1.38192942069774        3.73616555005018        2.91232598411686
C           -1.84821468128685        2.59982427735607        3.49755545445181
C           -1.05946531454833        2.05730632010638        4.60922730982276
C            0.19893954712228        2.69376791964407        4.86302140881997
C            0.50425395911860        3.94630308659851        4.28768785650746
C           -0.26031777722226        4.46998310053134        3.25072669343212
C           -1.20488993561782        0.74454293276906        5.14851520323437
C           -0.06287609782692        0.02744069315890        5.60930570802864
C            1.19208754369866        0.71421540266195        5.78882868583885
N            1.19428660993148        2.06344359410476        5.62744624321596
C           -2.41361422770794        0.07928500213936        5.25249410304426
C           -2.45851584031083       -1.32662100968547        5.60237876023992
N           -1.29466212405906       -1.98318595734370        5.89916817085159
C           -0.14475655767527       -1.32117560077092        5.98824682881008
C            0.97209270935794       -1.98958449505532        6.53157704134458
C            2.21982707914082       -1.36973967291181        6.68703967237737
C            2.30561929262884       -0.09745313075593        6.26436900324455
C           -3.73018485967715        0.71367583494582        5.25810242262992
C           -4.89964478833448       -0.06184623426677        5.21204641615509
C           -4.82617965800088       -1.39228978090841        5.46901303780036
C           -3.67144193418464       -1.98914944386360        5.67265433266067
O           -3.75568638935321        2.07705011038914        5.52067969627343
O           -2.94192434743730        1.91263938797883        3.01658762327703
C            0.21273512614467        5.50086066357994        2.34765104514621
C           -6.06660304520411       -2.17604633098929        5.80641622556876
H            1.41756699010566        4.38133362238595        4.66974005703471
H           -1.82880610647429        4.11982501512100        2.06992133318584
H            3.26888037378556        0.32655662585251        6.31721410015598
H            0.87146188387207       -3.08471526305024        6.57830423410869
H           -3.67716811065157       -3.05999292755990        5.83019634570050
H           -5.77379677507622        0.43595144608221        4.71017130754348
O            1.34459852619901        5.82615848916894        2.44941456579099
O           -0.74718748219123        6.07961784856304        1.59848183464284
C           -0.21473095568964        7.24015934882472        1.05753806029483
C            3.53228080814219       -2.00967610361154        7.02506769044485
O            3.64093082622715       -3.14437803815732        7.50071391725347
O            4.56565258381079       -1.22937033368332        6.69086985080897
C            5.72579357310716       -1.80692399125161        7.22246151275881
O           -7.04801223588612       -1.95726935745904        5.14194115322235
O           -6.01514389321278       -2.93743591896022        6.94765316328794
C           -7.21292732384718       -3.62681918543340        7.15115816329978
C           -4.95459780685163        2.65960679932188        5.86868674392943
C           -3.68284113682406        2.59129188358641        2.05479246020704
H           -7.43119628931628       -4.22607794725959        6.20622607140901
H           -8.06548455146707       -2.91765848248592        7.29781126410398
H           -7.07314693247270       -4.33087306029711        7.91223421050944
H            6.57332189837178       -1.29353136199234        6.78341268688262
H            5.74663761932316       -2.84282155125561        6.88089468184451
H            5.69426191474290       -1.72781984964892        8.29460302186842
H           -4.10481209541493        3.44288266176275        2.60483747673152
H           -4.49244774344916        1.87419893016926        1.82433103764650
H           -3.18901540870812        2.85154642679373        1.06781919454921
H           -5.55414326821421        2.76698137191684        4.93950725322359
H           -4.78658370641210        3.62090640967288        6.25983200635257
H           -5.43485580473958        1.97242995129449        6.65265772412460
H            0.89164886030839        7.38838561720231        1.13776105146914
H           -0.62894889903848        8.04195665205089        1.64837664327952
H           -0.59282546386754        7.45699159724320        0.03719083132488
116
 energy: -22.631037338925 gnorm: 0.521249713180 xtb: 6.6.1 (8d0f1dd)
C           -3.38853230025985        0.96917097918897       -1.50107273631571
C           -2.50289773968539       -0.02047101267323       -0.92894243751890
C           -1.47357599247341        0.27053374726089        0.11613510056810
C           -1.05805164414615        1.68356047061432        0.04146430459200
C           -1.84890445703207        2.54707375986425       -0.77530070273618
C           -2.94000570732912        2.34065641031281       -1.58283139335931
C           -0.63885915108966       -0.36353481533357        1.14490521126770
C            0.65516156531063        0.06787178285440        1.30106743589466
C            1.00022009111960        1.41971439116490        1.03926350639790
N            0.08304173236973        2.26784955100685        0.56834819803352
C           -1.04899069635910       -1.49117019467514        1.92270439280122
C           -0.10940036416349       -2.28293780419266        2.57834440452533
N            1.26559762789535       -1.94586731793927        2.45702326619270
C            1.63323288555301       -0.74950304936602        1.99196911061902
C            2.91377887091252       -0.20818222963770        2.20296142825533
C            3.18543919709096        1.13906357810278        1.91561705197413
C            2.22918201301759        1.90828863333640        1.35774226580981
C           -2.48745874278045       -1.71235145845440        2.23251969267873
C           -2.89876450703491       -2.83255874949676        2.99217446548134
C           -1.93621654103164       -3.59645514846951        3.63663992190093
C           -0.61199752051888       -3.15507894582287        3.57049760781508
O           -3.40450616358750       -0.53099565793535        2.07299387944230
O           -2.67271033092860       -1.47302730193629       -1.17322907350077
C           -3.69701133780685        3.56519833267234       -2.14829731659071
C           -2.24587379687356       -4.79589942658153        4.61919077360959
H           -1.45451227269370        3.56530450781764       -0.76100882076645
H           -4.20783638243438        0.73229486588989       -2.15305632833182
H            2.37550193172333        3.00701713323684        1.31881666966272
H            3.30642435311295       -0.40702006712138        3.19144961554774
H            0.12325951113319       -3.50819178678586        4.15326510982167
H           -3.85524166231190       -3.15381570954961        3.08469728799841
O           -3.12825136547884        4.63181728794323       -1.94688474447612
O           -4.65473387287388        3.43092616139346       -3.10106235605641
C           -4.79327063958207        4.63475859943132       -3.80935815387035
C            4.63876585121035        1.46957373356646        2.30679724658227
O            5.37090410098077        0.52678426818037        2.11687990991364
O            4.92801780894272        2.85726691958981        2.57347596246382
C            6.23554177812012        3.11418778839874        3.06951139900549
O           -3.43822660619272       -5.11442267630620        4.77000044542871
O           -1.25116799942074       -5.23785854705228        5.48316806223029
C           -1.63062545091636       -6.22470807976550        6.36961156569667
C           -4.86917588270980       -0.73995742791763        2.41271710195041
C           -1.42300150814948       -2.16134613033768       -1.56280439071377
H           -1.92758490597222       -5.68259606789982        7.30552321579151
H           -0.72181212601274       -6.90454621871325        6.72683635570499
H           -2.26405388557850       -6.81901454303991        5.75483627329169
H            6.79323680354644        2.35683283055379        2.76503844027737
H            6.11612990194721        3.32559657052554        4.12742491112397
H            6.59155380127525        4.12702290970389        2.69650188251903
H           -1.19815116297389       -3.08228055013725       -0.99417015775630
H           -0.49040387800609       -1.62436892570001       -1.28738648770978
H           -1.50878617696929       -2.00206082361433       -2.64100036720841
H           -5.39362628992389       -1.55498139157607        1.74632577212673
H           -5.34479067299296        0.31203187530981        2.41067569796635
H           -5.05713393513065       -1.20452950831809        3.37971239560897
H           -3.89053357207022        5.22255250332630       -3.65259239218897
H           -5.57176287135997        5.10688254706470       -3.27721452417854
H           -5.18230198458231        4.65332665541690       -4.98451086476895
C           -1.85393563193602        3.07977633463208        2.97798971029029
C           -2.05061031955291        2.00938890932788        3.91854955402394
C           -0.99381054037329        1.71423628855898        4.86137722364589
C            0.30582988749314        2.14112563053388        4.54063899767432
C            0.46633970453340        3.14783568273954        3.56122478869516
C           -0.56374046721511        3.76387628085872        2.93884379082358
C           -1.13239754857207        0.67078370799503        5.78469734818512
C           -0.04625777954111       -0.04928330237176        6.26524745839774
C            1.17472770391591        0.36644080763933        5.88529007918894
N            1.34060802322790        1.30751990427403        4.97878564325517
C           -2.34837802355793        0.18145906028293        6.43929597140578
C           -2.42518435505902       -1.19214919743554        6.80414001163452
N           -1.44088596562852       -1.78445379926782        7.47468678098704
C           -0.24891211844156       -1.25456559315615        7.15422606939069
C            0.90947299374268       -1.96730630118479        7.38907346761332
C            2.17470195700120       -1.36081490412997        7.19817356574889
C            2.36538420817282       -0.22974903151350        6.41235493418105
C           -3.60868515739156        0.91249555899415        6.42926030640018
C           -4.79599380968302        0.08215194554736        6.34049943549754
C           -4.89526725812023       -1.28237945749129        6.27642983621623
C           -3.74991780712863       -1.98749247589306        6.67899821489840
O           -3.59315794583928        2.33771116936135        6.71217116685924
O           -3.37728421075326        1.43468824160135        3.72662196322851
C           -0.68095279078217        4.96916250311715        2.25819598994311
C           -6.20742812804372       -1.88360124639158        5.61196711212098
H            1.40874786515862        3.73519488748347        3.58091501409271
H           -2.41139027502633        3.13686099035110        2.05804120073965
H            3.30270702849841       -0.14138152588875        5.96319377859360
H            1.00029917295433       -2.89607068203019        7.87735353934361
H           -3.84353737353482       -2.99035849322040        6.76169060926633
H           -5.72704001041159        0.53885764842208        6.68998127182393
O            0.08480580340000        5.90973998521453        2.63590329525381
O           -1.51680506773468        4.96262144923056        1.09919891661200
C           -1.47948187556400        6.18895195766122        0.59853287078867
C            3.39648053784337       -1.70074416536624        8.06333316997853
O            4.11449071059154       -0.96046297846625        8.73586689408189
O            3.86738341726081       -3.03809749752020        7.54230371181889
C            4.57919177301912       -3.53937466847492        8.65886230281759
O           -7.24743294721043       -1.26529867226876        5.65609374284884
O           -6.04849149800541       -3.10357073649980        4.90758022580676
C           -7.27709511680275       -3.45954604541766        4.41060942471516
C           -4.63534099182204        2.91201828365581        7.39997938139773
C           -4.46803323131052        2.36026730377010        3.78133864505906
H           -7.91022153913858       -3.53030856485469        5.38137102863129
H           -7.29678028708557       -4.49610288178070        4.16690377918723
H           -7.75489961071584       -2.88067613078546        3.68470089265533
H            4.01188389437818       -4.23959289069177        9.16580899520138
H            5.05639547759033       -2.69364474091560        9.16659992455618
H            5.38143960416360       -3.99937211925407        8.05434255512017
H           -4.08231393180071        3.14252593453626        4.55870225472995
H           -5.35761507213883        1.92197657532162        4.13223078265724
H           -4.59704873756890        2.71362757346720        2.73609688421857
H           -4.14375864537589        3.12846068317692        8.28605688717873
H           -5.54421468332598        2.32305484690307        7.68151288298226
H           -4.94342400815108        3.80828523702012        6.70639555702488
H           -1.23780481460271        5.98632546403319       -0.49423063716636
H           -0.68618726652841        6.87456227608840        0.98443756507030
H           -2.55407255023386        6.46358381602781        0.52405349026808
116
 energy: -22.663354908148 gnorm: 0.530142979120 xtb: 6.6.1 (8d0f1dd)
C           -3.05765516872962        0.56159679278235       -0.89634341755836
C           -2.21101118166273       -0.23491389560362       -0.11347047662094
C           -1.29943035870046        0.57421953635329        0.70300588007208
C           -0.93454421273384        1.81210056914999        0.20209743766047
C           -1.85171032742969        2.58018365205732       -0.68672943113731
C           -2.89977446733141        1.94055716753090       -1.22820289600199
C           -0.50556381062617        0.07851029265938        1.78947203894621
C            0.82243336135217        0.49321734979453        1.84878177501302
C            1.06953031954823        1.83437133852806        1.32439197012150
N            0.14970464082774        2.56213455231602        0.63727081963552
C           -0.88095377153528       -1.15079975891739        2.47947820435767
C            0.23015521481280       -1.93228065796055        3.02620059188469
N            1.49540980714025       -1.50643577024609        3.23823527099825
C            1.81864766997882       -0.32200470371316        2.51549839567490
C            3.12217118375520        0.28077827206007        2.48122400295010
C            3.39765771458409        1.45052576244045        1.69738844303968
C            2.33043054796363        2.32880624633620        1.38248039807771
C           -2.21496338499373       -1.49395455050663        2.83360460765586
C           -2.45846548577077       -2.74505750464433        3.35909528911849
C           -1.41194461699481       -3.61104636579410        3.78897877989270
C           -0.08944475998204       -3.19060480211748        3.62529553728151
O           -3.23723192186478       -0.54578556220222        2.64626735559361
O           -2.23439575805474       -1.71671978205999       -0.00391008639042
C           -3.69451801418126        2.60294150500651       -2.42436051146016
C           -1.75059968375182       -5.01210289178112        4.43728559725862
H           -1.44411654371303        3.49878791355287       -1.05487055162153
H           -3.52713607707511        0.25193444000357       -1.82435102180429
H            2.38656685656354        3.49793580975760        1.38748562242058
H            3.96305295999474       -0.25576282432806        2.88979650050904
H            0.71703951809994       -3.65828845079965        3.97812911884793
H           -3.48338982583940       -2.90753849346593        3.50609811918626
O           -3.60501098720170        3.77591576994912       -2.47027045202140
O           -4.46313641804158        1.71934629655488       -3.04122357380791
C           -5.34741795188036        2.48403939102156       -3.82695736572623
C            4.75741703933237        1.94724963706867        1.51513668777356
O            4.96856462889164        3.12746419736931        1.72157820231091
O            5.57865325893893        0.98171271792400        1.03049426769246
C            6.69171474707618        1.69051180033119        0.60677288271320
O           -2.69300761661061       -5.53358947691153        4.93317953876667
O           -0.52206453030053       -5.65874574798414        4.45243060444324
C           -0.49200349249277       -6.98510093112235        4.75684055108716
C           -4.61485058590949       -0.76845726058585        2.79759789485208
C           -0.95241282204447       -2.22780605838443       -0.11003993576264
H           -0.77208105155294       -7.87937907158749        4.20020156127094
H           -1.25788940698227       -7.19505818099370        5.54898861724920
H            0.51482569374871       -7.32691301729079        5.12477487318691
H            6.65236870240221        2.72483268528291        0.51366204829936
H            6.88904303504376        1.26334373941188       -0.43994382982413
H            7.37337551888000        1.55945240681843        1.32946190918211
H           -0.28493697403810       -1.43087069809092        0.34258789670914
H           -0.68781881303037       -2.47610246645169       -1.12544023138543
H           -0.70242577741713       -3.29183138953812        0.25297169396876
H           -4.75824089783760       -1.81059589912830        2.46120089225713
H           -5.30945150743372       -0.05466406324121        2.46554993159166
H           -4.68025240917011       -0.84961100218758        3.88696279850903
H           -4.76841385938504        2.77380273295810       -4.74858026616300
H           -5.54871362332346        3.37342183738151       -3.30726212359032
H           -6.41129337834338        1.86790266104891       -4.04371448804159
C           -1.61843555507265        3.76374369519653        3.39156468372136
C           -2.20405115409647        2.61911864585895        4.04729458615810
C           -1.44697081922933        1.92995478176762        5.08692220132796
C           -0.01470007003102        2.24854551939363        5.14926627829312
C            0.54995179791287        3.30055544390173        4.29693326635968
C           -0.32192959182507        4.19786436597201        3.58742571129611
C           -1.84440921164135        0.63065902276592        5.67099749565157
C           -0.75030906363444       -0.06509790230955        6.30208933976637
C            0.54407133079141        0.33443593221370        6.28349073830995
N            0.88749635701820        1.51736539660916        5.70071919499694
C           -3.20573579729866        0.07284348879374        5.94016864203486
C           -3.20366636306327       -1.31977384450824        6.15357345972642
N           -2.06729204091614       -2.02072279829919        6.47842409395995
C           -0.96401273896321       -1.38498367552000        6.72161897149298
C            0.06693903577493       -2.06897176260405        7.48259580357872
C            1.30405586532537       -1.52230537977716        7.42277737841321
C            1.50495550859131       -0.29348569277699        6.99949008313030
C           -4.47932616713346        0.76272879005990        6.19680234456207
C           -5.65998924973982       -0.02794761169834        6.25090030111134
C           -5.57417360936532       -1.39161488026235        6.02261305171175
C           -4.43732017801088       -2.08397789791365        5.95387910645217
O           -4.79698247936985        2.08214829766699        6.18480672088423
O           -3.48433506594564        2.15752414393685        3.56937070804516
C            0.26929146877849        5.62847208564757        3.03798719274931
C           -6.87666459198454       -2.21749836948266        5.91388455480046
H            1.65145102129836        3.49322852662578        4.34753524506179
H           -2.32992623068615        4.40206930643341        2.78619096360817
H            2.42069455220842        0.25714900475313        7.08859716028255
H           -0.04469148331918       -3.05895221476094        8.00055296202648
H           -4.55829412558495       -3.17563458393724        5.91982710172373
H           -6.56135308383295        0.37164250899704        6.67073439335086
O            1.56101635178136        5.62235310850368        3.02111927495399
O           -0.56936416781869        6.70307031463181        2.89367419559044
C            0.04684544489735        7.62200020109270        2.09055259053038
C            2.60456848816868       -2.23507246277159        7.52719311045879
O            2.78496532370545       -3.07590310125325        8.45616644099054
O            3.60974185088766       -1.91182296580126        6.72358038608729
C            4.75515251567746       -2.50634273691140        7.13610523935728
O           -6.55588827807404       -3.33315891042293        5.50962154551205
O           -8.13036798901767       -1.60565493865762        5.93972255310350
C           -8.96269776294523       -2.18889054671015        4.96610955958107
C           -3.94851963847613        3.06496085948618        6.81682355105729
C           -3.93640291323676        2.72970661694027        2.44728625555264
H           -8.33328261944141       -2.27552084646719        4.04892480125387
H           -9.77249526899720       -1.48021409029603        4.92109769673521
H           -9.40679846470155       -3.16190050882666        5.22194427878928
H            4.84495919242353       -2.95760576011552        8.11219712274513
H            5.53928053553396       -1.99267994485719        7.07735926063032
H            4.86979767971919       -3.34016035705448        6.42727139008766
H           -4.13911742087908        3.74044417136454        2.63192783832124
H           -4.84179162588673        2.30494627245470        2.03323731558504
H           -3.22053776479496        2.53342310427298        1.69951320582200
H           -4.04965435957669        3.96716127053142        6.15933248825933
H           -2.84062826543378        2.64011143791282        6.81861473963015
H           -4.45266312983863        3.20816456628952        7.70485226816813
H            0.34855052907857        8.56944884360768        2.50614756751514
H           -0.52678879088408        7.75749914297226        1.17528727941944
H            0.97875698152194        7.13690492812741        1.94776997693985
116
 energy: -22.717136511258 gnorm: 0.488063919382 xtb: 6.6.1 (8d0f1dd)
C           -2.97955556154092       -0.15949467047386       -1.38996328462080
C           -2.01931650776724       -0.78395033632366       -0.68492219371385
C           -1.07874529930302       -0.09794789176476        0.24682314086672
C           -1.12091717331920        1.36706529105495        0.25619550154093
C           -2.20599534449790        1.98775063811041       -0.61598124778154
C           -3.18416907541447        1.14320806500773       -1.26443367040747
C           -0.25159651784006       -0.68227566782807        1.32909155741085
C            0.83241801109802        0.11467217783175        1.66360019277070
C            0.99976350916626        1.50200108949198        1.05037994001539
N           -0.06746557106396        2.18222705053476        0.63380114641484
C           -0.44112392881706       -1.85543452296815        2.04939760698842
C            0.83203224539325       -2.33491674490091        2.61646874526624
N            2.06768386721343       -1.68690619441034        2.80439446593374
C            1.99991267381727       -0.35735811894365        2.42937081255213
C            3.17392111573025        0.38158159170254        2.52535423731828
C            3.28229314324108        1.70992005382985        2.05886609969708
C            2.17056782082346        2.22023253401945        1.44014639320859
C           -1.78155898308946       -2.44422520849853        2.27484397562880
C           -1.76148795837459       -3.73680837369773        2.86262988628547
C           -0.54299596345436       -4.17892103789127        3.43909603062216
C            0.69379017950568       -3.51877967086563        3.35813794632816
O           -2.85096328816204       -1.65185574692846        1.70126350916145
O           -2.08067763546715       -2.12924693773907       -0.59810133656198
C           -4.40643966134099        1.80293807770350       -1.76452714216099
C           -0.61929518083027       -5.32390923012343        4.34567419841135
H           -2.26661872962269        3.07412684196523       -0.72160716378568
H           -3.52569957432089       -0.79717981846938       -2.05712554100293
H            2.30979521971384        3.30124015120556        1.16275370055091
H            4.00923412151283        0.07362739490426        3.11835063540509
H            1.53455266730385       -4.08589872294371        3.67640501173532
H           -2.64944230724382       -4.25416829902331        3.09944353469945
O           -4.41912063422857        3.09022803086036       -1.76150145619254