Optimization of monomers started
      -----------------------------------------------------------      
     |                   =====================                   |     
     |                           x T B                           |     
     |                   =====================                   |     
     |                         S. Grimme                         |     
     |          Mulliken Center for Theoretical Chemistry        |     
     |                    University of Bonn                     |     
      -----------------------------------------------------------      

   * xtb version 6.7.1 (edcfbbe) compiled by 'runner@Mac-1732539442253.local' on 2024-11-25

   xtb is free software: you can redistribute it and/or modify it under
   the terms of the GNU Lesser General Public License as published by
   the Free Software Foundation, either version 3 of the License, or
   (at your option) any later version.
   
   xtb is distributed in the hope that it will be useful,
   but WITHOUT ANY WARRANTY; without even the implied warranty of
   MERCHANTABILITY or FITNESS FOR A PARTICULAR PURPOSE.  See the
   GNU Lesser General Public License for more details.
   
   Cite this work as:
   * C. Bannwarth, E. Caldeweyher, S. Ehlert, A. Hansen, P. Pracht,
     J. Seibert, S. Spicher, S. Grimme, WIREs Comput. Mol. Sci., 2020, 11,
     e01493. DOI: 10.1002/wcms.1493
   
   for GFN2-xTB:
   * C. Bannwarth, S. Ehlert and S. Grimme., J. Chem. Theory Comput., 2019,
     15, 1652-1671. DOI: 10.1021/acs.jctc.8b01176
   for GFN1-xTB:
   * S. Grimme, C. Bannwarth, P. Shushkov, J. Chem. Theory Comput., 2017,
     13, 1989-2009. DOI: 10.1021/acs.jctc.7b00118
   for GFN0-xTB:
   * P. Pracht, E. Caldeweyher, S. Ehlert, S. Grimme, ChemRxiv, 2019, preprint.
     DOI: 10.26434/chemrxiv.8326202.v1
   for GFN-FF:
   * S. Spicher and S. Grimme, Angew. Chem. Int. Ed., 2020, 59, 15665-15673.
     DOI: 10.1002/anie.202004239
   
   for ALPB and GBSA implicit solvation:
   * S. Ehlert, M. Stahn, S. Spicher, S. Grimme, J. Chem. Theory Comput.,
     2021, 17, 4250-4261. DOI: 10.1021/acs.jctc.1c00471
   
   for ddCOSMO and CPCM-X implicit solvation:
   * M. Stahn, S. Ehlert, S. Grimme, J. Phys. Chem. A,
     2023, XX, XXXX-XXXX. DOI: 10.1021/acs.jpca.3c04382
   
   for DFT-D4:
   * E. Caldeweyher, C. Bannwarth and S. Grimme, J. Chem. Phys., 2017,
     147, 034112. DOI: 10.1063/1.4993215
   * E. Caldeweyher, S. Ehlert, A. Hansen, H. Neugebauer, S. Spicher,
     C. Bannwarth and S. Grimme, J. Chem. Phys., 2019, 150, 154122.
     DOI: 10.1063/1.5090222
   * E. Caldeweyher, J.-M. Mewes, S. Ehlert and S. Grimme, Phys. Chem. Chem. Phys.
     2020, 22, 8499-8512. DOI: 10.1039/D0CP00502A
   
   for sTDA-xTB:
   * S. Grimme and C. Bannwarth, J. Chem. Phys., 2016, 145, 054103.
     DOI: 10.1063/1.4959605
   
   in the mass-spec context:
   * V. Asgeirsson, C. Bauer and S. Grimme, Chem. Sci., 2017, 8, 4879.
     DOI: 10.1039/c7sc00601b
   * J. Koopman and S. Grimme, ACS Omega 2019, 4, 12, 15120-15133.
     DOI: 10.1021/acsomega.9b02011
   
   for metadynamics refer to:
   * S. Grimme, J. Chem. Theory Comput., 2019, 155, 2847-2862
     DOI: 10.1021/acs.jctc.9b00143
   
   for SPH calculations refer to:
   * S. Spicher and S. Grimme, J. Chem. Theory Comput., 2021, 17, 1701-1714
     DOI: 10.1021/acs.jctc.0c01306
   
   for ONIOM refer to:
   * C. Plett, A. Katbashev, S. Ehlert, S. Grimme, M. Bursch,
     Phys. Chem. Chem. Phys., 2023, 25, 17860-17868. DOI: 10.1039/D3CP02178E
   
   for DIPRO refer to:
   * J. Kohn, N. Gildemeister, S. Grimme, D. Fazzi, A. Hansen,
     J. Chem. Phys., 2023, just accepted.
   
   for PTB refer to:
   * S. Grimme, M. Mueller, A. Hansen, J. Chem. Phys., 2023, 158, 124111.
     DOI: 10.1063/5.0137838
   
   with help from (in alphabetical order)
   P. Atkinson, C. Bannwarth, F. Bohle, G. Brandenburg, E. Caldeweyher
   M. Checinski, S. Dohm, S. Ehlert, S. Ehrlich, I. Gerasimov, C. Hölzer
   A. Katbashev, J. Kohn, J. Koopman, C. Lavigne, S. Lehtola, F. März, M. Müller,
   F. Musil, H. Neugebauer, J. Pisarek, C. Plett, P. Pracht, F. Pultar,
   J. Seibert, P. Shushkov, S. Spicher, M. Stahn, M. Steiner, T. Strunk,
   J. Stückrath, T. Rose, and J. Unsleber
   
 * started run on 2025/03/17 at 12:29:41.925     
   ID    Z sym.   atoms
    1    6 C      1-9, 11, 12, 14-21, 24-35, 37, 38, 40-47, 50-52, 56, 58,
                  62, 65, 68, 71
    2    7 N      10, 13, 36, 39
    3    8 O      22, 23, 48, 49, 54, 55, 57, 59-61, 63, 64, 66, 67, 69, 70
    4    5 B      53
    5    1 H      72-101

           -------------------------------------------------
          |                Calculation Setup                |
           -------------------------------------------------

          program call               : xtb Base1CO2Me.mol --opt --chrg 0 --uhf 1 --tight --spinpol --tblite
          coordinate file            : Base1CO2Me.mol
          omp threads                :                     8


molecular fragmentation (1/2 indicates fragments):
111111111111111111111111112222222222222222222222222211111112222222221112
22222111222111111222222112211
# atoms in fragment 1/2:    49    52
 fragment masses (1/2) :      480.19      473.41
CMA distance (Bohr)    :  14.961
constraining FC (au)   :  0.0500
########################################################################
[WARNING] Please study the warnings concerning your input carefully
-1- prog_main_parseArguments: Unknown option '--tight' provided
########################################################################
repulsion energy          1.2846587426175E+00 Eh
dispersion energy         1.0937607898115E-03 Eh
interaction energy        0.0000000000000E+00 Eh
number of electrons       3.4900000000000E+02 e
integral cutoff           1.9311100799991E+01 bohr

------------------------------------------------------------
  cycle        total energy    energy error   density error
------------------------------------------------------------
      1     -195.3412273239  -1.9662698E+02   1.8101000E-01
      2     -196.2557251047  -9.1449778E-01   1.0702279E-01
      3     -194.6038409086   1.6518842E+00   8.6330469E-02
      4     -162.2029155467   3.2400925E+01   1.5035789E-01
      5     -194.0635728651  -3.1860657E+01   7.4560442E-02
      6     -196.7207502001  -2.6571773E+00   4.5925489E-02
      7     -198.0737979908  -1.3530478E+00   3.3742520E-02
      8     -198.4841556126  -4.1035762E-01   2.1387562E-02
      9     -198.4485303100   3.5625303E-02   1.8922364E-02
     10     -198.5395918630  -9.1061553E-02   1.6857649E-02
     11     -198.5686230303  -2.9031167E-02   1.2144750E-02
     12     -198.6112749249  -4.2651895E-02   6.7905966E-03
     13     -198.6182945581  -7.0196332E-03   1.1256689E-02
     14     -198.6142473544   4.0472037E-03   1.2163097E-02
     15     -198.6105016919   3.7456626E-03   1.2252889E-02
     16     -198.6302116858  -1.9709994E-02   3.7596567E-03
     17     -198.6305558030  -3.4411716E-04   1.4184200E-03
     18     -198.6305891168  -3.3313822E-05   2.2451989E-03
     19     -198.6312243506  -6.3523377E-04   9.5719335E-04
     20     -198.6307299439   4.9440673E-04   1.6304430E-03
     21     -198.6313267398  -5.9679590E-04   3.6736949E-04
     22     -198.6312642676   6.2472178E-05   6.4368530E-04
     23     -198.6312531960   1.1071534E-05   6.0891573E-04
     24     -198.6313159545  -6.2758478E-05   3.1673002E-04
     25     -198.6313445711  -2.8616548E-05   5.7558031E-05
     26     -198.6313448011  -2.2998404E-07   5.1553292E-05
     27     -198.6313446540   1.4708155E-07   5.6383773E-05
     28     -198.6313439763   6.7765680E-07   7.1141945E-05
     29     -198.6313450815  -1.1052299E-06   3.3011601E-05
     30     -198.6313452884  -2.0687224E-07   1.6755959E-05
------------------------------------------------------------

electronic energy        -1.9991709779182E+02 Eh
total energy             -1.9863134528842E+02 Eh

 total:                                  13.685 sec
 - repulsion                              0.000 sec (  0%)
 - dispersion                             0.011 sec (  0%)
 - coulomb                                0.008 sec (  0%)
 - hamiltonian                            0.040 sec (  0%)
 - scc                                   13.626 sec ( 99%)

      ----------------------------------------------------------- 
     |                   =====================                   |
     |                        A N C O P T                        |
     |                   =====================                   |
     |               Approximate Normal Coordinate               |
     |                Rational Function Optimizer                |
      ----------------------------------------------------------- 
      ----------------------------------------------------------- 
     |                   =====================                   |
     |                        A N C O P T                        |
     |                   =====================                   |
     |               Approximate Normal Coordinate               |
     |                Rational Function Optimizer                |
      ----------------------------------------------------------- 

          ...................................................
          :                      SETUP                      :
          :.................................................:
          :   optimization level            normal          :
          :   max. optcycles                   303          :
          :   ANC micro-cycles                  20          :
          :   degrees of freedom               297          :
          :.................................................:
          :   RF solver                   davidson          :
          :   write xtbopt.log                true          :
          :   linear?                        false          :
          :   energy convergence         0.5000000E-05 Eh   :
          :   grad. convergence          0.1000000E-02 Eh/α :
          :   maxmium RF displ.          1.0000000          :
          :   Hlow (freq-cutoff)         0.1000000E-01      :
          :   Hmax (freq-cutoff)         5.0000000          :
          :   S6 in model hess.         20.0000000          :
          ...................................................

generating ANC from exact Hessian ...
Using Lindh-Hessian (1995)
 Shifting diagonal of input Hessian by    1.1480404221780132E-002
 Lowest  eigenvalues of input Hessian
    0.010000    0.011419    0.000000    0.000000    0.011466    0.000000
    0.000000    0.000000    0.000000    0.011496    0.011512    0.011540
    0.011567    0.011626    0.011646    0.011700    0.011735    0.011787
 Highest eigenvalues
    1.425202    1.457812    1.467823    1.468141    1.473108    1.474134


........................................................................
.............................. CYCLE    1 ..............................
........................................................................
------------------------------------------------------------
  cycle        total energy    energy error   density error
------------------------------------------------------------
      1     -198.6312494252  -1.9991700E+02   5.1096441E-04
      2     -198.6168807230   1.4368702E-02   6.2535480E-03
      3     -198.6313450656  -1.4464343E-02   2.7082548E-05
      4     -198.6313446918   3.7382782E-07   4.0902982E-05
      5     -198.6313453347  -6.4298158E-07   1.0395990E-05
------------------------------------------------------------

 total:                                   2.042 sec
 * total energy  :  -198.6313453 Eh     change       -0.4632037E-07 Eh
   gradient norm :     0.7365772 Eh/α   predicted     0.0000000E+00 (-100.00%)
   displ. norm   :     0.7880175 α      lambda       -0.5243785E+00
   maximum displ.:     0.1904743 α      in ANC's #143, #158, #126, ...

........................................................................
.............................. CYCLE    2 ..............................
........................................................................
------------------------------------------------------------
  cycle        total energy    energy error   density error
------------------------------------------------------------
      1     -199.0960907298  -2.0048660E+02   9.8176786E-03
      2     -199.0900668731   6.0238566E-03   8.7132209E-03
      3     -199.0253896684   6.4677205E-02   1.3837349E-02
      4     -199.0689222565  -4.3532588E-02   1.0267557E-02
      5     -199.0982305775  -2.9308321E-02   4.6354430E-03
      6     -199.1041948986  -5.9643211E-03   2.3676295E-03
      7     -199.1018249253   2.3699733E-03   4.0267745E-03
      8     -199.1018985124  -7.3587056E-05   3.9095679E-03
      9     -199.1029234970  -1.0249846E-03   3.4085177E-03
     10     -199.1062473313  -3.3238343E-03   6.9801182E-04
     11     -199.1062136976   3.3633697E-05   7.2951086E-04
     12     -199.1063557492  -1.4205157E-04   2.0026486E-04
     13     -199.1063541764   1.5727296E-06   2.2782219E-04
     14     -199.1063679656  -1.3789201E-05   5.4024603E-05
     15     -199.1063663918   1.5738379E-06   9.1286223E-05
     16     -199.1063664958  -1.0397088E-07   8.2055506E-05
     17     -199.1063677443  -1.2485575E-06   4.8200988E-05
     18     -199.1063684381  -6.9372251E-07   8.0820075E-06
------------------------------------------------------------

 total:                                   8.511 sec
 * total energy  :  -199.1063684 Eh     change       -0.4750231E+00 Eh
   gradient norm :     0.5689415 Eh/α   predicted    -0.4250095E+00 ( -10.53%)
   displ. norm   :     0.8582667 α      lambda       -0.4656156E+00
   maximum displ.:     0.1882154 α      in ANC's #143, #126, #289, ...

........................................................................
.............................. CYCLE    3 ..............................
........................................................................
------------------------------------------------------------
  cycle        total energy    energy error   density error
------------------------------------------------------------
      1     -199.4562869589  -2.0105896E+02   1.0961023E-02
      2     -199.4582134194  -1.9264605E-03   9.0531309E-03
      3     -199.3326700305   1.2554339E-01   1.6477107E-02
      4     -199.4295118427  -9.6841812E-02   1.0499254E-02
      5     -199.4657021319  -3.6190289E-02   5.0502663E-03
      6     -199.4630802074   2.6219245E-03   4.9536750E-03
      7     -199.4728692580  -9.7890506E-03   2.1723665E-03
      8     -199.4734849086  -6.1565060E-04   2.6513569E-03
      9     -199.4735999938  -1.1508520E-04   2.5705780E-03
     10     -199.4735536186   4.6375199E-05   2.9442420E-03
     11     -199.4736834222  -1.2980355E-04   1.0960426E-03
     12     -199.4738914993  -2.0807709E-04   8.8837137E-04
     13     -199.4741021146  -2.1061535E-04   3.5832969E-04
     14     -199.4741404320  -3.8317385E-05   2.3240639E-04
     15     -199.4741242892   1.6142782E-05   4.0402082E-04
     16     -199.4741303580  -6.0687633E-06   3.0256553E-04
     17     -199.4741433813  -1.3023289E-05   1.4471289E-04
     18     -199.4741420126   1.3687024E-06   1.5121025E-04
     19     -199.4741447428  -2.7302672E-06   8.5148281E-05
     20     -199.4741465361  -1.7932807E-06   1.0787771E-05
     21     -199.4741465583  -2.2216454E-08   4.8232263E-06
------------------------------------------------------------

 total:                                   7.474 sec
 * total energy  :  -199.4741466 Eh     change       -0.3677781E+00 Eh
   gradient norm :     0.3511514 Eh/α   predicted    -0.4043522E+00 (   9.94%)
   displ. norm   :     0.8739620 α      lambda       -0.2936446E+00
   maximum displ.:     0.2272208 α      in ANC's #143, #126, #122, ...

........................................................................
.............................. CYCLE    4 ..............................
........................................................................
------------------------------------------------------------
  cycle        total energy    energy error   density error
------------------------------------------------------------
      1     -199.7350797550  -2.0145579E+02   8.7281672E-03
      2     -199.7297056464   5.3741086E-03   6.8391923E-03
      3     -199.5065972753   2.2310837E-01   2.0705782E-02
      4     -199.7161067432  -2.0950947E-01   7.8289219E-03
      5     -199.7288609346  -1.2754191E-02   6.4044608E-03
      6     -199.7356509023  -6.7899677E-03   2.7218427E-03
      7     -199.7379523417  -2.3014394E-03   1.4701493E-03
      8     -199.7385488464  -5.9650462E-04   1.2239036E-03
      9     -199.7387391300  -1.9028365E-04   1.1897154E-03
     10     -199.7387772614  -3.8131418E-05   1.2977984E-03
     11     -199.7387689579   8.3035650E-06   1.2662828E-03
     12     -199.7387501417   1.8816142E-05   1.2455889E-03
     13     -199.7387546249  -4.4832040E-06   1.1997125E-03
     14     -199.7388749604  -1.2033549E-04   4.9329282E-04
     15     -199.7388797595  -4.7990551E-06   3.7984155E-04
     16     -199.7388842943  -4.5347801E-06   3.1796354E-04
     17     -199.7388879226  -3.6283737E-06   1.5981106E-04
     18     -199.7388890721  -1.1494976E-06   7.6879360E-05
     19     -199.7388885952   4.7693402E-07   6.2861218E-05
     20     -199.7388896362  -1.0409926E-06   1.4413499E-05
     21     -199.7388896285   7.7199047E-09   8.4586573E-06
------------------------------------------------------------

 total:                                   7.078 sec
 * total energy  :  -199.7388896 Eh     change       -0.2647431E+00 Eh
   gradient norm :     0.2817320 Eh/α   predicted    -0.2589669E+00 (  -2.18%)
   displ. norm   :     0.8928495 α      lambda       -0.2410961E+00
   maximum displ.:     0.2152789 α      in ANC's #126, #122, #143, ...

........................................................................
.............................. CYCLE    5 ..............................
........................................................................
------------------------------------------------------------
  cycle        total energy    energy error   density error
------------------------------------------------------------
      1     -199.9414479998  -2.0177082E+02   8.6976954E-03
      2     -199.9399076506   1.5403493E-03   5.9505540E-03
      3     -199.9282892389   1.1618412E-02   7.3663344E-03
      4     -199.6253681269   3.0292111E-01   2.4028011E-02
      5     -199.9326516246  -3.0728350E-01   6.5903011E-03
      6     -199.9448652659  -1.2213641E-02   2.0763140E-03
      7     -199.9458216068  -9.5634089E-04   1.1281606E-03
      8     -199.9455606221   2.6098469E-04   1.1994592E-03
      9     -199.9458180017  -2.5737965E-04   9.0783813E-04
     10     -199.9458801298  -6.2128110E-05   7.5784406E-04
     11     -199.9460778699  -1.9774002E-04   4.0278591E-04
     12     -199.9461619686  -8.4098745E-05   2.9725534E-04
     13     -199.9461619438   2.4830257E-08   2.8809036E-04
     14     -199.9461635835  -1.6396835E-06   2.9793888E-04
     15     -199.9461650439  -1.4604088E-06   2.3753924E-04
     16     -199.9461656560  -6.1208934E-07   2.2066993E-04
     17     -199.9461656636  -7.6475146E-09   2.2006457E-04
     18     -199.9461667587  -1.0951393E-06   1.5786467E-04
     19     -199.9461672275  -4.6873899E-07   1.2691726E-04
     20     -199.9461679023  -6.7486789E-07   5.3215715E-05
     21     -199.9461679362  -3.3804838E-08   3.1944672E-05
     22     -199.9461680428  -1.0663328E-07   5.5441127E-06
------------------------------------------------------------

 total:                                   6.569 sec
 * total energy  :  -199.9461680 Eh     change       -0.2072784E+00 Eh
   gradient norm :     0.1971070 Eh/α   predicted    -0.2166470E+00 (   4.52%)
   displ. norm   :     0.8640801 α      lambda       -0.1651242E+00
   maximum displ.:     0.2480526 α      in ANC's #74, #78, #77, ...

........................................................................
.............................. CYCLE    6 ..............................
........................................................................
------------------------------------------------------------
  cycle        total energy    energy error   density error
------------------------------------------------------------
      1     -200.0825074111  -2.0205262E+02   7.9074971E-03
      2     -200.0780235719   4.4838392E-03   6.0356036E-03
      3     -200.0457970106   3.2226561E-02   9.7133329E-03
      4     -199.7442542384   3.0154277E-01   2.4937528E-02
      5     -200.0613639974  -3.1710976E-01   8.5466441E-03
      6     -200.0839309795  -2.2566982E-02   2.5486227E-03
      7     -200.0855371713  -1.6061917E-03   1.5466670E-03
      8     -200.0859716060  -4.3443478E-04   1.1344061E-03
      9     -200.0860454751  -7.3869088E-05   1.0230699E-03
     10     -200.0861412444  -9.5769320E-05   7.9297271E-04
     11     -200.0860944313   4.6813167E-05   7.4812135E-04
     12     -200.0863375449  -2.4311359E-04   3.4954052E-04
     13     -200.0863380367  -4.9179212E-07   2.8328944E-04
     14     -200.0863315602   6.4764888E-06   2.3958891E-04
     15     -200.0863432076  -1.1647468E-05   2.3796184E-04
     16     -200.0863432400  -3.2341092E-08   2.3773396E-04
     17     -200.0863427982   4.4182499E-07   2.3703637E-04
     18     -200.0863440763  -1.2781339E-06   1.9567200E-04
     19     -200.0863447310  -6.5467654E-07   1.6841367E-04
     20     -200.0863449567  -2.2569276E-07   1.5359528E-04
     21     -200.0863458173  -8.6064105E-07   9.6476748E-05
     22     -200.0863461015  -2.8424199E-07   5.8987272E-05
     23     -200.0863463023  -2.0075689E-07   2.2368347E-05
     24     -200.0863463290  -2.6663969E-08   1.0498136E-05
------------------------------------------------------------

 total:                                   8.227 sec
 * total energy  :  -200.0863463 Eh     change       -0.1401783E+00 Eh
   gradient norm :     0.1430801 Eh/α   predicted    -0.1442058E+00 (   2.87%)
   displ. norm   :     0.8680985 α      lambda       -0.1177414E+00
   maximum displ.:     0.3068586 α      in ANC's #74, #78, #77, ...

........................................................................
.............................. CYCLE    7 ..............................
........................................................................
------------------------------------------------------------
  cycle        total energy    energy error   density error
------------------------------------------------------------
      1     -200.1794501745  -2.0227392E+02   7.0545683E-03
      2     -200.1458974432   3.3552731E-02   9.6237675E-03
      3     -199.9022980802   2.4359936E-01   2.2604077E-02
      4     -200.1685416206  -2.6624354E-01   6.9010510E-03
      5     -200.1554980718   1.3043549E-02   8.0897283E-03
      6     -200.1774215705  -2.1923499E-02   4.2708211E-03
      7     -200.1825026050  -5.0810345E-03   1.6862046E-03
      8     -200.1830009247  -4.9831963E-04   1.4245069E-03
      9     -200.1832309111  -2.2998643E-04   8.6373920E-04
     10     -200.1833336571  -1.0274597E-04   6.1697991E-04
     11     -200.1833717305  -3.8073474E-05   4.8744314E-04
     12     -200.1834754532  -1.0372265E-04   4.7269225E-04
     13     -200.1834784653  -3.0121153E-06   4.2256268E-04
     14     -200.1834674559   1.1009368E-05   5.0418105E-04
     15     -200.1834725060  -5.0500959E-06   4.5983476E-04
     16     -200.1834645087   7.9973620E-06   4.6823897E-04
     17     -200.1834636222   8.8650515E-07   4.5749835E-04
     18     -200.1834683204  -4.6982646E-06   4.1472313E-04
     19     -200.1834815802  -1.3259783E-05   2.5302215E-04
     20     -200.1834854872  -3.9070414E-06   1.4925703E-04
     21     -200.1834883152  -2.8279532E-06   4.7624950E-05
     22     -200.1834888215  -5.0630629E-07   1.1546885E-05
------------------------------------------------------------

 total:                                   9.089 sec
 * total energy  :  -200.1834888 Eh     change       -0.9714249E-01 Eh
   gradient norm :     0.1164967 Eh/α   predicted    -0.1032354E+00 (   6.27%)
   displ. norm   :     0.8907839 α      lambda       -0.9479609E-01
   maximum displ.:     0.3253994 α      in ANC's #74, #78, #77, ...

........................................................................
.............................. CYCLE    8 ..............................
........................................................................
------------------------------------------------------------
  cycle        total energy    energy error   density error
------------------------------------------------------------
      1     -200.2495737383  -2.0245962E+02   6.6128553E-03
      2     -200.2370210825   1.2552656E-02   6.9468002E-03
      3     -200.1351141761   1.0190691E-01   1.4732336E-02
      4     -200.1131026089   2.2011567E-02   1.5579180E-02
      5     -200.2443853935  -1.3128278E-01   4.9747530E-03
      6     -200.2403744986   4.0108949E-03   5.1367489E-03
      7     -200.2492056931  -8.8311945E-03   2.4156816E-03
      8     -200.2493240181  -1.1832504E-04   2.2755300E-03
      9     -200.2503887634  -1.0647452E-03   1.4487028E-03
     10     -200.2513910704  -1.0023071E-03   7.4941039E-04
     11     -200.2514548285  -6.3758066E-05   7.5973199E-04
     12     -200.2514585236  -3.6951184E-06   7.3543773E-04
     13     -200.2514435972   1.4926417E-05   7.3807552E-04
     14     -200.2514776231  -3.4025878E-05   4.8983952E-04
     15     -200.2515006889  -2.3065840E-05   2.9945429E-04
     16     -200.2514974691   3.2198150E-06   2.4522878E-04
     17     -200.2515082677  -1.0798627E-05   1.3504758E-04
     18     -200.2515097328  -1.4650919E-06   7.9996155E-05
     19     -200.2515083651   1.3676787E-06   6.7083840E-05
     20     -200.2515101001  -1.7349585E-06   2.9154869E-05
     21     -200.2515102897  -1.8961015E-07   2.1464875E-05
     22     -200.2515102932  -3.5453809E-09   1.3594096E-05
------------------------------------------------------------

 total:                                  12.107 sec
 * total energy  :  -200.2515103 Eh     change       -0.6802147E-01 Eh
   gradient norm :     0.1330462 Eh/α   predicted    -0.8500834E-01 (  24.97%)
   displ. norm   :     0.8117630 α      lambda       -0.7470352E-01
   maximum displ.:     0.3184212 α      in ANC's #74, #77, #78, ...

........................................................................
.............................. CYCLE    9 ..............................
........................................................................
------------------------------------------------------------
  cycle        total energy    energy error   density error
------------------------------------------------------------
      1     -200.3061869953  -2.0258210E+02   6.0601365E-03
      2     -200.2860655335   2.0121462E-02   7.5350973E-03
      3     -200.1919979981   9.4067535E-02   1.3807541E-02
      4     -200.2374572903  -4.5459292E-02   1.2227824E-02
      5     -200.3009191366  -6.3461846E-02   4.2909534E-03
      6     -200.2863123250   1.4606812E-02   6.3914497E-03
      7     -200.2973418794  -1.1029554E-02   4.1321251E-03
      8     -200.3067370902  -9.3952109E-03   1.6294433E-03
      9     -200.3070369901  -2.9989990E-04   1.8283945E-03
     10     -200.3069320152   1.0497493E-04   1.8633023E-03
     11     -200.3068868225   4.5192707E-05   1.8527436E-03
     12     -200.3070188972  -1.3207465E-04   1.5273835E-03
     13     -200.3070913731  -7.2475962E-05   6.5643595E-04
     14     -200.3072044920  -1.1311884E-04   5.2157731E-04
     15     -200.3072042503   2.4170291E-07   4.5572131E-04
     16     -200.3072208029  -1.6552595E-05   3.0883970E-04
     17     -200.3072236123  -2.8094684E-06   2.2402164E-04
     18     -200.3072225376   1.0747234E-06   1.6429534E-04
     19     -200.3072265476  -4.0099919E-06   4.5841162E-05
     20     -200.3072266380  -9.0436345E-08   3.0958030E-05
     21     -200.3072265758   6.2214127E-08   2.3801275E-05
     22     -200.3072266865  -1.1073251E-07   7.0281638E-06
------------------------------------------------------------

 total:                                  10.487 sec
 * total energy  :  -200.3072267 Eh     change       -0.5571639E-01 Eh
   gradient norm :     0.0734702 Eh/α   predicted    -0.6196506E-01 (  11.22%)
   displ. norm   :     0.8252640 α      lambda       -0.4758988E-01
   maximum displ.:     0.3198838 α      in ANC's #74, #77, #73, ...

........................................................................
.............................. CYCLE   10 ..............................
........................................................................
------------------------------------------------------------
  cycle        total energy    energy error   density error
------------------------------------------------------------
      1     -200.3466453341  -2.0269222E+02   6.0107348E-03
      2     -200.3412116200   5.4337140E-03   5.1285416E-03
      3     -200.0992853702   2.4192625E-01   2.0516763E-02
      4     -200.3247030621  -2.2541769E-01   7.7065539E-03
      5     -200.3360753565  -1.1372294E-02   6.3856071E-03
      6     -200.3467492456  -1.0673889E-02   1.3437377E-03
      7     -200.3462843864   4.6485926E-04   1.3690977E-03
      8     -200.3469312257  -6.4683933E-04   7.8430212E-04
      9     -200.3470353469  -1.0412123E-04   5.7465290E-04
     10     -200.3470967289  -6.1381951E-05   5.0575883E-04
     11     -200.3471088948  -1.2165944E-05   5.3989984E-04
     12     -200.3470996602   9.2346625E-06   5.7977561E-04
     13     -200.3470890942   1.0565993E-05   5.7557239E-04
     14     -200.3471043944  -1.5300267E-05   4.0246669E-04
     15     -200.3471105475  -6.1530980E-06   3.0693809E-04
     16     -200.3471202907  -9.7431788E-06   1.6269079E-04
     17     -200.3471226380  -2.3472518E-06   4.6845145E-05
     18     -200.3471226873  -4.9275570E-08   2.3016768E-05
     19     -200.3471226997  -1.2483440E-08   1.3615663E-05
------------------------------------------------------------

 total:                                   8.862 sec
 * total energy  :  -200.3471227 Eh     change       -0.3989601E-01 Eh
   gradient norm :     0.0546312 Eh/α   predicted    -0.4000075E-01 (   0.26%)
   displ. norm   :     0.8370192 α      lambda       -0.3680596E-01
   maximum displ.:     0.2908703 α      in ANC's #74, #77, #52, ...

........................................................................
.............................. CYCLE   11 ..............................
........................................................................
------------------------------------------------------------
  cycle        total energy    energy error   density error
------------------------------------------------------------
      1     -200.3734719651  -2.0277676E+02   6.4822133E-03
      2     -200.3338705115   3.9601454E-02   1.0622741E-02
      3     -200.3103626636   2.3507848E-02   1.0936604E-02
      4     -200.3203605933  -9.9979297E-03   1.0921079E-02
      5     -200.3411524041  -2.0791811E-02   8.7182871E-03
      6     -200.3551530777  -1.4000674E-02   6.3417846E-03
      7     -200.3675221266  -1.2369049E-02   3.4990376E-03
      8     -200.3734267621  -5.9046356E-03   1.5280267E-03
      9     -200.3737659828  -3.3922063E-04   2.2339862E-03
     10     -200.3737172076   4.8775193E-05   2.2231227E-03
     11     -200.3739657360  -2.4852849E-04   1.7333563E-03
     12     -200.3741566323  -1.9089624E-04   4.9945951E-04
     13     -200.3741249448   3.1687531E-05   5.1401182E-04
     14     -200.3741774215  -5.2476760E-05   3.9415805E-04
     15     -200.3741782161  -7.9454435E-07   3.4585162E-04
     16     -200.3741882581  -1.0042020E-05   2.2771466E-04
     17     -200.3741940339  -5.7757847E-06   9.9520939E-05
     18     -200.3741948633  -8.2946886E-07   4.6517438E-05
     19     -200.3741951221  -2.5875698E-07   2.5824952E-05
     20     -200.3741952249  -1.0284717E-07   6.7690676E-06
------------------------------------------------------------

 total:                                   6.967 sec
 * total energy  :  -200.3741952 Eh     change       -0.2707253E-01 Eh
   gradient norm :     0.0522762 Eh/α   predicted    -0.3129618E-01 (  15.60%)
   displ. norm   :     0.8016565 α      lambda       -0.2873680E-01
   maximum displ.:     0.2618495 α      in ANC's #74, #52, #55, ...

........................................................................
.............................. CYCLE   12 ..............................
........................................................................
------------------------------------------------------------
  cycle        total energy    energy error   density error
------------------------------------------------------------
      1     -200.3919692095  -2.0285323E+02   6.8291343E-03
      2     -200.3390220020   5.2947208E-02   1.0797586E-02
      3     -200.2443602058   9.4661796E-02   1.6026631E-02
      4     -200.3832544954  -1.3889429E-01   5.7295289E-03
      5     -200.3754475757   7.8069197E-03   6.6787224E-03
      6     -200.3725551368   2.8924390E-03   6.6845155E-03
      7     -200.3755421888  -2.9870521E-03   5.8638047E-03
      8     -200.3852565216  -9.7143328E-03   3.6332153E-03
      9     -200.3931874988  -7.9309772E-03   2.6349952E-03
     10     -200.3932584274  -7.0928600E-05   2.3888088E-03
     11     -200.3932768837  -1.8456327E-05   2.1926648E-03
     12     -200.3932979934  -2.1109727E-05   1.6514837E-03
     13     -200.3933529811  -5.4987623E-05   1.0996179E-03
     14     -200.3933586533  -5.6722676E-06   6.8586975E-04
     15     -200.3933880315  -2.9378185E-05   6.7533103E-04
     16     -200.3933838123   4.2191984E-06   5.9051066E-04
     17     -200.3934018047  -1.7992366E-05   1.4539706E-04
     18     -200.3934034783  -1.6736459E-06   1.3185286E-04
     19     -200.3934040979  -6.1961836E-07   6.4323798E-05
     20     -200.3934046039  -5.0597129E-07   1.0995607E-05
------------------------------------------------------------

 total:                                   6.895 sec
 * total energy  :  -200.3934046 Eh     change       -0.1920938E-01 Eh
   gradient norm :     0.0515495 Eh/α   predicted    -0.2360231E-01 (  22.87%)
   displ. norm   :     0.7682076 α      lambda       -0.2179382E-01
   maximum displ.:     0.2168663 α      in ANC's #52, #55, #73, ...

........................................................................
.............................. CYCLE   13 ..............................
........................................................................
------------------------------------------------------------
  cycle        total energy    energy error   density error
------------------------------------------------------------
      1     -200.4017760583  -2.0289932E+02   6.4959671E-03
      2     -200.3760602169   2.5715841E-02   8.9325638E-03
      3     -200.3006817540   7.5378463E-02   1.3954641E-02
      4     -200.3730385638  -7.2356810E-02   8.3021577E-03
      5     -200.3802203826  -7.1818188E-03   7.1584052E-03
      6     -200.3928720085  -1.2651626E-02   4.4327680E-03
      7     -200.4005282119  -7.6562034E-03   1.9866012E-03
      8     -200.4023799598  -1.8517480E-03   1.5893193E-03
      9     -200.4024283606  -4.8400810E-05   1.6746805E-03
     10     -200.4024356336  -7.2729255E-06   1.3780864E-03
     11     -200.4022658879   1.6974562E-04   7.0718016E-04
     12     -200.4024394348  -1.7354684E-04   3.6255099E-04
     13     -200.4024834582  -4.4023401E-05   2.3766844E-04
     14     -200.4024851003  -1.6421211E-06   2.2745816E-04
     15     -200.4024878699  -2.7695968E-06   1.2666866E-04
     16     -200.4024884481  -5.7818491E-07   6.5310482E-05
     17     -200.4024887919  -3.4385894E-07   2.3934050E-05
     18     -200.4024888089  -1.6943886E-08   1.3235555E-05
------------------------------------------------------------

 total:                                   7.161 sec
 * total energy  :  -200.4024888 Eh     change       -0.9084205E-02 Eh
   gradient norm :     0.0865223 Eh/α   predicted    -0.1732765E-01 (  90.74%)
   displ. norm   :     0.6258639 α      lambda       -0.2283848E-01
   maximum displ.:     0.1461511 α      in ANC's #27, #52, #74, ...

........................................................................
.............................. CYCLE   14 ..............................
........................................................................
------------------------------------------------------------
  cycle        total energy    energy error   density error
------------------------------------------------------------
      1     -200.4137531123  -2.0291021E+02   5.5410959E-03
      2     -200.3470837241   6.6669388E-02   1.2287687E-02
      3     -200.3844507880  -3.7367064E-02   9.1524815E-03
      4     -200.3972306242  -1.2779836E-02   6.6549952E-03
      5     -200.4025730453  -5.3424211E-03   5.4517183E-03
      6     -200.4120235700  -9.4505247E-03   2.4626834E-03
      7     -200.4148960473  -2.8724773E-03   9.7141795E-04
      8     -200.4146981030   1.9794435E-04   1.5115034E-03
      9     -200.4147104765  -1.2373585E-05   1.5111044E-03
     10     -200.4149509904  -2.4051385E-04   5.7418305E-04
     11     -200.4145393623   4.1162808E-04   1.2290590E-03
     12     -200.4148762048  -3.3684252E-04   5.5290575E-04
     13     -200.4149609201  -8.4715298E-05   1.2657085E-04
     14     -200.4149625328  -1.6126789E-06   8.9246830E-05
     15     -200.4149626206  -8.7826521E-08   7.9625464E-05
     16     -200.4149626640  -4.3336172E-08   6.4007010E-05
     17     -200.4149633970  -7.3306782E-07   3.0775288E-05
     18     -200.4149636176  -2.2060644E-07   5.1153227E-06
------------------------------------------------------------

 total:                                   5.334 sec
 * total energy  :  -200.4149636 Eh     change       -0.1247481E-01 Eh
   gradient norm :     0.0545304 Eh/α   predicted    -0.1589223E-01 (  27.39%)
   displ. norm   :     0.6450939 α      lambda       -0.1870207E-01
   maximum displ.:     0.1831103 α      in ANC's #27, #49, #35, ...

........................................................................
.............................. CYCLE   15 ..............................
........................................................................
------------------------------------------------------------
  cycle        total energy    energy error   density error
------------------------------------------------------------
      1     -200.4206896758  -2.0293927E+02   6.2712175E-03
      2     -200.3767765425   4.3913133E-02   1.0414432E-02
      3     -200.3569875953   1.9788947E-02   1.2183276E-02
      4     -200.4172780101  -6.0290415E-02   3.8136039E-03
      5     -200.4151287861   2.1492240E-03   4.2699418E-03
      6     -200.4155178978  -3.8911176E-04   4.0284487E-03
      7     -200.4179536687  -2.4357708E-03   3.0524133E-03
      8     -200.4216768052  -3.7231365E-03   1.0822796E-03
      9     -200.4210529988   6.2380645E-04   1.8275140E-03
     10     -200.4209148494   1.3814937E-04   2.0120841E-03
     11     -200.4204250260   4.8982336E-04   2.5088787E-03
     12     -200.4216916101  -1.2665841E-03   6.8778236E-04
     13     -200.4217996635  -1.0805341E-04   1.6983372E-04
     14     -200.4218056342  -5.9706846E-06   7.8908891E-05
     15     -200.4218062852  -6.5101264E-07   2.8251374E-05
     16     -200.4218063607  -7.5502925E-08   1.4954642E-05
------------------------------------------------------------

 total:                                   4.424 sec
 * total energy  :  -200.4218064 Eh     change       -0.6842743E-02 Eh
   gradient norm :     0.0673848 Eh/α   predicted    -0.1324244E-01 (  93.53%)
   displ. norm   :     0.6139638 α      lambda       -0.1754915E-01
   maximum displ.:     0.1560076 α      in ANC's #32, #24, #9, ...

........................................................................
.............................. CYCLE   16 ..............................
........................................................................
------------------------------------------------------------
  cycle        total energy    energy error   density error
------------------------------------------------------------
      1     -200.4318615022  -2.0295449E+02   4.8732159E-03
      2     -200.4314691845   3.9231773E-04   3.0993910E-03
      3     -200.3757516751   5.5717509E-02   1.0846484E-02
      4     -200.4111603699  -3.5408695E-02   7.5571837E-03
      5     -200.4251751303  -1.4014760E-02   4.2074549E-03
      6     -200.4295346250  -4.3594947E-03   2.3899139E-03
      7     -200.4319824891  -2.4478641E-03   1.1906705E-03
      8     -200.4316270501   3.5543903E-04   1.6611322E-03
      9     -200.4316372408  -1.0190744E-05   1.6346383E-03
     10     -200.4320557426  -4.1850176E-04   7.7072421E-04
     11     -200.4321822663  -1.2652375E-04   7.1293304E-05
     12     -200.4321828566  -5.9029230E-07   4.0193644E-05
     13     -200.4321826609   1.9565189E-07   4.8873146E-05
     14     -200.4321829760  -3.1505505E-07   2.7097844E-05
     15     -200.4321830184  -4.2420908E-08   2.5227375E-05
     16     -200.4321830434  -2.5002919E-08   2.0903265E-05
     17     -200.4321831522  -1.0881405E-07   3.5481113E-06
------------------------------------------------------------

 total:                                   7.848 sec
 * total energy  :  -200.4321832 Eh     change       -0.1037679E-01 Eh
   gradient norm :     0.0572942 Eh/α   predicted    -0.1208216E-01 (  16.43%)
   displ. norm   :     0.6796030 α      lambda       -0.1972570E-01
   maximum displ.:     0.2022201 α      in ANC's #27, #33, #24, ...

........................................................................
.............................. CYCLE   17 ..............................
........................................................................
------------------------------------------------------------
  cycle        total energy    energy error   density error
------------------------------------------------------------
      1     -200.4361666562  -2.0295001E+02   6.0923278E-03
      2     -200.4198394355   1.6327221E-02   7.7621119E-03
      3     -200.3668092662   5.3030169E-02   1.2405269E-02
      4     -200.4082516175  -4.1442351E-02   8.3364394E-03
      5     -200.4218823001  -1.3630683E-02   5.9896997E-03
      6     -200.4353392717  -1.3456972E-02   1.7275355E-03
      7     -200.4360967546  -7.5748293E-04   2.2164269E-03
      8     -200.4359524604   1.4429423E-04   2.2771689E-03
      9     -200.4362489649  -2.9650455E-04   1.8203556E-03
     10     -200.4367585098  -5.0954488E-04   2.2103626E-04
     11     -200.4367661766  -7.6668005E-06   1.4435350E-04
     12     -200.4367704502  -4.2735452E-06   8.0091124E-05
     13     -200.4367721236  -1.6734086E-06   6.3386560E-05
     14     -200.4367714677   6.5583305E-07   7.8181797E-05
     15     -200.4367721522  -6.8447576E-07   3.7456927E-05
     16     -200.4367720629   8.9365017E-08   3.8030007E-05
     17     -200.4367722776  -2.1479093E-07   1.8686923E-05
------------------------------------------------------------

 total:                                  12.100 sec
 * total energy  :  -200.4367723 Eh     change       -0.4589125E-02 Eh
   gradient norm :     0.0882577 Eh/α   predicted    -0.1441812E-01 ( 214.18%)
   displ. norm   :     0.5417335 α      lambda       -0.1885211E-01
   maximum displ.:     0.1548704 α      in ANC's #24, #14, #32, ...

........................................................................
.............................. CYCLE   18 ..............................
........................................................................
------------------------------------------------------------
  cycle        total energy    energy error   density error
------------------------------------------------------------
      1     -200.4472871968  -2.0295905E+02   4.3397023E-03
      2     -200.4107343587   3.6552838E-02   1.0329884E-02
      3     -200.4275232739  -1.6788915E-02   7.8837868E-03
      4     -200.4475252257  -2.0001952E-02   1.4873899E-03
      5     -200.4475073779   1.7847747E-05   1.2411912E-03
      6     -200.4479340784  -4.2670052E-04   6.9086827E-04
      7     -200.4479455527  -1.1474215E-05   6.4844492E-04
      8     -200.4480300782  -8.4525500E-05   3.8803469E-04
      9     -200.4480754943  -4.5416087E-05   1.1296492E-04
     10     -200.4480787685  -3.2742870E-06   5.9767102E-05
     11     -200.4480788850  -1.1641890E-07   5.4864903E-05
     12     -200.4480798040  -9.1907376E-07   1.2604813E-05
------------------------------------------------------------

 total:                                   8.622 sec
 * total energy  :  -200.4480798 Eh     change       -0.1130753E-01 Eh
   gradient norm :     0.0473288 Eh/α   predicted    -0.1219238E-01 (   7.83%)
   displ. norm   :     0.6480648 α      lambda       -0.1546063E-01
   maximum displ.:     0.1950632 α      in ANC's #24, #27, #18, ...

........................................................................
.............................. CYCLE   19 ..............................
........................................................................
------------------------------------------------------------
  cycle        total energy    energy error   density error
------------------------------------------------------------
      1     -200.4529650279  -2.0297578E+02   5.5728186E-03
      2     -200.4192815437   3.3683484E-02   9.8635457E-03
      3     -200.4111446637   8.1368800E-03   1.0870910E-02
      4     -200.4530513820  -4.1906718E-02   1.7638809E-03
      5     -200.4534955896  -4.4420764E-04   1.0998265E-03
      6     -200.4536735440  -1.7795435E-04   7.7285468E-04
      7     -200.4538333878  -1.5984385E-04   3.6771430E-04
      8     -200.4538562412  -2.2853376E-05   2.3675602E-04
      9     -200.4538286579   2.7583255E-05   3.5992819E-04
     10     -200.4538330389  -4.3809509E-06   3.3015154E-04
     11     -200.4538695918  -3.6552921E-05   4.4669536E-05
     12     -200.4538675739   2.0179543E-06   1.0383162E-04
     13     -200.4538685860  -1.0121553E-06   8.1393598E-05
     14     -200.4538703953  -1.8093299E-06   1.5197726E-05
     15     -200.4538702517   1.4366691E-07   2.8810490E-05
     16     -200.4538704218  -1.7017072E-07   1.4271099E-05
------------------------------------------------------------

 total:                                  12.410 sec
 * total energy  :  -200.4538704 Eh     change       -0.5790618E-02 Eh
   gradient norm :     0.0600342 Eh/α   predicted    -0.1097695E-01 (  89.56%)
   displ. norm   :     0.6386171 α      lambda       -0.1412913E-01
   maximum displ.:     0.1948498 α      in ANC's #24, #14, #1, ...

........................................................................
.............................. CYCLE   20 ..............................
........................................................................
------------------------------------------------------------
  cycle        total energy    energy error   density error
------------------------------------------------------------
      1     -200.4633441475  -2.0298037E+02   4.0640445E-03
      2     -200.4577639876   5.5801599E-03   4.6908672E-03
      3     -200.4197655596   3.7998428E-02   1.0850903E-02
      4     -200.4611053556  -4.1339796E-02   2.4916723E-03
      5     -200.4631836636  -2.0783080E-03   1.1851238E-03
      6     -200.4625711999   6.1246376E-04   1.7993790E-03
      7     -200.4627429811  -1.7178119E-04   1.6055627E-03
      8     -200.4633563011  -6.1332000E-04   7.6608393E-04
      9     -200.4635495227  -1.9322158E-04   1.5411410E-04
     10     -200.4635454146   4.1080629E-06   1.8333762E-04
     11     -200.4635508804  -5.4657569E-06   1.0873938E-04
     12     -200.4635542375  -3.3571280E-06   1.7418850E-05
     13     -200.4635538520   3.8546924E-07   3.9966807E-05
     14     -200.4635541995  -3.4746907E-07   1.9264291E-05
------------------------------------------------------------

 total:                                  10.356 sec
 * total energy  :  -200.4635542 Eh     change       -0.9683778E-02 Eh
   gradient norm :     0.0449292 Eh/α   predicted    -0.9945727E-02 (   2.71%)
   displ. norm   :     0.6949385 α      lambda       -0.1387094E-01
   maximum displ.:     0.2592621 α      in ANC's #24, #33, #14, ...
 * RMSD in coord.:     1.0497015 α      energy gain  -0.1832209E+01 Eh

generating ANC from exact Hessian ...
Using Lindh-Hessian (1995)
 Shifting diagonal of input Hessian by    1.0132695238701899E-002
 Lowest  eigenvalues of input Hessian
    0.010000    0.000000    0.000000    0.000000    0.000000    0.000000
    0.000000    0.010203    0.010210    0.010280    0.010331    0.010496
    0.010661    0.010685    0.010815    0.011019    0.011160    0.011319
 Highest eigenvalues
    2.354548    2.374847    2.401353    2.404017    2.418637    2.421443


........................................................................
.............................. CYCLE   21 ..............................
........................................................................
------------------------------------------------------------
  cycle        total energy    energy error   density error
------------------------------------------------------------
      1     -200.4662431459  -2.0298272E+02   5.6598338E-03
      2     -200.3894508681   7.6792278E-02   1.2663190E-02
      3     -200.4336937904  -4.4242922E-02   9.8399802E-03
      4     -200.4415213785  -7.8275881E-03   8.1253439E-03
      5     -200.4474828381  -5.9614595E-03   6.9819187E-03
      6     -200.4650478643  -1.7565026E-02   2.3718920E-03
      7     -200.4676608291  -2.6129648E-03   2.2094247E-03
      8     -200.4676089069   5.1922155E-05   2.2163273E-03
      9     -200.4677457210  -1.3681404E-04   1.9702960E-03
     10     -200.4678345231  -8.8802153E-05   6.9550950E-04
     11     -200.4678473151  -1.2791974E-05   7.7163268E-04
     12     -200.4680117924  -1.6447733E-04   3.0223606E-04
     13     -200.4680403721  -2.8579692E-05   1.1266480E-04
     14     -200.4680401378   2.3431033E-07   1.0824883E-04
     15     -200.4680410302  -8.9234450E-07   6.9558095E-05
     16     -200.4680407416   2.8859199E-07   6.2422888E-05
     17     -200.4680415628  -8.2123583E-07   2.0273478E-05
     18     -200.4680416754  -1.1260860E-07   2.4194903E-06
------------------------------------------------------------

 total:                                  16.281 sec
 * total energy  :  -200.4680417 Eh     change       -0.4487476E-02 Eh
   gradient norm :     0.0677041 Eh/α   predicted     0.0000000E+00 (-100.00%)
   displ. norm   :     0.4689897 α      lambda       -0.1233762E-01
   maximum displ.:     0.1662405 α      in ANC's #26, #13, #11, ...

........................................................................
.............................. CYCLE   22 ..............................
........................................................................
------------------------------------------------------------
  cycle        total energy    energy error   density error
------------------------------------------------------------
      1     -200.4762905945  -2.0299676E+02   3.8323527E-03
      2     -200.4333838029   4.2906792E-02   1.0413865E-02
      3     -200.4608267093  -2.7442906E-02   7.1041110E-03
      4     -200.4740437315  -1.3217022E-02   2.7886341E-03
      5     -200.4768943141  -2.8505827E-03   1.2264533E-03
      6     -200.4757156713   1.1786429E-03   2.4165893E-03
      7     -200.4755725972   1.4307406E-04   2.4664172E-03
      8     -200.4762663470  -6.9374984E-04   1.8620714E-03
      9     -200.4772752275  -1.0088805E-03   1.4798482E-04
     10     -200.4772591086   1.6118860E-05   2.8439341E-04
     11     -200.4772805043  -2.1395697E-05   5.8641924E-05
     12     -200.4772804478   5.6505911E-08   7.0241128E-05
     13     -200.4772811022  -6.5433710E-07   4.4244982E-05
     14     -200.4772814067  -3.0447524E-07   2.7085115E-05
     15     -200.4772815405  -1.3387429E-07   1.3311990E-05
------------------------------------------------------------

 total:                                  12.490 sec
 * total energy  :  -200.4772815 Eh     change       -0.9239865E-02 Eh
   gradient norm :     0.0259363 Eh/α   predicted    -0.7534647E-02 ( -18.46%)
   displ. norm   :     0.6887213 α      lambda       -0.9212460E-02
   maximum displ.:     0.2546234 α      in ANC's #26, #13, #11, ...

........................................................................
.............................. CYCLE   23 ..............................
........................................................................
------------------------------------------------------------
  cycle        total energy    energy error   density error
------------------------------------------------------------
      1     -200.4839313318  -2.0300453E+02   4.1889723E-03
      2     -200.4366163821   4.7314950E-02   1.0717189E-02
      3     -200.4644459371  -2.7829555E-02   7.9008603E-03
      4     -200.4759140662  -1.1468129E-02   4.7366241E-03
      5     -200.4841355029  -8.2214367E-03   1.4305294E-03
      6     -200.4836331854   5.0231753E-04   2.4730284E-03
      7     -200.4831479823   4.8520308E-04   2.7232429E-03
      8     -200.4833961991  -2.4821681E-04   2.5171567E-03
      9     -200.4849715499  -1.5753508E-03   4.3733983E-04
     10     -200.4850000318  -2.8481938E-05   3.4257352E-04
     11     -200.4850307758  -3.0743941E-05   6.4101762E-05
     12     -200.4850307693   6.4817982E-09   8.3382191E-05
     13     -200.4850310799  -3.1059369E-07   6.2612641E-05
     14     -200.4850316997  -6.1985767E-07   3.4650231E-05
     15     -200.4850318506  -1.5089157E-07   2.2638547E-05
     16     -200.4850319353  -8.4653522E-08   1.2699310E-05
------------------------------------------------------------

 total:                                  12.725 sec
 * total energy  :  -200.4850319 Eh     change       -0.7750395E-02 Eh
   gradient norm :     0.0241320 Eh/α   predicted    -0.6791139E-02 ( -12.38%)
   displ. norm   :     0.8060237 α      lambda       -0.8660684E-02
   maximum displ.:     0.2914211 α      in ANC's #26, #13, #11, ...

........................................................................
.............................. CYCLE   24 ..............................
........................................................................
------------------------------------------------------------
  cycle        total energy    energy error   density error
------------------------------------------------------------
      1     -200.4921015454  -2.0300797E+02   4.2644327E-03
      2     -200.4534617781   3.8639767E-02   1.0225106E-02
      3     -200.4730190672  -1.9557289E-02   7.8533121E-03
      4     -200.4896412565  -1.6622189E-02   2.8079863E-03
      5     -200.4926161184  -2.9748619E-03   9.7598797E-04
      6     -200.4919201405   6.9597786E-04   1.9144388E-03
      7     -200.4916080267   3.1211387E-04   2.1102506E-03
      8     -200.4921704366  -5.6240991E-04   1.5705085E-03
      9     -200.4929128491  -7.4241249E-04   1.2779955E-04
     10     -200.4929038994   8.9496994E-06   2.2707942E-04
     11     -200.4929159192  -1.2019848E-05   8.6984334E-05
     12     -200.4929179811  -2.0618450E-06   3.6089959E-05
     13     -200.4929179296   5.1430391E-08   3.2748027E-05
     14     -200.4929181325  -2.0285583E-07   1.7133602E-05
------------------------------------------------------------

 total:                                  11.305 sec
 * total energy  :  -200.4929181 Eh     change       -0.7886197E-02 Eh
   gradient norm :     0.0354913 Eh/α   predicted    -0.7143665E-02 (  -9.42%)
   displ. norm   :     0.8321818 α      lambda       -0.9071359E-02
   maximum displ.:     0.2920649 α      in ANC's #11, #13, #26, ...

........................................................................
.............................. CYCLE   25 ..............................
........................................................................
------------------------------------------------------------
  cycle        total energy    energy error   density error
------------------------------------------------------------
      1     -200.5004672552  -2.0301278E+02   4.1522376E-03
      2     -200.4678228324   3.2644423E-02   9.6982471E-03
      3     -200.4828878706  -1.5065038E-02   7.5536806E-03
      4     -200.4993069818  -1.6419111E-02   2.0547140E-03
      5     -200.5007826074  -1.4756256E-03   9.7304561E-04
      6     -200.5006190632   1.6354421E-04   1.2805070E-03
      7     -200.5004960272   1.2303602E-04   1.3865674E-03
      8     -200.5008497571  -3.5372990E-04   8.7558285E-04
      9     -200.5010861366  -2.3637951E-04   9.5705549E-05
     10     -200.5010863916  -2.5495044E-07   1.0135237E-04
     11     -200.5010883633  -1.9717833E-06   5.6993661E-05
     12     -200.5010893439  -9.8051646E-07   1.1832448E-05
------------------------------------------------------------

 total:                                   9.601 sec
 * total energy  :  -200.5010893 Eh     change       -0.8171211E-02 Eh
   gradient norm :     0.0333891 Eh/α   predicted    -0.7676778E-02 (  -6.05%)
   displ. norm   :     0.7921093 α      lambda       -0.8557163E-02
   maximum displ.:     0.2953216 α      in ANC's #11, #13, #26, ...

........................................................................
.............................. CYCLE   26 ..............................
........................................................................
------------------------------------------------------------
  cycle        total energy    energy error   density error
------------------------------------------------------------
      1     -200.5081788114  -2.0302200E+02   3.8025184E-03
      2     -200.4981177146   1.0061097E-02   5.8780061E-03
      3     -200.4808341607   1.7283554E-02   9.0747893E-03
      4     -200.5074839374  -2.6649777E-02   1.5232074E-03
      5     -200.5081279318  -6.4399439E-04   8.8769209E-04
      6     -200.5082926580  -1.6472617E-04   5.5595922E-04
      7     -200.5083831339  -9.0475888E-05   2.4871133E-04
      8     -200.5083904362  -7.3023041E-06   1.8583664E-04
      9     -200.5083986832  -8.2469752E-06   8.2875850E-05
     10     -200.5084007754  -2.0922763E-06   1.9844488E-05
     11     -200.5084008629  -8.7501888E-08   8.0231439E-06
------------------------------------------------------------

 total:                                   8.561 sec
 * total energy  :  -200.5084009 Eh     change       -0.7311519E-02 Eh
   gradient norm :     0.0220389 Eh/α   predicted    -0.6963123E-02 (  -4.77%)
   displ. norm   :     0.8174548 α      lambda       -0.6814051E-02
   maximum displ.:     0.3242461 α      in ANC's #11, #13, #9, ...

........................................................................
.............................. CYCLE   27 ..............................
........................................................................
------------------------------------------------------------
  cycle        total energy    energy error   density error
------------------------------------------------------------
      1     -200.5141276472  -2.0302269E+02   3.9142202E-03
      2     -200.5005057077   1.3621939E-02   6.7084841E-03
      3     -200.4900894274   1.0416280E-02   8.6075574E-03
      4     -200.5129746400  -2.2885213E-02   1.7842885E-03
      5     -200.5140978427  -1.1232026E-03   8.3129386E-04
      6     -200.5142905815  -1.9273886E-04   3.8288525E-04
      7     -200.5143410597  -5.0478205E-05   1.0432706E-04
      8     -200.5143409816   7.8134320E-08   9.3616886E-05
      9     -200.5143421939  -1.2123432E-06   5.5909927E-05
     10     -200.5143431316  -9.3771959E-07   1.6848530E-05
------------------------------------------------------------

 total:                                   8.540 sec
 * total energy  :  -200.5143431 Eh     change       -0.5942269E-02 Eh
   gradient norm :     0.0241839 Eh/α   predicted    -0.5683717E-02 (  -4.35%)
   displ. norm   :     0.7678787 α      lambda       -0.6277252E-02
   maximum displ.:     0.3331468 α      in ANC's #11, #13, #9, ...

........................................................................
.............................. CYCLE   28 ..............................
........................................................................
------------------------------------------------------------
  cycle        total energy    energy error   density error
------------------------------------------------------------
      1     -200.5192677156  -2.0303656E+02   3.6026320E-03
      2     -200.5163466681   2.9210475E-03   3.6465138E-03
      3     -200.4814478570   3.4898811E-02   1.0315622E-02
      4     -200.5185737845  -3.7125927E-02   1.4040836E-03
      5     -200.5190510437  -4.7725917E-04   1.0359502E-03
      6     -200.5191422732  -9.1229499E-05   8.8954160E-04
      7     -200.5192456105  -1.0333733E-04   6.9424392E-04
      8     -200.5193278533  -8.2242830E-05   4.5143587E-04
      9     -200.5193914985  -6.3645205E-05   6.7744935E-05
     10     -200.5193916835  -1.8496851E-07   7.2961782E-05
     11     -200.5193927044  -1.0208743E-06   4.1834205E-05
     12     -200.5193930868  -3.8244767E-07   2.3810939E-05
     13     -200.5193932191  -1.3226523E-07   9.6625477E-06
------------------------------------------------------------

 total:                                  10.754 sec
 * total energy  :  -200.5193932 Eh     change       -0.5050087E-02 Eh
   gradient norm :     0.0217734 Eh/α   predicted    -0.4989284E-02 (  -1.20%)
   displ. norm   :     0.8361555 α      lambda       -0.5393248E-02
   maximum displ.:     0.3551582 α      in ANC's #11, #13, #9, ...

........................................................................
.............................. CYCLE   29 ..............................
........................................................................
------------------------------------------------------------
  cycle        total energy    energy error   density error
------------------------------------------------------------
      1     -200.5233917198  -2.0302798E+02   4.0082554E-03
      2     -200.5161906017   7.2011181E-03   5.1530709E-03
      3     -200.4900576022   2.6133000E-02   9.9398578E-03
      4     -200.5208762553  -3.0818653E-02   2.4502070E-03
      5     -200.5231425043  -2.2662490E-03   1.1118162E-03
      6     -200.5232858361  -1.4333178E-04   8.6213290E-04
      7     -200.5234071668  -1.2133070E-04   6.0351078E-04
      8     -200.5234754481  -6.8281277E-05   3.6663842E-04
      9     -200.5235143048  -3.8856764E-05   8.5154394E-05
     10     -200.5235161367  -1.8319100E-06   4.2991588E-05
     11     -200.5235164663  -3.2959963E-07   2.6884175E-05
     12     -200.5235166527  -1.8638642E-07   1.1096985E-05
------------------------------------------------------------

 total:                                   8.640 sec
 * total energy  :  -200.5235167 Eh     change       -0.4123434E-02 Eh
   gradient norm :     0.0275683 Eh/α   predicted    -0.4581987E-02 (  11.12%)
   displ. norm   :     0.6841940 α      lambda       -0.4063412E-02
   maximum displ.:     0.3309399 α      in ANC's #11, #9, #13, ...

........................................................................
.............................. CYCLE   30 ..............................
........................................................................
------------------------------------------------------------
  cycle        total energy    energy error   density error
------------------------------------------------------------
      1     -200.5268223273  -2.0303737E+02   3.0112172E-03
      2     -200.5250470640   1.7752633E-03   2.8805736E-03
      3     -200.4934964545   3.1550610E-02   9.7968215E-03
      4     -200.5256177073  -3.2121253E-02   1.6980189E-03
      5     -200.5266506966  -1.0329892E-03   8.5130280E-04
      6     -200.5267818787  -1.3118214E-04   5.4090137E-04
      7     -200.5268335984  -5.1719629E-05   3.6299635E-04
      8     -200.5268602234  -2.6625055E-05   2.0666942E-04
      9     -200.5268728711  -1.2647701E-05   3.8688007E-05
     10     -200.5268730982  -2.2708531E-07   3.0112247E-05
     11     -200.5268732998  -2.0158052E-07   1.5849641E-05
------------------------------------------------------------

 total:                                   8.274 sec
 * total energy  :  -200.5268733 Eh     change       -0.3356647E-02 Eh
   gradient norm :     0.0190939 Eh/α   predicted    -0.2982793E-02 ( -11.14%)
   displ. norm   :     0.7253603 α      lambda       -0.3640139E-02
   maximum displ.:     0.3263881 α      in ANC's #11, #9, #13, ...

........................................................................
.............................. CYCLE   31 ..............................
........................................................................
------------------------------------------------------------
  cycle        total energy    energy error   density error
------------------------------------------------------------
      1     -200.5290219557  -2.0305243E+02   3.2436546E-03
      2     -200.5087525874   2.0269368E-02   7.8596447E-03
      3     -200.5189751214  -1.0222534E-02   5.7721297E-03
      4     -200.5258898614  -6.9147401E-03   2.7763630E-03
      5     -200.5292607737  -3.3709123E-03   2.7379326E-04
      6     -200.5292222520   3.8521731E-05   4.4457044E-04
      7     -200.5292322805  -1.0028515E-05   3.9956058E-04
      8     -200.5292651767  -3.2896231E-05   2.2875659E-04
      9     -200.5292797019  -1.4525147E-05   4.9970141E-05
     10     -200.5292804805  -7.7862114E-07   1.4118367E-05
------------------------------------------------------------

 total:                                   7.813 sec
 * total energy  :  -200.5292805 Eh     change       -0.2407181E-02 Eh
   gradient norm :     0.0228647 Eh/α   predicted    -0.2777699E-02 (  15.39%)
   displ. norm   :     0.6970176 α      lambda       -0.3303355E-02
   maximum displ.:     0.3712048 α      in ANC's #11, #9, #13, ...

........................................................................
.............................. CYCLE   32 ..............................
........................................................................
------------------------------------------------------------
  cycle        total energy    energy error   density error
------------------------------------------------------------
      1     -200.5314769819  -2.0305212E+02   3.0273935E-03
      2     -200.5310662145   4.1076739E-04   2.0992884E-03
      3     -200.4926769672   3.8389247E-02   1.0305737E-02
      4     -200.5306179889  -3.7941022E-02   1.4631851E-03
      5     -200.5314323762  -8.1438729E-04   5.2570700E-04
      6     -200.5314645139  -3.2137778E-05   3.9212478E-04
      7     -200.5314779097  -1.3395754E-05   3.2521944E-04
      8     -200.5315026761  -2.4766443E-05   1.4921992E-04
      9     -200.5315089292  -6.2530376E-06   5.3418227E-05
     10     -200.5315089649  -3.5669501E-08   5.1030061E-05
     11     -200.5315097019  -7.3704993E-07   9.9272507E-06
------------------------------------------------------------

 total:                                   8.567 sec
 * total energy  :  -200.5315097 Eh     change       -0.2229221E-02 Eh
   gradient norm :     0.0162246 Eh/α   predicted    -0.2454106E-02 (  10.09%)
   displ. norm   :     0.6619398 α      lambda       -0.2061107E-02
   maximum displ.:     0.2787686 α      in ANC's #11, #9, #13, ...

........................................................................
.............................. CYCLE   33 ..............................
........................................................................
------------------------------------------------------------
  cycle        total energy    energy error   density error
------------------------------------------------------------
      1     -200.5325829457  -2.0305008E+02   2.7610799E-03
      2     -200.5207099871   1.1872959E-02   6.1011479E-03
      3     -200.5238244054  -3.1144183E-03   5.3201437E-03
      4     -200.5313981770  -7.5737715E-03   1.7176518E-03
      5     -200.5326783793  -1.2802023E-03   2.7126750E-04
      6     -200.5326871655  -8.7862327E-06   2.1997278E-04
      7     -200.5326922154  -5.0498546E-06   1.7801191E-04
      8     -200.5326989516  -6.7362024E-06   9.6308622E-05
      9     -200.5327012079  -2.2563319E-06   3.3388953E-05
     10     -200.5327015376  -3.2974032E-07   7.8990719E-06
------------------------------------------------------------

 total:                                   7.965 sec
 * total energy  :  -200.5327015 Eh     change       -0.1191836E-02 Eh
   gradient norm :     0.0192456 Eh/α   predicted    -0.1482098E-02 (  24.35%)
   displ. norm   :     0.6100862 α      lambda       -0.2220499E-02
   maximum displ.:     0.2931636 α      in ANC's #11, #7, #14, ...

........................................................................
.............................. CYCLE   34 ..............................
........................................................................
------------------------------------------------------------
  cycle        total energy    energy error   density error
------------------------------------------------------------
      1     -200.5339735484  -2.0305196E+02   2.4752467E-03
      2     -200.5325864193   1.3871291E-03   2.4748109E-03
      3     -200.5082597912   2.4326628E-02   8.7004723E-03
      4     -200.5323363099  -2.4076519E-02   1.9610086E-03
      5     -200.5339633583  -1.6270485E-03   4.2951521E-04
      6     -200.5339916964  -2.8338027E-05   2.7822286E-04
      7     -200.5340097109  -1.8014500E-05   1.4327704E-04
      8     -200.5340151684  -5.4575662E-06   4.4593776E-05
      9     -200.5340154808  -3.1241612E-07   2.0681877E-05
     10     -200.5340155720  -9.1162917E-08   9.7292275E-06
------------------------------------------------------------

 total:                                   7.979 sec
 * total energy  :  -200.5340156 Eh     change       -0.1314034E-02 Eh
   gradient norm :     0.0178090 Eh/α   predicted    -0.1523487E-02 (  15.94%)
   displ. norm   :     0.5237339 α      lambda       -0.1900667E-02
   maximum displ.:     0.2048035 α      in ANC's #7, #11, #2, ...

........................................................................
.............................. CYCLE   35 ..............................
........................................................................
------------------------------------------------------------
  cycle        total energy    energy error   density error
------------------------------------------------------------
      1     -200.5346187041  -2.0307019E+02   2.2221434E-03
      2     -200.5255249734   9.0937307E-03   5.3573466E-03
      3     -200.5295746762  -4.0497028E-03   4.0407804E-03
      4     -200.5344494533  -4.8747771E-03   8.1414821E-04
      5     -200.5346390871  -1.8963384E-04   4.5675873E-04
      6     -200.5347115192  -7.2432118E-05   1.5076486E-04
      7     -200.5347181519  -6.6326088E-06   7.5719018E-05
      8     -200.5347181592  -7.3390538E-09   6.9427508E-05
      9     -200.5347194079  -1.2487173E-06   2.8750050E-05
     10     -200.5347196444  -2.3644461E-07   8.8846870E-06
------------------------------------------------------------

 total:                                   8.147 sec
 * total energy  :  -200.5347196 Eh     change       -0.7040723E-03 Eh
   gradient norm :     0.0288564 Eh/α   predicted    -0.1211016E-02 (  72.00%)
   displ. norm   :     0.5008819 α      lambda       -0.1855957E-02
   maximum displ.:     0.1923343 α      in ANC's #7, #11, #9, ...

........................................................................
.............................. CYCLE   36 ..............................
........................................................................
------------------------------------------------------------
  cycle        total energy    energy error   density error
------------------------------------------------------------
      1     -200.5357579280  -2.0305723E+02   2.1187918E-03
      2     -200.5346999554   1.0579726E-03   2.1572006E-03
      3     -200.5143078667   2.0392089E-02   7.9613615E-03
      4     -200.5350305298  -2.0722663E-02   1.3215374E-03
      5     -200.5357298609  -6.9933109E-04   4.3334297E-04
      6     -200.5357815060  -5.1645091E-05   1.5499800E-04
      7     -200.5357870574  -5.5514746E-06   7.4872263E-05
      8     -200.5357880987  -1.0412814E-06   3.7384739E-05
      9     -200.5357882441  -1.4533239E-07   2.4374897E-05
     10     -200.5357884056  -1.6153581E-07   9.5549151E-06
------------------------------------------------------------

 total:                                   8.127 sec
 * total energy  :  -200.5357884 Eh     change       -0.1068761E-02 Eh
   gradient norm :     0.0226444 Eh/α   predicted    -0.1160795E-02 (   8.61%)
   displ. norm   :     0.4770317 α      lambda       -0.2170652E-02
   maximum displ.:     0.2416083 α      in ANC's #7, #14, #11, ...

........................................................................
.............................. CYCLE   37 ..............................
........................................................................
------------------------------------------------------------
  cycle        total energy    energy error   density error
------------------------------------------------------------
      1     -200.5361961236  -2.0304906E+02   2.0596621E-03
      2     -200.5362316453  -3.5521687E-05   1.2584812E-03
      3     -200.5304263368   5.8053085E-03   4.1331072E-03
      4     -200.5336764365  -3.2500997E-03   2.7365159E-03
      5     -200.5360828023  -2.4063658E-03   6.9347276E-04
      6     -200.5362620733  -1.7927095E-04   1.6070121E-04
      7     -200.5362702538  -8.1805820E-06   5.8699025E-05
      8     -200.5362704441  -1.9029818E-07   4.9785961E-05
      9     -200.5362708640  -4.1988818E-07   2.9586363E-05
     10     -200.5362710604  -1.9633381E-07   1.2727736E-05
------------------------------------------------------------

 total:                                   8.345 sec
 * total energy  :  -200.5362711 Eh     change       -0.4826548E-03 Eh
   gradient norm :     0.0290111 Eh/α   predicted    -0.1332301E-02 ( 176.04%)
   displ. norm   :     0.3955395 α      lambda       -0.1864909E-02
   maximum displ.:     0.1734524 α      in ANC's #7, #6, #2, ...

........................................................................
.............................. CYCLE   38 ..............................
........................................................................
------------------------------------------------------------
  cycle        total energy    energy error   density error
------------------------------------------------------------
      1     -200.5373424348  -2.0305712E+02   1.7156219E-03
      2     -200.5373493584  -6.9235882E-06   1.0109735E-03
      3     -200.5367554275   5.9393087E-04   1.3053280E-03
      4     -200.5350904159   1.6650116E-03   2.5805419E-03
      5     -200.5373162770  -2.2258611E-03   3.5639987E-04
      6     -200.5373579668  -4.1689812E-05   1.0502047E-04
      7     -200.5373605238  -2.5569958E-06   6.1830219E-05
      8     -200.5373612966  -7.7277195E-07   3.7237113E-05
      9     -200.5373615991  -3.0249635E-07   1.7113115E-05
------------------------------------------------------------

 total:                                   6.950 sec
 * total energy  :  -200.5373616 Eh     change       -0.1090539E-02 Eh
   gradient norm :     0.0208908 Eh/α   predicted    -0.1078339E-02 (  -1.12%)
   displ. norm   :     0.5146443 α      lambda       -0.1911127E-02
   maximum displ.:     0.1845238 α      in ANC's #7, #26, #11, ...

........................................................................
.............................. CYCLE   39 ..............................
........................................................................
------------------------------------------------------------
  cycle        total energy    energy error   density error
------------------------------------------------------------
      1     -200.5376041487  -2.0305551E+02   2.3371944E-03
      2     -200.5357016316   1.9025172E-03   2.8130828E-03
      3     -200.5178269976   1.7874634E-02   7.6010935E-03
      4     -200.5373780616  -1.9551064E-02   1.0027698E-03
      5     -200.5374432765  -6.5214993E-05   8.4648374E-04
      6     -200.5376600729  -2.1679632E-04   4.4998440E-04
      7     -200.5376975832  -3.7510380E-05   3.2100870E-04
      8     -200.5377176836  -2.0100324E-05   1.9123983E-04
      9     -200.5377282753  -1.0591711E-05   4.9992409E-05
     10     -200.5377290137  -7.3839036E-07   1.3704008E-05
------------------------------------------------------------

 total:                                   8.064 sec
 * total energy  :  -200.5377290 Eh     change       -0.3674146E-03 Eh
   gradient norm :     0.0310340 Eh/α   predicted    -0.1208652E-02 ( 228.96%)
   displ. norm   :     0.3742267 α      lambda       -0.1676850E-02
   maximum displ.:     0.1966203 α      in ANC's #7, #6, #2, ...

........................................................................
.............................. CYCLE   40 ..............................
........................................................................
------------------------------------------------------------
  cycle        total energy    energy error   density error
------------------------------------------------------------
      1     -200.5387716325  -2.0305569E+02   1.4508708E-03
      2     -200.5326640014   6.1076311E-03   4.3188763E-03
      3     -200.5368834892  -4.2194878E-03   2.5226957E-03
      4     -200.5386309789  -1.7474897E-03   7.3653893E-04
      5     -200.5387875616  -1.5658272E-04   3.8472773E-04
      6     -200.5388402106  -5.2648987E-05   1.3633863E-04
      7     -200.5388447735  -4.5628889E-06   5.8785808E-05
      8     -200.5388453053  -5.3183260E-07   3.9497930E-05
      9     -200.5388456710  -3.6563040E-07   1.4702373E-05
------------------------------------------------------------

 total:                                   7.517 sec
 * total energy  :  -200.5388457 Eh     change       -0.1116657E-02 Eh
   gradient norm :     0.0135392 Eh/α   predicted    -0.9558479E-03 ( -14.40%)
   displ. norm   :     0.5451073 α      lambda       -0.1308383E-02
   maximum displ.:     0.2654253 α      in ANC's #7, #2, #26, ...

........................................................................
.............................. CYCLE   41 ..............................
........................................................................
------------------------------------------------------------
  cycle        total energy    energy error   density error
------------------------------------------------------------
      1     -200.5392658149  -2.0305809E+02   2.1656919E-03
      2     -200.5350820314   4.1837835E-03   3.7184457E-03
      3     -200.5277524095   7.3296218E-03   5.9427861E-03
      4     -200.5387222671  -1.0969858E-02   1.2872466E-03
      5     -200.5392550064  -5.3273930E-04   5.0206543E-04
      6     -200.5393363420  -8.1335600E-05   1.8400887E-04
      7     -200.5393460997  -9.7577162E-06   9.2922283E-05
[...]
     J. Seibert, S. Spicher, S. Grimme, WIREs Comput. Mol. Sci., 2020, 11,
     e01493. DOI: 10.1002/wcms.1493
   
   for GFN2-xTB:
   * C. Bannwarth, S. Ehlert and S. Grimme., J. Chem. Theory Comput., 2019,
     15, 1652-1671. DOI: 10.1021/acs.jctc.8b01176
   for GFN1-xTB:
   * S. Grimme, C. Bannwarth, P. Shushkov, J. Chem. Theory Comput., 2017,
     13, 1989-2009. DOI: 10.1021/acs.jctc.7b00118
   for GFN0-xTB:
   * P. Pracht, E. Caldeweyher, S. Ehlert, S. Grimme, ChemRxiv, 2019, preprint.
     DOI: 10.26434/chemrxiv.8326202.v1
   for GFN-FF:
   * S. Spicher and S. Grimme, Angew. Chem. Int. Ed., 2020, 59, 15665-15673.
     DOI: 10.1002/anie.202004239
   
   for ALPB and GBSA implicit solvation:
   * S. Ehlert, M. Stahn, S. Spicher, S. Grimme, J. Chem. Theory Comput.,
     2021, 17, 4250-4261. DOI: 10.1021/acs.jctc.1c00471
   
   for ddCOSMO and CPCM-X implicit solvation:
   * M. Stahn, S. Ehlert, S. Grimme, J. Phys. Chem. A,
     2023, XX, XXXX-XXXX. DOI: 10.1021/acs.jpca.3c04382
   
   for DFT-D4:
   * E. Caldeweyher, C. Bannwarth and S. Grimme, J. Chem. Phys., 2017,
     147, 034112. DOI: 10.1063/1.4993215
   * E. Caldeweyher, S. Ehlert, A. Hansen, H. Neugebauer, S. Spicher,
     C. Bannwarth and S. Grimme, J. Chem. Phys., 2019, 150, 154122.
     DOI: 10.1063/1.5090222
   * E. Caldeweyher, J.-M. Mewes, S. Ehlert and S. Grimme, Phys. Chem. Chem. Phys.
     2020, 22, 8499-8512. DOI: 10.1039/D0CP00502A
   
   for sTDA-xTB:
   * S. Grimme and C. Bannwarth, J. Chem. Phys., 2016, 145, 054103.
     DOI: 10.1063/1.4959605
   
   in the mass-spec context:
   * V. Asgeirsson, C. Bauer and S. Grimme, Chem. Sci., 2017, 8, 4879.
     DOI: 10.1039/c7sc00601b
   * J. Koopman and S. Grimme, ACS Omega 2019, 4, 12, 15120-15133.
     DOI: 10.1021/acsomega.9b02011
   
   for metadynamics refer to:
   * S. Grimme, J. Chem. Theory Comput., 2019, 155, 2847-2862
     DOI: 10.1021/acs.jctc.9b00143
   
   for SPH calculations refer to:
   * S. Spicher and S. Grimme, J. Chem. Theory Comput., 2021, 17, 1701-1714
     DOI: 10.1021/acs.jctc.0c01306
   
   for ONIOM refer to:
   * C. Plett, A. Katbashev, S. Ehlert, S. Grimme, M. Bursch,
     Phys. Chem. Chem. Phys., 2023, 25, 17860-17868. DOI: 10.1039/D3CP02178E
   
   for DIPRO refer to:
   * J. Kohn, N. Gildemeister, S. Grimme, D. Fazzi, A. Hansen,
     J. Chem. Phys., 2023, just accepted.
   
   for PTB refer to:
   * S. Grimme, M. Mueller, A. Hansen, J. Chem. Phys., 2023, 158, 124111.
     DOI: 10.1063/5.0137838
   
   with help from (in alphabetical order)
   P. Atkinson, C. Bannwarth, F. Bohle, G. Brandenburg, E. Caldeweyher
   M. Checinski, S. Dohm, S. Ehlert, S. Ehrlich, I. Gerasimov, C. Hölzer
   A. Katbashev, J. Kohn, J. Koopman, C. Lavigne, S. Lehtola, F. März, M. Müller,
   F. Musil, H. Neugebauer, J. Pisarek, C. Plett, P. Pracht, F. Pultar,
   J. Seibert, P. Shushkov, S. Spicher, M. Stahn, M. Steiner, T. Strunk,
   J. Stückrath, T. Rose, and J. Unsleber
   
 * started run on 2025/03/17 at 16:05:40.590     
   ID    Z sym.   atoms
    1    6 C      1-9, 11, 12, 14-21, 24-35, 37, 38, 40-47, 50-52, 56, 58,
                  62, 65, 68, 71, 102-110, 112, 113, 115-122, 125-136, 138,
                  139, 141-148, 151-153, 157, 159, 163, 166, 169, 172
    2    7 N      10, 13, 36, 39, 111, 114, 137, 140
    3    8 O      22, 23, 48, 49, 54, 55, 57, 59-61, 63, 64, 66, 67, 69, 70,
                  123, 124, 149, 150, 155, 156, 158, 160-162, 164, 165, 167,
                  168, 170, 171
    4    5 B      53, 154
    5    1 H      72-101, 173-202

           -------------------------------------------------
          |                Calculation Setup                |
           -------------------------------------------------

          program call               : xtb opt_dimer.mol --dipro 0.3 --chrg 0 --uhf 2 --spinpol --tblite
          coordinate file            : opt_dimer.mol
          omp threads                :                     8


molecular fragmentation (1/2 indicates fragments):
111111111111111111111111111111111111111111111111111111111111111111111111
111111111111111111111111111112222222222222222222222222222222222222222222
2222222222222222222222222222222222222222222222222222222222
# atoms in fragment 1/2:   101   101
 fragment masses (1/2) :      953.60      953.60
CMA distance (Bohr)    :   8.829
constraining FC (au)   :  0.0500
Wavefunction read from restart file
           -------------------------------------------------
          |                    D I P R O                    |
           -------------------------------------------------
Calculation for dimer 
--------------------- 
  
charge of dimer :   0.
unpaired e- of dimer :  2
repulsion energy          5.0431462793931E+00 Eh
dispersion energy         3.3441825347026E-02 Eh
number of electrons       6.9800000000000E+02 e
integral cutoff           1.9311100799991E+01 bohr

------------------------------------------------------------
  cycle        total energy    energy error   density error
------------------------------------------------------------
      1     -397.7297220286  -4.0280631E+02   2.1897240E-01
      2     -400.8237066960  -3.0939847E+00   9.8552548E-02
      3     -400.1890817852   6.3462491E-01   6.4041223E-02
      4     -395.8526713626   4.3364104E+00   8.3204894E-02
      5     -399.6560335070  -3.8033621E+00   4.6530324E-02
      6     -399.5474840479   1.0854946E-01   4.8316167E-02
      7     -401.0826313339  -1.5351473E+00   2.1290176E-02
      8     -401.1234798037  -4.0848470E-02   1.6866855E-02
      9     -401.1879636742  -6.4483870E-02   1.1171804E-02
     10     -401.1658604304   2.2103244E-02   1.0504573E-02
     11     -401.2100158235  -4.4155393E-02   8.2488860E-03
     12     -401.2040372218   5.9786017E-03   7.8926498E-03
     13     -401.2160337241  -1.1996502E-02   5.2700909E-03
     14     -401.2184997290  -2.4660050E-03   5.1305948E-03
     15     -401.2250321093  -6.5323803E-03   2.5846529E-03
     16     -401.2243511767   6.8093264E-04   2.1755346E-03
     17     -401.2258288533  -1.4776766E-03   1.0439239E-03
     18     -401.2261118608  -2.8300748E-04   4.8938643E-04
     19     -401.2261361716  -2.4310815E-05   3.7685512E-04
     20     -401.2261538900  -1.7718371E-05   2.4375607E-04
     21     -401.2261598305  -5.9405283E-06   1.3980924E-04
     22     -401.2261658465  -6.0160187E-06   4.7825324E-05
     23     -401.2261664737  -6.2716867E-07   2.3812247E-05
     24     -401.2261667060  -2.3224811E-07   9.8899066E-06
------------------------------------------------------------

electronic energy        -4.0630275481069E+02 Eh
total energy             -4.0122616670595E+02 Eh

 total:                            1 min, 1.759 sec
 - repulsion                              0.001 sec (  0%)
 - dispersion                             0.035 sec (  0%)
 - coulomb                                0.013 sec (  0%)
 - hamiltonian                            0.027 sec (  0%)
 - scc                             1 min, 1.684 sec ( 99%)

Found 2 fragments!
Fragment 1:  1-101
Fragment 2:  102-202

[Info] Fragment spin read from .UHFfrag
Calculation for fragment 1
 ------------------------------
   
charge of fragment :   0.
unpaired e- of fragment :  1
------------------------------------------------------------
  cycle        total energy    energy error   density error
------------------------------------------------------------
      1     -198.8077011161  -2.0132955E+02   2.1959695E-01
      2     -200.3786950400  -1.5709939E+00   9.8911070E-02
      3     -200.1990083544   1.7968669E-01   6.1799117E-02
      4     -198.7246300051   1.4743783E+00   7.5173749E-02
      5     -199.9456889020  -1.2210589E+00   4.5115196E-02
      6     -200.2751539714  -3.2946507E-01   3.3724827E-02
      7     -200.5138048274  -2.3865086E-01   1.8813908E-02
      8     -200.5534252431  -3.9620416E-02   1.1560729E-02
      9     -200.5663404758  -1.2915233E-02   7.5817826E-03
     10     -200.5666245406  -2.8406477E-04   5.7278098E-03
     11     -200.5686031718  -1.9786312E-03   3.9105271E-03
     12     -200.5694812423  -8.7807056E-04   1.8188800E-03
     13     -200.5694182783   6.2964073E-05   1.8432702E-03
     14     -200.5698276697  -4.0939142E-04   6.9286349E-04
     15     -200.5698133808   1.4288931E-05   5.5973100E-04
     16     -200.5698665478  -5.3167061E-05   1.5516350E-04
     17     -200.5698677004  -1.1525623E-06   7.8901943E-05
     18     -200.5698686579  -9.5751764E-07   3.9687588E-05
     19     -200.5698689008  -2.4291356E-07   1.2769400E-05
------------------------------------------------------------

 total:                                  13.641 sec
Calculation for fragment 2
 ------------------------------
   
charge of fragment :   0.
unpaired e- of fragment :  1
------------------------------------------------------------
  cycle        total energy    energy error   density error
------------------------------------------------------------
      1     -198.8130122380  -2.0133430E+02   2.1850147E-01
      2     -200.3858622363  -1.5728500E+00   9.7710316E-02
      3     -200.3742272805   1.1634956E-02   5.7284494E-02
      4     -200.2816299169   9.2597364E-02   4.0590862E-02
      5     -200.1839163715   9.7713545E-02   3.4188832E-02
      6     -200.1339818936   4.9934478E-02   3.5711432E-02
      7     -200.5415550011  -4.0757311E-01   1.2545976E-02
      8     -200.5532282509  -1.1673250E-02   7.9552739E-03
      9     -200.5537636890  -5.3543808E-04   7.7513468E-03
     10     -200.5608154380  -7.0517490E-03   4.5572689E-03
     11     -200.5631903005  -2.3748625E-03   3.3657111E-03
     12     -200.5640912526  -9.0095212E-04   1.5406113E-03
     13     -200.5642362774  -1.4502479E-04   7.8871775E-04
     14     -200.5643079827  -7.1705266E-05   4.1106554E-04
     15     -200.5643174695  -9.4868121E-06   2.7457022E-04
     16     -200.5643305575  -1.3088044E-05   1.2019049E-04
     17     -200.5643296268   9.3071137E-07   8.9320276E-05
     18     -200.5643313725  -1.7456731E-06   2.2157840E-05
     19     -200.5643314656  -9.3076039E-08   1.2557399E-05
------------------------------------------------------------

 total:                                  12.607 sec
   
   ::::::::::::::::::::::::::::::::::::::::::::::
   ::     D I P R O      C O U P L I N G S     ::
   ::::::::::::::::::::::::::::::::::::::::::::::
   
energy threshhold for near-degenerate orbitals near HOMO and LUMO considered for DIPRO:  0.300 eV
no. of orbitals within energy window of frag 1         6
no. of orbitals within energy window of frag 2         6
   
  Fragment 1 SOMO-3  Fragment 2 SOMO-3
--------------------------------------
E_mon(orb) frag1 frag2             -10.796   -10.720 eV
J(AB):                0.006 eV
S(AB):            -0.00032294 Eh
|J(AB,eff)|:            0.003 eV
   
  Fragment 1 SOMO-3  Fragment 2 SOMO-2
--------------------------------------
E_mon(orb) frag1 frag2             -10.796   -10.604 eV
J(AB):                0.008 eV
S(AB):            -0.00036606 Eh
|J(AB,eff)|:            0.004 eV
   
  Fragment 1 SOMO-3  Fragment 2 SOMO-1
--------------------------------------
E_mon(orb) frag1 frag2             -10.796   -10.554 eV
J(AB):               -0.045 eV
S(AB):             0.00186604 Eh
|J(AB,eff)|:            0.025 eV
   
  Fragment 1 SOMO-3  Fragment 2 SOMO 
--------------------------------------
E_mon(orb) frag1 frag2             -10.796   -10.561 eV
J(AB):               -0.017 eV
S(AB):             0.00066138 Eh
|J(AB,eff)|:            0.010 eV
   
  Fragment 1 SOMO-3  Fragment 2 LUMO 
--------------------------------------
E_mon(orb) frag1 frag2             -10.796   -10.240 eV
J(AB):                0.020 eV
S(AB):            -0.00070267 Eh
|J(AB,eff)|:            0.013 eV
   
  Fragment 1 SOMO-3  Fragment 2 LUMO+1
--------------------------------------
E_mon(orb) frag1 frag2             -10.796   -10.164 eV
J(AB):                0.081 eV
S(AB):            -0.00320224 Eh
|J(AB,eff)|:            0.048 eV
   
  Fragment 1 SOMO-2  Fragment 2 SOMO-3
--------------------------------------
E_mon(orb) frag1 frag2             -10.592   -10.720 eV
J(AB):               -0.018 eV
S(AB):             0.00076471 Eh
|J(AB,eff)|:            0.010 eV
   
  Fragment 1 SOMO-2  Fragment 2 SOMO-2
--------------------------------------
E_mon(orb) frag1 frag2             -10.592   -10.604 eV
J(AB):                0.008 eV
S(AB):            -0.00034642 Eh
|J(AB,eff)|:            0.004 eV
   
  Fragment 1 SOMO-2  Fragment 2 SOMO-1
--------------------------------------
E_mon(orb) frag1 frag2             -10.592   -10.554 eV
J(AB):               -0.031 eV
S(AB):             0.00125035 Eh
|J(AB,eff)|:            0.018 eV
   
  Fragment 1 SOMO-2  Fragment 2 SOMO 
--------------------------------------
E_mon(orb) frag1 frag2             -10.592   -10.561 eV
J(AB):               -0.014 eV
S(AB):             0.00057998 Eh
|J(AB,eff)|:            0.008 eV
   
  Fragment 1 SOMO-2  Fragment 2 LUMO 
--------------------------------------
E_mon(orb) frag1 frag2             -10.592   -10.240 eV
J(AB):               -0.016 eV
S(AB):             0.00063594 Eh
|J(AB,eff)|:            0.009 eV
   
  Fragment 1 SOMO-2  Fragment 2 LUMO+1
--------------------------------------
E_mon(orb) frag1 frag2             -10.592   -10.164 eV
J(AB):                0.022 eV
S(AB):            -0.00088662 Eh
|J(AB,eff)|:            0.012 eV
   
  Fragment 1 SOMO-1  Fragment 2 SOMO-3
--------------------------------------
E_mon(orb) frag1 frag2             -10.591   -10.720 eV
J(AB):                0.081 eV
S(AB):            -0.00327893 Eh
|J(AB,eff)|:            0.046 eV
   
  Fragment 1 SOMO-1  Fragment 2 SOMO-2
--------------------------------------
E_mon(orb) frag1 frag2             -10.591   -10.604 eV
J(AB):               -0.032 eV
S(AB):             0.00130445 Eh
|J(AB,eff)|:            0.018 eV
   
  Fragment 1 SOMO-1  Fragment 2 SOMO-1
--------------------------------------
E_mon(orb) frag1 frag2             -10.591   -10.554 eV
J(AB):                0.079 eV
S(AB):            -0.00317658 Eh
|J(AB,eff)|:            0.046 eV
   
  Fragment 1 SOMO-1  Fragment 2 SOMO 
--------------------------------------
E_mon(orb) frag1 frag2             -10.591   -10.561 eV
J(AB):                0.028 eV
S(AB):            -0.00117580 Eh
|J(AB,eff)|:            0.015 eV
   
  Fragment 1 SOMO-1  Fragment 2 LUMO 
--------------------------------------
E_mon(orb) frag1 frag2             -10.591   -10.240 eV
J(AB):                0.045 eV
S(AB):            -0.00183793 Eh
|J(AB,eff)|:            0.026 eV
   
  Fragment 1 SOMO-1  Fragment 2 LUMO+1
--------------------------------------
E_mon(orb) frag1 frag2             -10.591   -10.164 eV
J(AB):               -0.074 eV
S(AB):             0.00302457 Eh
|J(AB,eff)|:            0.043 eV
   
  Fragment 1 SOMO   Fragment 2 SOMO-3
--------------------------------------
E_mon(orb) frag1 frag2             -10.553   -10.720 eV
J(AB):               -0.053 eV
S(AB):             0.00216870 Eh
|J(AB,eff)|:            0.030 eV
   
  Fragment 1 SOMO   Fragment 2 SOMO-2
--------------------------------------
E_mon(orb) frag1 frag2             -10.553   -10.604 eV
J(AB):                0.001 eV
S(AB):             0.00005807 Eh
|J(AB,eff)|:            0.002 eV
   
  Fragment 1 SOMO   Fragment 2 SOMO-1
--------------------------------------
E_mon(orb) frag1 frag2             -10.553   -10.554 eV
J(AB):                0.044 eV
S(AB):            -0.00179752 Eh
|J(AB,eff)|:            0.025 eV
   
  Fragment 1 SOMO   Fragment 2 SOMO 
--------------------------------------
E_mon(orb) frag1 frag2             -10.553   -10.561 eV
J(AB):                0.032 eV
S(AB):            -0.00129791 Eh
|J(AB,eff)|:            0.018 eV
   
  Fragment 1 SOMO   Fragment 2 LUMO 
--------------------------------------
E_mon(orb) frag1 frag2             -10.553   -10.240 eV
J(AB):               -0.024 eV
S(AB):             0.00085878 Eh
|J(AB,eff)|:            0.015 eV
   
  Fragment 1 SOMO   Fragment 2 LUMO+1
--------------------------------------
E_mon(orb) frag1 frag2             -10.553   -10.164 eV
J(AB):               -0.033 eV
S(AB):             0.00131237 Eh
|J(AB,eff)|:            0.019 eV
   
  Fragment 1 LUMO   Fragment 2 SOMO-3
--------------------------------------
E_mon(orb) frag1 frag2             -10.254   -10.720 eV
J(AB):               -0.063 eV
S(AB):             0.00242579 Eh
|J(AB,eff)|:            0.038 eV
   
  Fragment 1 LUMO   Fragment 2 SOMO-2
--------------------------------------
E_mon(orb) frag1 frag2             -10.254   -10.604 eV
J(AB):                0.008 eV
S(AB):            -0.00022784 Eh
|J(AB,eff)|:            0.005 eV
   
  Fragment 1 LUMO   Fragment 2 SOMO-1
--------------------------------------
E_mon(orb) frag1 frag2             -10.254   -10.554 eV
J(AB):               -0.049 eV
S(AB):             0.00185964 Eh
|J(AB,eff)|:            0.029 eV
   
  Fragment 1 LUMO   Fragment 2 SOMO 
--------------------------------------
E_mon(orb) frag1 frag2             -10.254   -10.561 eV
J(AB):               -0.009 eV
S(AB):             0.00032392 Eh
|J(AB,eff)|:            0.006 eV
   
  Fragment 1 LUMO   Fragment 2 LUMO 
--------------------------------------
E_mon(orb) frag1 frag2             -10.254   -10.240 eV
J(AB):               -0.053 eV
S(AB):             0.00232405 Eh
|J(AB,eff)|:            0.029 eV
   
  Fragment 1 LUMO   Fragment 2 LUMO+1
--------------------------------------
E_mon(orb) frag1 frag2             -10.254   -10.164 eV
J(AB):                0.077 eV
S(AB):            -0.00318293 Eh
|J(AB,eff)|:            0.045 eV
   
  Fragment 1 LUMO+1  Fragment 2 SOMO-3
--------------------------------------
E_mon(orb) frag1 frag2             -10.164   -10.720 eV
J(AB):                0.073 eV
S(AB):            -0.00280697 Eh
|J(AB,eff)|:            0.043 eV
   
  Fragment 1 LUMO+1  Fragment 2 SOMO-2
--------------------------------------
E_mon(orb) frag1 frag2             -10.164   -10.604 eV
J(AB):               -0.025 eV
S(AB):             0.00099384 Eh
|J(AB,eff)|:            0.015 eV
   
  Fragment 1 LUMO+1  Fragment 2 SOMO-1
--------------------------------------
E_mon(orb) frag1 frag2             -10.164   -10.554 eV
J(AB):                0.047 eV
S(AB):            -0.00172342 Eh
|J(AB,eff)|:            0.029 eV
   
  Fragment 1 LUMO+1  Fragment 2 SOMO 
--------------------------------------
E_mon(orb) frag1 frag2             -10.164   -10.561 eV
J(AB):                0.001 eV
S(AB):             0.00004781 Eh
|J(AB,eff)|:            0.002 eV
   
  Fragment 1 LUMO+1  Fragment 2 LUMO 
--------------------------------------
E_mon(orb) frag1 frag2             -10.164   -10.240 eV
J(AB):                0.067 eV
S(AB):            -0.00274723 Eh
|J(AB,eff)|:            0.039 eV
   
  Fragment 1 LUMO+1  Fragment 2 LUMO+1
--------------------------------------
E_mon(orb) frag1 frag2             -10.164   -10.164 eV
J(AB):               -0.072 eV
S(AB):             0.00306383 Eh
|J(AB,eff)|:            0.041 eV
   
..............................................................................
:  total |J(AB,eff)| for hole transport (occ. MOs) :               0.089 eV  :
:  total |J(AB,eff)| for charge transport (unocc. MOs) :           0.077 eV  :
:  total |J(AB,eff)| for charge transfer (CT) :                    0.106 eV  :
..............................................................................
  
 Please remember, DIPRO is not available for restart!
   
normal termination of dipro
----------------------------------------------------------
 * finished run on 2025/03/17 at 16:07:09.090     
----------------------------------------------------------
 dipro:
 * wall-time:     0 d,  0 h,  1 min, 28.274 sec
 *  cpu-time:     0 d,  0 h,  3 min, 30.640 sec
 * ratio c/w:     2.386 speedup
Reorganization energy (electron): 0.07164461208911511 eV
Reorganization energy (hole): 0.0761266255644149 eV
Electron Transfer integral J: 0.077 eV
Hole Transfer integral J: 0.089 eV
