202
 energy: -401.103037395546 gnorm: 0.237486688698 xtb: 6.7.1 (edcfbbe)
C           -0.21880000000000        4.21850000000000       -0.74910000000000
C            0.12920000000000        3.19820000000000        0.12910000000000
C            1.51410000000000        2.91770000000000        0.37490000000000
C            2.44800000000000        3.94360000000000        0.04210000000000
C            2.03610000000000        4.99160000000000       -0.79850000000000
C            0.73430000000000        5.10820000000000       -1.22470000000000
C            1.99300000000000        1.73150000000000        1.03280000000000
C            3.25110000000000        1.86940000000000        1.64450000000000
C            4.02540000000000        3.05170000000000        1.44520000000000
N            3.68220000000000        4.01860000000000        0.57720000000000
C            1.45180000000000        0.39600000000000        0.97440000000000
C            2.17810000000000       -0.62840000000000        1.66360000000000
N            3.21180000000000       -0.39430000000000        2.50560000000000
C            3.77820000000000        0.82050000000000        2.45050000000000
C            4.97430000000000        1.03590000000000        3.14540000000000
C            5.68980000000000        2.20780000000000        2.99690000000000
C            5.23180000000000        3.18590000000000        2.13780000000000
C            0.40490000000000       -0.03900000000000        0.08000000000000
C            0.30250000000000       -1.39050000000000       -0.23590000000000
C            1.04090000000000       -2.36550000000000        0.41010000000000
C            1.90840000000000       -1.98410000000000        1.39920000000000
O           -0.85390000000000        2.56510000000000        0.85920000000000
O           -0.54680000000000        0.74310000000000       -0.54620000000000
C            0.33170000000000        6.26480000000000       -2.05420000000000
C            0.86500000000000       -3.78960000000000        0.04570000000000
C            6.94920000000000        2.43510000000000        3.73510000000000
C           -2.11300000000000       -1.46630000000000        1.41000000000000
C           -2.79930000000000       -0.49410000000000        0.70440000000000
C           -3.78450000000000       -0.86690000000000       -0.26660000000000
C           -3.93150000000000       -2.26260000000000       -0.53500000000000
C           -3.13910000000000       -3.19780000000000        0.15760000000000
C           -2.26660000000000       -2.80870000000000        1.14140000000000
C           -4.75620000000000        0.03770000000000       -0.81690000000000
C           -5.84900000000000       -0.56000000000000       -1.46690000000000
C           -5.81600000000000       -1.94260000000000       -1.80900000000000
N           -4.85340000000000       -2.77360000000000       -1.37930000000000
C           -4.87410000000000        1.45960000000000       -0.60390000000000
C           -6.18600000000000        2.02410000000000       -0.64800000000000
N           -7.23470000000000        1.42770000000000       -1.24790000000000
C           -7.02370000000000        0.20010000000000       -1.75150000000000
C           -8.04720000000000       -0.39790000000000       -2.49420000000000
C           -7.96310000000000       -1.70920000000000       -2.91790000000000
C           -6.86960000000000       -2.47460000000000       -2.56060000000000
C           -3.78360000000000        2.37960000000000       -0.38240000000000
C           -4.04810000000000        3.60810000000000        0.22090000000000
C           -5.35360000000000        4.04620000000000        0.40110000000000
C           -6.39250000000000        3.29290000000000       -0.08810000000000
O           -2.43860000000000        0.78750000000000        1.03640000000000
O           -2.50470000000000        2.11820000000000       -0.84540000000000
C           -1.46580000000000       -3.75270000000000        1.94090000000000
C           -5.66520000000000        5.32960000000000        1.06170000000000
C           -9.07030000000000       -2.29690000000000       -3.70390000000000
B           -1.57880000000000        1.55190000000000        0.12840000000000
O            7.58440000000000        3.45030000000000        3.52550000000000
O            7.32290000000000        1.48430000000000        4.63830000000000
C            8.50650000000000        1.88190000000000        5.25210000000000
O           -0.05720000000000       -4.03050000000000       -0.93190000000000
C           -0.17060000000000       -5.39830000000000       -1.14620000000000
O            1.51270000000000       -4.65760000000000        0.59680000000000
O           -0.71000000000000       -3.29070000000000        2.77510000000000
O           -1.60230000000000       -5.08780000000000        1.70700000000000
C           -0.72790000000000       -5.75040000000000        2.55520000000000
O           -9.89620000000000       -1.56850000000000       -4.21850000000000
O           -9.09750000000000       -3.65840000000000       -3.79860000000000
C          -10.16230000000000       -4.04110000000000       -4.60720000000000
O           -6.82980000000000        5.65650000000000        1.18710000000000
O           -4.62090000000000        6.07740000000000        1.51590000000000
C           -5.12600000000000        7.17710000000000        2.20110000000000
O            1.17090000000000        6.87790000000000       -2.68380000000000
O           -0.99390000000000        6.58830000000000       -2.03770000000000
C           -1.20920000000000        7.68470000000000       -2.86430000000000
H          -10.02080000000000       -3.60690000000000       -5.60030000000000
H          -11.09070000000000       -3.66130000000000       -4.17310000000000
H          -10.19050000000000       -5.13080000000000       -4.67260000000000
H           -4.30110000000000        7.73530000000000        2.64820000000000
H           -5.80280000000000        6.81000000000000        2.98070000000000
H           -5.68170000000000        7.80590000000000        1.50090000000000
H           -2.27090000000000        7.94040000000000       -2.85140000000000
H           -0.89410000000000        7.42520000000000       -3.87840000000000
H           -0.61060000000000        8.52340000000000       -2.49890000000000
H           -0.68100000000000       -6.80830000000000        2.28810000000000
H           -1.08950000000000       -5.62020000000000        3.57830000000000
H            0.25210000000000       -5.27090000000000        2.45280000000000
H           -0.58450000000000       -5.85670000000000       -0.24490000000000
H            0.82160000000000       -5.80800000000000       -1.35130000000000
H           -0.83490000000000       -5.57070000000000       -1.99560000000000
H            8.73230000000000        1.19650000000000        6.07210000000000
H            8.37670000000000        2.90100000000000        5.63230000000000
H            9.30860000000000        1.86850000000000        4.51030000000000
H           -8.93780000000000        0.16380000000000       -2.71510000000000
H           -6.84350000000000       -3.51330000000000       -2.83540000000000
H           -7.39290000000000        3.68280000000000       -0.02200000000000
H           -3.26610000000000       -4.24500000000000       -0.04640000000000
H           -3.23000000000000        4.23270000000000        0.53080000000000
H           -1.42230000000000       -1.15200000000000        2.17390000000000
H           -1.25460000000000        4.36430000000000       -0.99500000000000
H           -0.42630000000000       -1.68960000000000       -0.96720000000000
H            2.42440000000000       -2.74520000000000        1.95800000000000
H            2.74490000000000        5.75100000000000       -1.07790000000000
H            5.81610000000000        4.08020000000000        2.01240000000000
H            5.35710000000000        0.26370000000000        3.78760000000000
C           -0.06760000000000        3.68750000000000        3.56720000000000
C            0.41700000000000        2.80150000000000        4.52890000000000
C            1.82340000000000        2.74430000000000        4.78670000000000
C            2.59740000000000        3.87040000000000        4.37700000000000
C            2.03330000000000        4.80240000000000        3.48820000000000
C            0.73420000000000        4.69530000000000        3.05490000000000
C            2.45060000000000        1.68230000000000        5.52560000000000
C            3.68270000000000        2.04360000000000        6.10290000000000
C            4.29970000000000        3.29560000000000        5.79430000000000
N            3.82070000000000        4.14250000000000        4.86810000000000
C            2.07560000000000        0.28360000000000        5.60640000000000
C            2.94450000000000       -0.56150000000000        6.37150000000000
N            3.94770000000000       -0.11640000000000        7.16170000000000
C            4.34930000000000        1.14910000000000        6.98430000000000
C            5.52540000000000        1.56270000000000        7.61710000000000
C            6.10140000000000        2.78520000000000        7.34060000000000
C            5.50580000000000        3.62730000000000        6.42250000000000
C            1.07740000000000       -0.39530000000000        4.80250000000000
C            1.16980000000000       -1.77540000000000        4.61710000000000
C            2.09050000000000       -2.55910000000000        5.29010000000000
C            2.89830000000000       -1.95900000000000        6.21950000000000
O           -0.44260000000000        2.08980000000000        5.33750000000000
O            0.01120000000000        0.15970000000000        4.12310000000000
C            0.16320000000000        5.71340000000000        2.14790000000000
C            2.32700000000000       -3.97620000000000        4.90550000000000
C            7.39550000000000        3.14710000000000        7.95660000000000
C           -1.76050000000000       -2.00180000000000        5.79410000000000
C           -2.44710000000000       -0.96460000000000        5.17690000000000
C           -3.49790000000000       -1.25420000000000        4.23620000000000
C           -3.75730000000000       -2.63880000000000        3.98600000000000
C           -2.98950000000000       -3.63700000000000        4.61500000000000
C           -1.99760000000000       -3.32940000000000        5.50850000000000
C           -4.37530000000000       -0.28870000000000        3.61760000000000
C           -5.48000000000000       -0.80100000000000        2.91820000000000
C           -5.57180000000000       -2.19490000000000        2.64850000000000
N           -4.71590000000000       -3.09290000000000        3.15370000000000
C           -4.34740000000000        1.14840000000000        3.70240000000000
C           -5.55210000000000        1.88070000000000        3.46560000000000
N           -6.60980000000000        1.36000000000000        2.81490000000000
C           -6.52120000000000        0.06600000000000        2.46170000000000
C           -7.54040000000000       -0.46980000000000        1.66590000000000
C           -7.57650000000000       -1.81110000000000        1.34160000000000
C           -6.61230000000000       -2.66130000000000        1.84090000000000
C           -3.16630000000000        1.92980000000000        3.94230000000000
C           -3.30150000000000        3.23230000000000        4.41550000000000
C           -4.53000000000000        3.87410000000000        4.40500000000000
C           -5.61880000000000        3.22900000000000        3.86500000000000
O           -1.99620000000000        0.27970000000000        5.56560000000000
O           -1.92460000000000        1.44660000000000        3.58860000000000
C           -1.12210000000000       -4.34210000000000        6.14010000000000
C           -4.62950000000000        5.25900000000000        4.91270000000000
C           -8.63980000000000       -2.33930000000000        0.46350000000000
B           -1.07590000000000        0.98710000000000        4.66550000000000
O            8.01910000000000        4.10040000000000        7.53240000000000
O            7.83210000000000        2.34510000000000        8.97070000000000
C            9.04350000000000        2.82650000000000        9.45500000000000
O            2.23440000000000       -4.23990000000000        3.56880000000000
C            2.68980000000000       -5.52380000000000        3.29000000000000
O            2.65000000000000       -4.80360000000000        5.73430000000000
O           -0.45240000000000       -4.00600000000000        7.09840000000000
O           -1.07360000000000       -5.59150000000000        5.59610000000000
C           -0.10510000000000       -6.32640000000000        6.27240000000000
O           -9.43700000000000       -1.57590000000000       -0.04480000000000
O           -8.64350000000000       -3.69060000000000        0.26590000000000
C           -9.62980000000000       -4.02860000000000       -0.65300000000000
O           -5.66910000000000        5.87800000000000        4.80740000000000
O           -3.50110000000000        5.76060000000000        5.49440000000000
C           -3.74640000000000        7.03590000000000        5.99010000000000
O            0.88890000000000        6.55250000000000        1.65250000000000
O           -1.18260000000000        5.64870000000000        1.93020000000000
C           -1.57250000000000        6.67220000000000        1.07500000000000
H           -9.27970000000000       -3.74020000000000       -1.64640000000000
H          -10.54780000000000       -3.48710000000000       -0.40790000000000
H           -9.80080000000000       -5.10630000000000       -0.61320000000000
H           -2.86000000000000        7.38280000000000        6.52570000000000
H           -4.60350000000000        6.99090000000000        6.66700000000000
H           -3.96880000000000        7.70650000000000        5.15800000000000
H           -2.65740000000000        6.63850000000000        0.95740000000000
H           -1.08450000000000        6.52410000000000        0.10980000000000
H           -1.26190000000000        7.62850000000000        1.50270000000000
H            0.01060000000000       -7.30310000000000        5.79820000000000
H           -0.41800000000000       -6.44230000000000        7.31330000000000
H            0.83630000000000       -5.76630000000000        6.23710000000000
H            2.06860000000000       -6.25070000000000        3.81650000000000
H            3.72480000000000       -5.61070000000000        3.62840000000000
H            2.63180000000000       -5.67770000000000        2.20860000000000
H            9.37120000000000        2.19690000000000       10.28490000000000
H            8.90100000000000        3.85580000000000        9.79390000000000
H            9.78170000000000        2.80610000000000        8.64990000000000
H           -8.31180000000000        0.17800000000000        1.28890000000000
H           -6.66670000000000       -3.70910000000000        1.60740000000000
H           -6.54310000000000        3.76780000000000        3.75300000000000
H           -3.18260000000000       -4.66650000000000        4.37440000000000
H           -2.44070000000000        3.76720000000000        4.77260000000000
H           -0.98710000000000       -1.75520000000000        6.49970000000000
H           -1.08250000000000        3.60860000000000        3.22280000000000
H            0.49700000000000       -2.25280000000000        3.92420000000000
H            3.60880000000000       -2.56200000000000        6.75680000000000
H            2.62940000000000        5.62840000000000        3.14350000000000
H            5.99820000000000        4.54800000000000        6.16320000000000
H            6.02280000000000        0.89000000000000        8.29210000000000
202
 energy: -401.159799994955 gnorm: 0.114457052181 xtb: 6.7.1 (edcfbbe)
C           -0.22779159131705        4.21837481214051       -0.72964455793448
C            0.11769036033738        3.19853583895257        0.14668981571200
C            1.49102833029840        2.91879837319321        0.38849228014670
C            2.43925280706976        3.94121147811471        0.04781352177359
C            2.04091720990186        4.99587908176800       -0.79833000513233
C            0.73498089477738        5.10642144577457       -1.21528657905107
C            1.97985547679136        1.73345245311780        1.03046553100511
C            3.24117336782138        1.87036875171242        1.64364802920478
C            4.01709693254137        3.05218681733822        1.44606118747036
N            3.66578855206096        4.00518877390784        0.57763698410595
C            1.43651559583421        0.40443940524566        0.95688551424517
C            2.16961878556118       -0.62212246013851        1.65288092451579
N            3.19838778382421       -0.38791353372218        2.48593890900020
C            3.76896256910291        0.81735463841519        2.44551213894925
C            4.96649472601551        1.02719635696411        3.15402060560832
C            5.68098616499476        2.20409125166037        3.00172760166630
C            5.22897961552976        3.19204001156597        2.13904755203258
C            0.37798459174742       -0.02925459918242        0.08522269048582
C            0.28519010224209       -1.38056483894555       -0.23463152552670
C            1.03955498440809       -2.35789064066161        0.40844604665439
C            1.90670619192491       -1.98515629632971        1.40517486947864
O           -0.84658160222807        2.56785479405342        0.86193589887269
O           -0.54455126416590        0.73556354739828       -0.55219280991436
C            0.35367105507041        6.25856616428735       -2.06257407056969
C            0.87442734369872       -3.78322918357273        0.05453291406350
C            6.94614074065462        2.45061441190086        3.72695159494744
C           -2.10585864546990       -1.46164970720504        1.40722475694479
C           -2.78361476259442       -0.48278088394779        0.70195890927108
C           -3.77803830227404       -0.85152688813707       -0.25325942219980
C           -3.93354697861759       -2.25511538473038       -0.52818964393019
C           -3.14349667798457       -3.20700094475223        0.14937865904882
C           -2.27504025577270       -2.81458746967052        1.13505761800438
C           -4.74987058215759        0.04460300465828       -0.81097031606473
C           -5.84492407034822       -0.55666015664657       -1.46237131388254
C           -5.81300220455312       -1.94124921776564       -1.79998472278075
N           -4.85159071810778       -2.75783671161665       -1.36714518500511
C           -4.85154787623610        1.46333963045420       -0.60890494820245
C           -6.17531488686128        2.02127701701463       -0.64770153900894
N           -7.21278208823853        1.42124770696589       -1.24288067783883
C           -7.02039134012478        0.20039722454737       -1.74837502318694
C           -8.05232095498803       -0.39417512454311       -2.49095653119021
C           -7.95964932791587       -1.71252383079151       -2.91234185530301
C           -6.86546914855028       -2.48451479278505       -2.55724072824316
C           -3.76976169926004        2.37441983888284       -0.39398153210437
C           -4.03591433269643        3.60119900981983        0.20776713667023
C           -5.34984615867024        4.03807919618528        0.39943789025887
C           -6.39677611400152        3.29165935583392       -0.08720216533885
O           -2.44043249557552        0.77804353734383        1.03933179139199
O           -2.51347821151075        2.10725345532485       -0.84934871342173
C           -1.46886123074734       -3.74161435018017        1.94192283167890
C           -5.68395092015242        5.31797456213457        1.05957200114014
C           -9.07193509818568       -2.27626862818784       -3.70937480300186
B           -1.57722025686129        1.54819440526718        0.13110371946418
O            7.59213615809054        3.45038846063731        3.52587751172548
O            7.31211214435759        1.50740361722553        4.62130148432592
C            8.51375150765930        1.87916853547669        5.25363749619572
O           -0.03873156632625       -4.02471865590453       -0.91031372075706
C           -0.17180964477583       -5.40358836967002       -1.15091846060056
O            1.51196646560321       -4.66059980786611        0.58929009349947
O           -0.70934693001035       -3.30309620253009        2.77861097526010
O           -1.59937244985005       -5.05757744697270        1.70486004755908
C           -0.72527458973446       -5.76214263675880        2.55382925299581
O           -9.89945110373579       -1.56743949983875       -4.22642317898700
O           -9.09283032291383       -3.62589558969825       -3.80902140601672
C          -10.16677302347080       -4.04530665782933       -4.61415007810596
O           -6.83436493674895        5.66378238695183        1.18844912334248
O           -4.64857241453159        6.05575740925061        1.51169406701566
C           -5.12807174452242        7.18610894478572        2.20151415444594
O            1.17326151370581        6.88075463421844       -2.69269374865376
O           -0.96150182048256        6.57614612487360       -2.04959227757868
C           -1.21176238661123        7.68930983295394       -2.87056917912112
H          -10.04173795678063       -3.61919181365816       -5.61257336056336
H          -11.10205408630789       -3.67366762010416       -4.18724863636264
H          -10.17645154457371       -5.13265446566727       -4.66353318135081
H           -4.28931641237952        7.72807503618599        2.63586329129868
H           -5.80882627879615        6.84547969773961        2.98700973391180
H           -5.68197787138940        7.82492031861360        1.50993712626693
H           -2.27382823186565        7.92725357552531       -2.84115756066220
H           -0.90251491163848        7.44850429102197       -3.89064620833328
H           -0.62054395062389        8.53685390292929       -2.51339265211549
H           -0.69594971422319       -6.81212723233689        2.27198902756772
H           -1.07342102839045       -5.64505828871423        3.58102574439650
H            0.26464349335774       -5.30572889262793        2.46616760977738
H           -0.58686797990401       -5.87836965804988       -0.25905239823895
H            0.81373116599128       -5.82896463703184       -1.35847270421031
H           -0.83706108984797       -5.55474822542908       -1.99895926796747
H            8.72116885182593        1.18433976691960        6.06610671396229
H            8.40819498266038        2.89790519558877        5.63570960245082
H            9.32472061592243        1.86691521067695        4.52204578142881
H           -8.94195637546069        0.17170836018093       -2.71393442052331
H           -6.83157983087509       -3.52418278231680       -2.83622730115037
H           -7.40013234268392        3.68077802181858       -0.02927050255163
H           -3.27604497201331       -4.25328188112056       -0.06204746318562
H           -3.21692622353338        4.22558973237159        0.52301070724737
H           -1.41823394589729       -1.14596500140501        2.17637180894099
H           -1.26337439253999        4.35369835574968       -0.99258415473911
H           -0.43357849251569       -1.67985638651962       -0.97829629416354
H            2.43572199783309       -2.74048820458950        1.96193469489700
H            2.75491671581200        5.75340271337384       -1.07553402670931
H            5.81685823755360        4.08621788753230        2.00724232939080
H            5.35039374511530        0.24955264613045        3.79261067005667
C           -0.07529596379469        3.68293382763484        3.58229838890569
C            0.40741142332872        2.80409431629435        4.54692912539668
C            1.80325138399556        2.74233050549190        4.79696665683199
C            2.59362611327715        3.86450833079627        4.37717814932404
C            2.04066457887729        4.80436572372892        3.48375236450020
C            0.73740828847477        4.68778273474079        3.05875190399304
C            2.44069851382796        1.68088489277422        5.52043912437546
C            3.67699892534993        2.04023992477627        6.09817582778335
C            4.29652609349074        3.29073973175439        5.79042622270018
N            3.81072352582972        4.12588524628321        4.86678541624783
C            2.06255370722490        0.28884455549238        5.58665347053413
C            2.93937500824212       -0.55845319155270        6.35824554903601
N            3.93713484763484       -0.11551105682040        7.13849496046552
C            4.34440879639150        1.14221838964941        6.97757005745550
C            5.52233083781929        1.55067223698722        7.62385545503276
C            6.09569331695821        2.77899944992711        7.34418327407047
C            5.50679627710927        3.62861144816471        6.41850067032502
C            1.05478333368429       -0.38655856242978        4.80667538479770
C            1.16637991237682       -1.76503909360401        4.61035348047649
C            2.10166788669567       -2.54873613096019        5.27707957990365
C            2.90189459740309       -1.96141908769902        6.22342156255543
O           -0.43227865794173        2.09410628049734        5.34105265381311
O            0.01721477464064        0.15456378231803        4.11833055804699
C            0.18256754621320        5.70860663972571        2.14292817991614
C            2.32975054958853       -3.97188006309520        4.92238254898985
C            7.38941397988551        3.16186578635274        7.95125895991090
C           -1.75712810945841       -1.99801461334021        5.79297488494049
C           -2.43336544138737       -0.95520355089700        5.17691170272266
C           -3.48537887224836       -1.23710283066481        4.24568618259306
C           -3.75240101974114       -2.63028299581899        3.98780067877776
C           -2.98946782074736       -3.64509006768639        4.60375536682382
C           -2.00057422065832       -3.33390251211851        5.50003319279354
C           -4.36355747296133       -0.28170486989042        3.61797760459282
C           -5.47281564839219       -0.79806578689229        2.91908640722113
C           -5.56681433065153       -2.19398433597564        2.65382847734707
N           -4.70901237200713       -3.07696555340732        3.16260437743992
C           -4.32379665807902        1.14975024322677        3.69538690537251
C           -5.54143828841655        1.87826871440370        3.46421670954796
N           -6.58996054287568        1.35268163884355        2.82130154645323
C           -6.51461256788059        0.06685101226377        2.46122442376002
C           -7.54084826067904       -0.46463372544503        1.66313150631584
C           -7.57117028768519       -1.81454827463476        1.34359600339662
C           -6.60657168966418       -2.67220977788341        1.84149597750884
C           -3.14985547106780        1.92347671209018        3.92303167978896
C           -3.28800743597955        3.22168920880219        4.40436185714154
C           -4.52729239575382        3.86326968742221        4.40553772089337
C           -5.62344533280559        3.22980067144452        3.86375186803799
O           -1.99373447395458        0.26964867507309        5.56749190066530
O           -1.93649661598559        1.43509848204719        3.58238911819198
C           -1.12309424754284       -4.32599567946565        6.15733865010693
C           -4.64404744713155        5.24805274277393        4.91102887133147
C           -8.64274612801574       -2.32169478047477        0.46268310105134
B           -1.07447097499992        0.98672652690343        4.66353769875627
O            8.01972379738480        4.11030471677916        7.54594375031647
O            7.82066591863506        2.36598648250213        8.95192890526988
C            9.04853509365682        2.82695424313780        9.45978841175745
O            2.24046094271798       -4.23411038395167        3.60269622519728
C            2.69314596588088       -5.52978231378024        3.29170841160835
O            2.65559100427677       -4.80308855933245        5.73598627948653
O           -0.44745113648512       -4.00685735306733        7.10685225887148
O           -1.07830379753222       -5.56291500220905        5.61900938019724
C           -0.10318843140282       -6.33634091195925        6.27919176151843
O           -9.43843730636419       -1.57491549212115       -0.05660007331143
O           -8.64574552408069       -3.65814709121476        0.27242318401259
C           -9.63570167929979       -4.03598529060522       -0.65217695846908
O           -5.67292285561629        5.87711340959598        4.82176136985685
O           -3.52693372100328        5.74669601081729        5.48365063741919
C           -3.74562239332624        7.03897425548093        5.99231917712690
O            0.88734649961591        6.55466175942686        1.64207747113327
O           -1.14991265414034        5.65076094888087        1.94194039185372
C           -1.57437706968838        6.67751167988962        1.07854103999203
H           -9.29870592886695       -3.75627203420343       -1.65020503275529
H          -10.56250131390426       -3.50333524856645       -0.42289403729035
H           -9.78947979711176       -5.11193473777522       -0.59862605013926
H           -2.85267214116609        7.36884014319804        6.52135988831106
H           -4.60091374626652        7.01388381197915        6.67294786885487
H           -3.97027390796577        7.72215583446830        5.16952541205013
H           -2.65495375514078        6.62781661528205        0.97048971777301
H           -1.09673525304853        6.54518043183507        0.10820944257445