116
 energy: -22.928061455056 gnorm: 0.329736929581 xtb: 6.6.1 (8d0f1dd)
C           -3.31122850772930        0.79849766164622       -0.92477639677520
C           -2.44380812530352       -0.12270372891954       -0.27661132624697
C           -1.41337090092821        0.39579727573559        0.56335275196199
C           -0.89266158675590        1.65801491088749        0.27377586709581
C           -1.72665675402493        2.51431363229076       -0.49448366572522
C           -2.95444148494349        2.13954154133227       -1.01494489940871
C           -0.74098268209890       -0.43411532818871        1.49825021926784
C            0.56872586496315        0.03782116815119        1.86248088067890
C            1.03782416582094        1.29402317993033        1.50887470833621
N            0.31238977034758        2.07067427098208        0.65193736800696
C           -1.29695700510141       -1.39996043042223        2.41574187746061
C           -0.38243517664656       -2.18060797534842        3.13232615520648
N            0.91308504082021       -1.90366887689689        3.30325166013478
C            1.37712470144904       -0.74872102533751        2.81811050966982
C            2.52149331701875       -0.17739833758153        3.39379298866852
C            2.95849061756259        1.02681208890480        2.95105897606587
C            2.24288949469137        1.78498308775960        2.03503020483770
C           -2.74860936222260       -1.74497937691422        2.38401158947411
C           -3.09416315450955       -2.91614440870436        3.00571134491758
C           -2.16786021984049       -3.77788778654213        3.63251872101904
C           -0.85708937311598       -3.40495313382985        3.68547234358092
O           -3.71994433332149       -0.94984598373544        1.67726658385724
O           -2.55702603277562       -1.47241711578389       -0.57241635275616
C           -3.84297843593025        3.13357444054366       -1.60938954875544
C           -2.68769581069131       -5.03867041417370        4.30484659386931
H           -1.39666850744143        3.51251503834900       -0.76806311868865
H           -4.27662633836220        0.55105838579656       -1.33106614114542
H            2.66329581305412        2.73912661909249        1.72562431984580
H            3.05775395548473       -0.69369546277216        4.16536137542516
H           -0.24710966264510       -4.12034095424229        4.22946223699121
H           -4.11477991332403       -3.04712728052358        3.03244694615357
O           -4.21824883374556        4.03433712717988       -0.87713382485991
O           -4.44510595673734        2.90643496899600       -2.81853501752979
C           -5.44216520282800        3.83300025693726       -3.02488532025093
C            4.23586651889298        1.50004220933226        3.59165660008449
O            5.05927614697201        0.66079890002952        3.91714215179376
O            4.47001334453535        2.86385149488593        3.72605651435371
C            5.79457498613219        3.08584475587818        4.15829123132174
O           -3.82227255313510       -5.27347675879771        4.16636005494405
O           -1.85023202017753       -5.79767454267276        5.06656077253571
C           -2.55119635829503       -6.86252441382958        5.62930343183426
C           -5.07197156564436       -1.42399175670916        1.58830531863830
C           -1.33089900128490       -2.23622472573986       -0.99264499351172
H           -2.54510546830388       -7.76426885143998        4.99136022291012
H           -3.57194749219491       -6.44405511486021        5.74196173723541
H           -2.09133598235598       -7.02043774843818        6.64022264233588
H            5.72707967266424        3.46798026205549        5.10135971236643
H            6.34060091246885        3.78468702308830        3.50069950143490
H            6.17933064298187        2.03010500085905        4.19342358084693
H           -0.91862729772622       -2.57650129080332       -0.01361370304871
H           -0.49769766914251       -1.60651221708571       -1.34094446550576
H           -1.52632419730509       -2.94569707152159       -1.75361447637286
H           -5.11788846557077       -2.41810833635233        1.17520213188926
H           -5.67929807973498       -0.69619639428435        1.04301666067831
H           -5.57598832326623       -1.42383358739762        2.57928294206544
H           -6.13050215934830        3.76035386975488       -2.23272855695873
H           -5.86615610071888        3.45938329385866       -4.02668959924245
H           -5.13479557532099        4.87790991548477       -2.98314551356402
C           -1.38192942069774        3.73616555005018        2.91232598411686
C           -1.84821468128685        2.59982427735607        3.49755545445181
C           -1.05946531454833        2.05730632010638        4.60922730982276
C            0.19893954712228        2.69376791964407        4.86302140881997
C            0.50425395911860        3.94630308659851        4.28768785650746
C           -0.26031777722226        4.46998310053134        3.25072669343212
C           -1.20488993561782        0.74454293276906        5.14851520323437
C           -0.06287609782692        0.02744069315890        5.60930570802864
C            1.19208754369866        0.71421540266195        5.78882868583885
N            1.19428660993148        2.06344359410476        5.62744624321596
C           -2.41361422770794        0.07928500213936        5.25249410304426
C           -2.45851584031083       -1.32662100968547        5.60237876023992
N           -1.29466212405906       -1.98318595734370        5.89916817085159
C           -0.14475655767527       -1.32117560077092        5.98824682881008
C            0.97209270935794       -1.98958449505532        6.53157704134458
C            2.21982707914082       -1.36973967291181        6.68703967237737
C            2.30561929262884       -0.09745313075593        6.26436900324455
C           -3.73018485967715        0.71367583494582        5.25810242262992
C           -4.89964478833448       -0.06184623426677        5.21204641615509
C           -4.82617965800088       -1.39228978090841        5.46901303780036
C           -3.67144193418464       -1.98914944386360        5.67265433266067
O           -3.75568638935321        2.07705011038914        5.52067969627343
O           -2.94192434743730        1.91263938797883        3.01658762327703
C            0.21273512614467        5.50086066357994        2.34765104514621
C           -6.06660304520411       -2.17604633098929        5.80641622556876
H            1.41756699010566        4.38133362238595        4.66974005703471
H           -1.82880610647429        4.11982501512100        2.06992133318584
H            3.26888037378556        0.32655662585251        6.31721410015598
H            0.87146188387207       -3.08471526305024        6.57830423410869
H           -3.67716811065157       -3.05999292755990        5.83019634570050
H           -5.77379677507622        0.43595144608221        4.71017130754348
O            1.34459852619901        5.82615848916894        2.44941456579099
O           -0.74718748219123        6.07961784856304        1.59848183464284
C           -0.21473095568964        7.24015934882472        1.05753806029483
C            3.53228080814219       -2.00967610361154        7.02506769044485
O            3.64093082622715       -3.14437803815732        7.50071391725347
O            4.56565258381079       -1.22937033368332        6.69086985080897
C            5.72579357310716       -1.80692399125161        7.22246151275881
O           -7.04801223588612       -1.95726935745904        5.14194115322235
O           -6.01514389321278       -2.93743591896022        6.94765316328794
C           -7.21292732384718       -3.62681918543340        7.15115816329978
C           -4.95459780685163        2.65960679932188        5.86868674392943
C           -3.68284113682406        2.59129188358641        2.05479246020704
H           -7.43119628931628       -4.22607794725959        6.20622607140901
H           -8.06548455146707       -2.91765848248592        7.29781126410398
H           -7.07314693247270       -4.33087306029711        7.91223421050944
H            6.57332189837178       -1.29353136199234        6.78341268688262
H            5.74663761932316       -2.84282155125561        6.88089468184451
H            5.69426191474290       -1.72781984964892        8.29460302186842
H           -4.10481209541493        3.44288266176275        2.60483747673152
H           -4.49244774344916        1.87419893016926        1.82433103764650
H           -3.18901540870812        2.85154642679373        1.06781919454921
H           -5.55414326821421        2.76698137191684        4.93950725322359
H           -4.78658370641210        3.62090640967288        6.25983200635257
H           -5.43485580473958        1.97242995129449        6.65265772412460
H            0.89164886030839        7.38838561720231        1.13776105146914
H           -0.62894889903848        8.04195665205089        1.64837664327952
H           -0.59282546386754        7.45699159724320        0.03719083132488
116
 energy: -22.483829539686 gnorm: 0.607417245880 xtb: 6.6.1 (8d0f1dd)
C           -3.26393624932167        0.67237209113999       -1.20139786916506
C           -2.25709083976602       -0.20856629295089       -0.74001925637627
C           -1.54877502438848        0.39028389886881        0.47003167471568
C           -1.03260158509076        1.73882824849027        0.35984586415806
C           -1.89412519024789        2.56956951030307       -0.40558574266344
C           -3.14084918806413        2.00266507933270       -0.82090190118544
C           -0.58245673143237       -0.41155997054631        1.22773107404904
C            0.75026575888969       -0.09698758340884        1.47387021326335
C            1.22443472787420        1.17333193174036        1.05526513464781
N            0.22941357232951        2.09085983733356        0.63360670495053
C           -0.88404675831516       -1.79690037777355        1.64125391203367
C           -0.04380736799093       -2.44514659972471        2.58461458647901
N            1.27204940513024       -2.27412713680150        2.70973200794710
C            1.65357094293478       -1.18694943233075        2.05749600979875
C            2.88388667352814       -0.56042569383215        2.52904561299293
C            3.36209634976521        0.70028855105400        2.33948606691424
C            2.51996112965931        1.60628433390406        1.62447791584902
C           -2.31659230689491       -2.09170411322210        1.74091967356353
C           -2.64642449052547       -3.36133873053417        2.21949844373799
C           -1.53539792607144       -4.23936708160390        2.39557972339597
C           -0.44472637512461       -3.67225060451600        3.02346653960526
O           -3.24944422432625       -1.05062024322369        1.55760524581227
O           -1.66954434201900       -1.13509429393224       -1.61171929924637
C           -4.27745619879271        2.95376364830152       -0.87434229260403
C           -2.02621810296615       -5.60695460181411        2.97731824895441
H           -1.57738097842460        3.58244649804300       -0.49567938427884
H           -3.86865592002689        0.28954021935803       -1.94621459941891
H            2.79016788837660        2.74508427835802        1.69914195728175
H            3.67833895541767       -1.22243960599478        2.98874416453081
H            0.25633337095547       -4.35862626350346        3.48154213777108
H           -3.58756727467538       -3.64505216066128        2.24049336281060
O           -4.02689836696495        4.00993067977233       -0.17655793535203
O           -5.46588335070667        2.69417235344664       -1.53501863614343
C           -6.24206090041415        3.81208235838511       -1.99990892068879
C            4.69502665844694        0.80901328690345        2.88222223040423
O            4.93987927028041        0.41828283161555        3.95542828695671
O            5.70780327903345        1.21230593245135        1.98047929606840
C            6.99822616626910        0.90886423036422        2.21730269997637
O           -3.01749899814323       -5.52192952640560        3.72913736540764
O           -1.33006699004114       -6.66632207160220        2.74758011518985
C           -1.71465871512068       -7.84683342241505        3.43855602288838
C           -4.59331255725653       -0.99320545681764        2.08452627464416
C           -0.35903703253372       -1.10170284572127       -2.24977678399984
H           -1.00068938929895       -8.65598618785757        3.13226701282870
H           -2.79100088215342       -7.88103981676675        3.61007670245629
H           -1.38555677954130       -7.82274371716756        4.51778071575358
H            7.51675997906244        0.81487558895679        1.31855192345409
H            7.15925721011976       -0.16983215526543        2.63828070363863
H            7.56061702069820        1.48376973518375        2.99397141663268
H           -0.45585945073991       -1.18056241052955       -3.32778458720184
H            0.06424032642854       -2.12400307731541       -1.74690755217936
H            0.39044289545664       -0.35394881784884       -1.70841234617969
H           -4.77623812073764       -1.72325587091818        2.87879498211352
H           -5.53282115362740       -1.29520570634562        1.46595515120622
H           -4.78235828434371        0.04807023268140        2.35739433633153
H           -7.15077159530192        3.64610047967314       -2.73410540120722
H           -5.46734676243146        4.58280583274829       -2.44409328294022
H           -6.80210687458390        4.18107734628719       -1.13189561030661
C           -1.72681732770063        3.66838920758316        2.93177419859548
C           -2.25455328855656        2.52807055128424        3.67805295785791
C           -1.10207169274505        2.03944660132936        4.49848939161790
C            0.07330455064441        2.90837827716911        4.73452695430001
C            0.09976990038656        4.23155538901305        4.32405202028363
C           -0.60070069034501        4.41561094312106        3.14335937282221
C           -1.33041566157806        0.92001271227973        5.36898808077972
C           -0.19881742340793        0.25121923680010        5.81816074767149
C            1.01217830885041        1.03301971453164        5.92931289160411
N            1.24068970252831        2.25697774727922        5.31273955771457
C           -2.57838817331949        0.41364645605928        5.90240271369974
C           -2.72158722304622       -0.92669565830325        6.17274874434204
N           -1.60934499984452       -1.63403000799173        6.53994891723582
C           -0.47519413716252       -0.87244988624025        6.60247758575696
C            0.67058027293201       -1.35161693074234        7.26411301832580
C            1.86005374171993       -0.72434388878116        7.28267418337737
C            2.16621430462129        0.43576002656385        6.57460192163379
C           -3.76226661364168        1.21745038932689        5.94953777799623
C           -5.05754412540230        0.63554140071419        6.11801509011198
C           -5.21251215234760       -0.79069080851991        6.31509845724738
C           -4.03918846786064       -1.54084626159958        6.21350665116652
O           -3.65495958605557        2.70842740076752        6.09266289248128
O           -3.23598602143177        1.78390120250636        3.53746078767369
C           -0.30523762888893        5.69273027177925        2.32676524254752
C           -6.37561420521304       -1.69842023045303        6.12126530516697
H            0.92564268596451        4.83038304980941        4.80806167100354
H           -2.14601179412388        4.13976116470150        2.08712504486314
H            3.21225736230224        0.59372131923845        6.28134982552131
H            0.55958798772438       -2.28322271707296        7.98352205645709
H           -3.97251832338498       -2.56279160395242        6.48654821773617
H           -5.92036319499776        1.19738050840103        5.93906826694821
O            0.74057276520824        6.26497791281173        2.49115156363585
O           -1.01990947951367        6.03510791158988        1.37016738279253
C           -0.44986121097104        7.17018853522174        0.72295050023431
C            2.67074274960892       -1.37310278471210        8.26483576045885
O            2.19389418973552       -2.31502955182057        8.89991132424993
O            3.80593147904424       -0.67893407531428        8.72966551396242
C            4.30289554175797       -1.36404345678312        9.78385493873017
O           -7.46765338601448       -1.42470156713461        5.82190426296951
O           -5.99989195910549       -3.05111253890548        6.44989068648489
C           -7.05117153118350       -3.84863052478673        7.08100174649987
C           -4.47903435990841        3.39745077447946        7.01168378623918
C           -4.14911796687990        2.30794356912393        2.61806496721768
H           -7.86281456143025       -3.63116995451988        6.34140329425746
H           -7.28775593103522       -3.12525709091679        7.89400797639646
H           -6.83815028095036       -4.83779559812242        7.39919064834891
H            4.39780940946657       -2.36927141705403        9.65185704629791
H            3.38011454317585       -1.29355922801915       10.46985286741626
H            5.16982725577575       -0.93270406584215       10.24431120542251
H           -4.01468229393290        2.04725084745705        1.53179068259967
H           -4.51740588000733        3.26951541914660        3.03019910270640
H           -4.87582544611218        1.46688987569326        2.88417473252125
H           -5.17314196111802        2.52675425765682        7.54413078145085
H           -4.69631640569089        4.31650944973381        6.55113540350760
H           -3.99705470775603        4.01003339510601        7.97336133786135
H           -0.80594053238857        8.02769455259300        1.03220618613604
H           -1.13600333081514        6.94054651094617       -0.17965023779508
H            0.59847266430839        7.09793155138018        0.55582092838370
116
 energy: -22.549906891042 gnorm: 0.612637354334 xtb: 6.6.1 (8d0f1dd)
C           -3.35482729044915        1.01918579185425       -0.07730512643975
C           -2.60999554527938       -0.02520577662222        0.61238267379694
C           -1.45287882089150        0.22418135877394        1.32391069408658
C           -0.88966482368951        1.51858799327235        1.12010948501796
C           -1.67974101420294        2.52849292028025        0.50776943036127
C           -2.89100975065195        2.25624008317622        0.07355120552190
C           -0.51065759655905       -0.65155183849121        1.90374390458423
C            0.78301394617454       -0.19663158767815        1.96089299614905
C            1.23554916402565        1.11470167086081        1.70089682126197
N            0.39194532349393        1.93021325602542        1.17484031068809
C           -0.70088151345799       -1.93419294054191        2.42402676615470
C            0.40730476276743       -2.81691997416118        2.62921588276486
N            1.70766707715735       -2.48281538398613        2.47036745074424
C            1.78927032206333       -1.20854478742588        2.27317380396443
C            3.07937720530581       -0.73706435210589        2.28167165983461
C            3.51024194204771        0.58565544570831        2.17145468217882
C            2.52793142195794        1.44401281415753        1.94047720163559
C           -1.95235702092404       -2.44461312036256        2.84377584393207
C           -2.20717272323505       -3.84382258326317        2.84634817434199
C           -1.01110592985181       -4.72087851553624        2.59470414177852
C            0.26365155894349       -4.20138778776864        2.75711464090790
O           -3.07713249398285       -1.68143594081654        3.36870639973040
O           -3.15205536634648       -1.35887853576293        0.20025423363430
C           -3.38204339130975        3.27389635907280       -0.82537270106905
C           -1.25707236811277       -6.08366985278242        2.22935109285107
H           -1.32935909013134        3.48162207656395        0.16159589489203
H           -4.21846056820544        0.70452529637336       -0.62601273350967
H            2.76847750550683        2.49671138888440        2.19611267707260
H            3.88313911856589       -1.47755368434386        2.45970631431844
H            1.01891455980715       -5.00643867737484        2.68199178880909
H           -3.03219444662155       -4.09461665229695        2.24490765766078
O           -3.72146632907888        4.42957328726181       -0.41259676447392
O           -3.82257935908564        2.90378740740349       -2.07520397773460
C           -4.55537434647527        4.01115413470900       -2.50019670779370
C            4.93111279527271        0.90818213673140        2.46329476433981
O            5.28875223514067        1.86446251930496        1.78081646355625
O            5.72356761431925        0.08055739408050        3.22451439849479
C            7.04019834853304        0.68664788288395        3.20536680409349
O           -2.04080683062827       -6.56858698632193        1.39298649564063
O           -0.51820945754275       -6.99713100096868        2.94992961484989
C           -1.11138074179863       -8.29122994659559        3.00718978015278
C           -4.09706709952216       -2.43140571255924        3.72126754863274
C           -2.15513507360597       -1.90507334404479       -0.44505143404157
H           -2.19459282967439       -8.13983845767321        3.14234460450143
H           -0.52513809385311       -8.95002292256258        3.79152471086293
H           -0.66898799029140       -8.82627092631417        2.08437257983981
H            7.11991929722330        1.74466681618722        2.68259048258786
H            7.69947349707448       -0.19840982607512        2.69554393599216
H            7.46510869692422        0.97879549229220        4.19607398468722
H           -1.16922576132972       -1.60776225333440        0.12261074884753
H           -2.04295661578420       -1.77232486852571       -1.49517529862912
H           -2.60647936105904       -2.83185783710637       -0.26960542983745
H           -3.72302337662231       -3.22578309360761        4.46010513285198
H           -4.40022185331094       -2.97918083350611        2.92189912259977
H           -4.83738655513971       -1.63169776587808        4.01308256269238
H           -4.97692116886839        4.40946980764864       -1.50849398939865
H           -5.55961819147178        3.67023942081829       -3.02669651217848
H           -3.72541467930336        4.72152302341740       -2.86133676820251
C           -2.13996323686506        4.02533719247893        2.91074676493295
C           -2.37233869150152        2.89280533702656        3.57552539830018
C           -1.41097547984663        2.46321436339820        4.44428207264755
C           -0.03950110549267        2.98809584845428        4.36559895429695
C            0.14088045270897        4.25360889731227        3.68952017077668
C           -0.89845569360638        4.70907693934557        2.85972108216383
C           -1.60161270907959        1.28498167757847        5.25488349785726
C           -0.53185470006133        0.41668817593013        5.43208763811502
C            0.79711992675699        1.11778031743816        5.30103729803642
N            1.02410880822672        2.32242835027291        4.85804994001412
C           -2.89536834853217        0.67337000666913        5.73745665781276
C           -2.99783763907282       -0.69463420395481        6.09979376938277
N           -1.77767697764272       -1.36884399724236        6.39626810096904
C           -0.65709541777636       -0.65384811370500        6.19042762253531
C            0.58913476494706       -1.33052065168722        6.64707413472542
C            1.64210042335456       -0.63512683555461        6.82723970615790
C            1.76962161359069        0.52370852935110        6.10709007931005
C           -4.25754770802064        1.32719927900762        6.24440628989297
C           -5.51683251396735        0.71665167225249        6.29083747744163
C           -5.41391688472619       -0.60317765539884        6.38322168665872
C           -4.22945837634096       -1.34358746380937        6.28866234055450
O           -4.51033828712060        2.73411374885830        6.22599035028583
O           -3.35219671193326        1.93546464787086        3.18828054596966
C           -0.68153572859920        5.74760221177835        1.85948186769870
C           -6.70387965076715       -1.34331804541735        5.92018460073124
H            0.59884591457819        5.09392117153200        4.16155906842224
H           -2.77441786198714        4.03902137129877        1.98639200697652
H            2.89842502783498        0.98623499314323        6.19014272284005
H            0.56319641896045       -2.45990817510184        6.81057953031110
H           -4.28448047799958       -2.40932738887693        6.38876506785747
H           -6.45935796412957        1.23741138051887        6.23619903712928
O            0.33922716703177        5.71030133159004        1.11052079421468
O           -1.62735568173920        6.79380638138321        2.08224302888753
C           -0.93074048513584        8.04578013244396        1.50381449815940
C            2.81942232791598       -1.21117192723290        7.45150063902788
O            2.84775227280339       -2.43812791016218        7.54402547089335
O            3.69019870741154       -0.40320850871327        8.15589537064236
C            4.76478755243702       -1.15034936320013        8.63444929018666
O           -7.72905299037458       -1.13790431537379        6.47342949441474
O           -6.79788528378364       -2.24019804260297        4.85740515742612
C           -8.14141552060308       -2.84483281005602        4.84324893699531
C           -4.63482569098329        3.21679509309350        7.46578759746470
C           -4.49933284118778        2.33568456158332        2.68829616652099
H           -8.92663641871566       -2.10135410560605        5.06471602509986
H           -8.05671324433095       -3.45708012330004        5.62862900426802
H           -8.32355927054163       -3.39388490012815        3.94291699874752
H            4.96677934606249       -2.07309040841113        8.04420959751950
H            4.57434348877639       -1.55017172028921        9.71689489905785
H            5.71097819860999       -0.58916466615989        8.75912682483616
H           -4.96442868860528        3.12761708794177        3.35199641080986
H           -5.24587215747885        1.51875599254324        2.51340370238545
H           -4.24748273938230        2.79560564712039        1.72019423156457
H           -4.15272540509770        2.57007150150538        8.14948382229208
H           -5.64119874498155        3.43942740057754        7.84269061438042
H           -3.96268570719912        4.17340622170320        7.39309967414052
H           -0.10874547471721        7.86148017610283        0.99308248358513
H           -0.62478382608903        8.49963701807094        2.51066562336781
H           -1.49743629746880        8.81592457804706        0.86829241289969
116
 energy: -22.564919903712 gnorm: 0.587601699570 xtb: 6.6.1 (8d0f1dd)
C           -2.55309740381016        0.32695093808706       -0.76804871958252
C           -1.57642654286180       -0.49215474771342       -0.39860693288286
C           -0.64175068758764       -0.19568083237435        0.62584574787226
C           -0.46218593941049        1.25223100553644        0.75969269460480
C           -1.42768050172115        2.16244886086110        0.28179928912036
C           -2.48423594494397        1.64826423161831       -0.46877076202113
C            0.30081978088460       -1.08873840504634        1.23808091449070
C            1.58823880124657       -0.69337260072258        1.46186770119318
C            1.65939482493670        0.71389520391569        1.72403998485083
N            0.71790261994772        1.57429551821322        1.30384103760146
C           -0.02290934803749       -2.47549939828584        1.93420347063087
C            0.94608615802554       -3.25119258968880        2.51878262640692
N            2.17915887203501       -2.75174950423496        2.54881276251133
C            2.62329730245818       -1.49909776233509        2.07781043972775
C            3.72732487480042       -0.90052868410564        2.70470864086892
C            3.80000850510424        0.47158256498784        2.70933653953088
C            2.67887406928474        1.24385931586259        2.52402015830051
C           -1.43294016340188       -2.92017172864647        1.97519238971731
C           -1.62149029275002       -4.21210909578881        2.41436741108579
C           -0.65103008728743       -5.05078189965908        2.99152811922630
C            0.63979120714147       -4.56979671525666        3.06474873210209
O           -2.53372344309214       -2.21614489536246        1.43026269274711
O           -1.72199198779746       -1.61085035760969       -1.29663686517989
C           -3.33037492455480        2.73384687238334       -1.10420351274795
C           -1.22112503139354       -6.40882317471522        3.61652214463220
H           -1.12712532867229        3.18862929812170        0.61565446853336
H           -3.33814084086674       -0.12675400302970       -1.45526185272973
H            2.91525174994398        2.36690060260245        2.40605804437633
H            4.39402124131299       -1.66316020105504        3.06170524276602
H            1.52927121630270       -5.14448288833274        3.44408321223217
H           -2.68250666212134       -4.57311148692085        2.44567185729912
O           -3.21860263143131        3.77717956482484       -0.43992100681249