116
 energy: -22.928061455056 gnorm: 0.329736929581 xtb: 6.6.1 (8d0f1dd)
C           -3.31122850772930        0.79849766164622       -0.92477639677520
C           -2.44380812530352       -0.12270372891954       -0.27661132624697
C           -1.41337090092821        0.39579727573559        0.56335275196199
C           -0.89266158675590        1.65801491088749        0.27377586709581
C           -1.72665675402493        2.51431363229076       -0.49448366572522
C           -2.95444148494349        2.13954154133227       -1.01494489940871
C           -0.74098268209890       -0.43411532818871        1.49825021926784
C            0.56872586496315        0.03782116815119        1.86248088067890
C            1.03782416582094        1.29402317993033        1.50887470833621
N            0.31238977034758        2.07067427098208        0.65193736800696
C           -1.29695700510141       -1.39996043042223        2.41574187746061
C           -0.38243517664656       -2.18060797534842        3.13232615520648
N            0.91308504082021       -1.90366887689689        3.30325166013478
C            1.37712470144904       -0.74872102533751        2.81811050966982
C            2.52149331701875       -0.17739833758153        3.39379298866852
C            2.95849061756259        1.02681208890480        2.95105897606587
C            2.24288949469137        1.78498308775960        2.03503020483770
C           -2.74860936222260       -1.74497937691422        2.38401158947411
C           -3.09416315450955       -2.91614440870436        3.00571134491758
C           -2.16786021984049       -3.77788778654213        3.63251872101904
C           -0.85708937311598       -3.40495313382985        3.68547234358092
O           -3.71994433332149       -0.94984598373544        1.67726658385724
O           -2.55702603277562       -1.47241711578389       -0.57241635275616
C           -3.84297843593025        3.13357444054366       -1.60938954875544
C           -2.68769581069131       -5.03867041417370        4.30484659386931
H           -1.39666850744143        3.51251503834900       -0.76806311868865
H           -4.27662633836220        0.55105838579656       -1.33106614114542
H            2.66329581305412        2.73912661909249        1.72562431984580
H            3.05775395548473       -0.69369546277216        4.16536137542516
H           -0.24710966264510       -4.12034095424229        4.22946223699121
H           -4.11477991332403       -3.04712728052358        3.03244694615357
O           -4.21824883374556        4.03433712717988       -0.87713382485991
O           -4.44510595673734        2.90643496899600       -2.81853501752979
C           -5.44216520282800        3.83300025693726       -3.02488532025093
C            4.23586651889298        1.50004220933226        3.59165660008449
O            5.05927614697201        0.66079890002952        3.91714215179376
O            4.47001334453535        2.86385149488593        3.72605651435371
C            5.79457498613219        3.08584475587818        4.15829123132174
O           -3.82227255313510       -5.27347675879771        4.16636005494405
O           -1.85023202017753       -5.79767454267276        5.06656077253571
C           -2.55119635829503       -6.86252441382958        5.62930343183426
C           -5.07197156564436       -1.42399175670916        1.58830531863830
C           -1.33089900128490       -2.23622472573986       -0.99264499351172
H           -2.54510546830388       -7.76426885143998        4.99136022291012
H           -3.57194749219491       -6.44405511486021        5.74196173723541
H           -2.09133598235598       -7.02043774843818        6.64022264233588
H            5.72707967266424        3.46798026205549        5.10135971236643
H            6.34060091246885        3.78468702308830        3.50069950143490
H            6.17933064298187        2.03010500085905        4.19342358084693
H           -0.91862729772622       -2.57650129080332       -0.01361370304871
H           -0.49769766914251       -1.60651221708571       -1.34094446550576
H           -1.52632419730509       -2.94569707152159       -1.75361447637286
H           -5.11788846557077       -2.41810833635233        1.17520213188926
H           -5.67929807973498       -0.69619639428435        1.04301666067831
H           -5.57598832326623       -1.42383358739762        2.57928294206544
H           -6.13050215934830        3.76035386975488       -2.23272855695873
H           -5.86615610071888        3.45938329385866       -4.02668959924245
H           -5.13479557532099        4.87790991548477       -2.98314551356402
C           -1.38192942069774        3.73616555005018        2.91232598411686
C           -1.84821468128685        2.59982427735607        3.49755545445181
C           -1.05946531454833        2.05730632010638        4.60922730982276
C            0.19893954712228        2.69376791964407        4.86302140881997
C            0.50425395911860        3.94630308659851        4.28768785650746
C           -0.26031777722226        4.46998310053134        3.25072669343212
C           -1.20488993561782        0.74454293276906        5.14851520323437
C           -0.06287609782692        0.02744069315890        5.60930570802864
C            1.19208754369866        0.71421540266195        5.78882868583885
N            1.19428660993148        2.06344359410476        5.62744624321596
C           -2.41361422770794        0.07928500213936        5.25249410304426
C           -2.45851584031083       -1.32662100968547        5.60237876023992
N           -1.29466212405906       -1.98318595734370        5.89916817085159
C           -0.14475655767527       -1.32117560077092        5.98824682881008
C            0.97209270935794       -1.98958449505532        6.53157704134458
C            2.21982707914082       -1.36973967291181        6.68703967237737
C            2.30561929262884       -0.09745313075593        6.26436900324455
C           -3.73018485967715        0.71367583494582        5.25810242262992
C           -4.89964478833448       -0.06184623426677        5.21204641615509
C           -4.82617965800088       -1.39228978090841        5.46901303780036
C           -3.67144193418464       -1.98914944386360        5.67265433266067
O           -3.75568638935321        2.07705011038914        5.52067969627343
O           -2.94192434743730        1.91263938797883        3.01658762327703
C            0.21273512614467        5.50086066357994        2.34765104514621
C           -6.06660304520411       -2.17604633098929        5.80641622556876
H            1.41756699010566        4.38133362238595        4.66974005703471
H           -1.82880610647429        4.11982501512100        2.06992133318584
H            3.26888037378556        0.32655662585251        6.31721410015598
H            0.87146188387207       -3.08471526305024        6.57830423410869
H           -3.67716811065157       -3.05999292755990        5.83019634570050
H           -5.77379677507622        0.43595144608221        4.71017130754348
O            1.34459852619901        5.82615848916894        2.44941456579099
O           -0.74718748219123        6.07961784856304        1.59848183464284
C           -0.21473095568964        7.24015934882472        1.05753806029483
C            3.53228080814219       -2.00967610361154        7.02506769044485
O            3.64093082622715       -3.14437803815732        7.50071391725347
O            4.56565258381079       -1.22937033368332        6.69086985080897
C            5.72579357310716       -1.80692399125161        7.22246151275881
O           -7.04801223588612       -1.95726935745904        5.14194115322235
O           -6.01514389321278       -2.93743591896022        6.94765316328794
C           -7.21292732384718       -3.62681918543340        7.15115816329978
C           -4.95459780685163        2.65960679932188        5.86868674392943
C           -3.68284113682406        2.59129188358641        2.05479246020704
H           -7.43119628931628       -4.22607794725959        6.20622607140901
H           -8.06548455146707       -2.91765848248592        7.29781126410398
H           -7.07314693247270       -4.33087306029711        7.91223421050944
H            6.57332189837178       -1.29353136199234        6.78341268688262
H            5.74663761932316       -2.84282155125561        6.88089468184451
H            5.69426191474290       -1.72781984964892        8.29460302186842
H           -4.10481209541493        3.44288266176275        2.60483747673152
H           -4.49244774344916        1.87419893016926        1.82433103764650
H           -3.18901540870812        2.85154642679373        1.06781919454921
H           -5.55414326821421        2.76698137191684        4.93950725322359
H           -4.78658370641210        3.62090640967288        6.25983200635257
H           -5.43485580473958        1.97242995129449        6.65265772412460
H            0.89164886030839        7.38838561720231        1.13776105146914
H           -0.62894889903848        8.04195665205089        1.64837664327952
H           -0.59282546386754        7.45699159724320        0.03719083132488
116
 energy: -22.582657547712 gnorm: 0.523050912323 xtb: 6.6.1 (8d0f1dd)
C           -2.56942334496218        0.13151269154967       -2.25827263430972
C           -2.33998097455559       -0.52478493189672       -1.05012216464145
C           -1.64279671771926        0.21335659033509       -0.08151185561709
C           -1.09242844991570        1.51201353341325       -0.42673163475751
C           -1.39906441673976        2.15640593413653       -1.73811998700144
C           -2.59595882794709        1.59515012363346       -2.34013155808110
C           -1.10662637814721       -0.20572538829496        1.17914149733968
C            0.15171545093176        0.35063899380106        1.63704517249174
C            0.62748735047093        1.55410501619490        1.14345636217898
N           -0.08585494201660        2.11436416730227        0.17824404407360
C           -1.55144970942021       -1.17542552384024        2.10611795791256
C           -0.67800154602343       -1.75429688936324        3.09994389520927
N            0.65958172131347       -1.41995116960731        3.21484619722203
C            1.01611080139465       -0.25340659260340        2.64720633484817
C            2.05696421866117        0.47610749239983        3.23949933583581
C            2.44901604935409        1.70923502019978        2.74426039269335
C            1.74961489486102        2.25732182910426        1.64706597252803
C           -2.83903296552861       -1.70247601430668        2.08136447644719
C           -2.95783373324771       -3.05661660091733        2.55136507457601
C           -2.20480912310508       -3.55837695348748        3.62316464790181
C           -1.05646301843918       -2.79979663553586        3.85839431231815
O           -3.88109157830616       -1.13152957418065        1.29175370940277
O           -2.60498869463886       -1.91710108762584       -0.84122567547965
C           -3.59249637546040        2.55006863555301       -3.05985402033451
C           -2.64889211072868       -4.76338849492720        4.16440926131136
H           -1.20757938131949        3.27039563110573       -1.92248556126535
H           -3.23084782749878       -0.41035760837496       -2.98911744863833
H            1.77439171258330        3.43559712218737        1.43637379063731
H            2.50513972790185        0.10639022201408        4.12102940012939
H           -0.50617065066376       -3.03484477404245        4.71408731232123
H           -3.87528984720435       -3.43095548534182        2.35229131797072
O           -2.95308232596798        3.50458498152903       -3.43226193103032
O           -4.76670883032334        2.12842019465476       -3.60974949631170
C           -5.29818893845604        2.75192569905159       -4.67150245214785
C            3.56543402631927        2.29023590854907        3.60085175537017
O            3.80804519247282        2.24190589186762        4.77977952140983
O            4.30288983565524        3.13711216101470        2.77541750787271
C            5.01257602008411        3.91704950846282        3.65546301475810
O           -3.31374355423300       -5.58171891648560        3.54144012369913
O           -2.08109391024216       -5.21314658899818        5.43760963677304
C           -3.15159868960278       -5.88858779053582        6.16744886491113
C           -4.94988815119216       -2.03052813506767        0.77695134593047
C           -1.45318787270784       -2.76312020758084       -1.07869068282095
H           -2.94916533992562       -6.89576105828568        6.48641878093809
H           -3.95615758290867       -5.95674928141599        5.57586539603214
H           -3.22591551642263       -5.28757972261623        7.06133846810891
H            5.56767564433435        3.67272874905893        4.49854792373798
H            4.43678641126461        4.70880299006766        3.94074196561705
H            5.57762245400359        4.59879939022777        2.91514525239471
H           -1.39165860179700       -3.15342851307728       -2.01118678999390
H           -1.51104861862676       -3.51563771617878       -0.29921419353978
H           -0.44051157216275       -2.27574446646565       -1.11768321241317
H           -5.99618694789669       -1.81644460901259        1.09523010409363
H           -4.56588167254014       -3.12748838191407        0.93236836683771
H           -5.05748011174263       -1.73327570583987       -0.24592270573182
H           -4.77884354846361        3.18183505742615       -5.55752216750830
H           -5.73412136611609        3.72673429419972       -4.29389481331652
H           -5.99870801044833        2.06212135540478       -5.13281099816080
C           -1.37743711527830        3.85121474070733        3.93623494405184
C           -1.75779157114418        2.59382054489388        4.61502419688985
C           -1.03517705193546        2.04699361075668        5.76092977401416
C            0.19058138929890        2.76724602700813        5.98530121009664
C            0.66666048426875        3.89492008628134        5.23529281791309
C           -0.15401432845751        4.46673821208270        4.22341918492477
C           -1.36334839918249        0.75085347071963        6.38835851213012
C           -0.11270821291052        0.01865624707204        6.73211192023850
C            1.08532283881065        0.85800784115531        6.89965373205350
N            1.15254564437808        2.18703808576588        6.90530890511932
C           -2.54415770874245        0.05022512835903        6.78044342022431
C           -2.43746789114224       -1.39153337110440        6.51881282568143
N           -1.28215574694962       -2.09295245859504        6.50256137237925
C           -0.11657150260920       -1.42864355796743        6.76651004939611
C            1.17589587743857       -2.03151639304747        6.77312525812299
C            2.36670428719761       -1.33322442880191        6.70221039788339
C            2.20964877670655        0.06287772348390        7.00204423323395
C           -3.78508886027219        0.60960942484931        7.30816677758599
C           -4.96469443678904       -0.14549406972410        6.95559695037186
C           -4.86853904137682       -1.42928349891927        6.40472960931494
C           -3.64149036114239       -2.01556508350626        6.30362237219677
O           -3.94452328498689        1.95056083234251        7.64858036584679
O           -2.60060572496898        1.54666891657392        4.12132277040036
C            0.34898011856209        5.33194452449498        3.12434967125492
C           -6.12018304143635       -1.96365190184240        6.13509959045119
H            1.69690614826052        4.45479617506187        5.21193643016267
H           -1.67193029122557        3.82259405122269        2.93241001795109
H            3.21483304913188        0.62106907531678        6.98232412716211
H            1.43604171745717       -3.14135625343386        6.60683431912631
H           -3.61156876504645       -3.09720982811738        5.90536686955600
H           -5.88641378859215        0.45014889952727        6.68336772410331
O            1.56948533579594        5.49142890075517        2.89518523632964
O           -0.59875503266882        5.51366762719587        2.22274228563975
C           -0.07085922358057        6.54619550931455        1.39894825777086
C            3.79496999716558       -1.86464791816570        6.35417878478224
O            4.29662362707080       -2.67423394652207        7.13677920037790
O            4.33208406626136       -1.54079924081206        5.10886670112638
C            5.50729415032379       -2.10652896002433        5.10320295890875
O           -7.03274726317772       -1.37639765732918        6.72518814417467
O           -6.37399383469871       -2.95964872798244        5.14780072551660
C           -7.63221578063370       -2.94004827787918        4.58888083040665
C           -2.85193726567902        2.53452291667486        8.30230554928493
C           -3.07928934335123        1.64351465463212        2.76994146708590
H           -8.25847423601849       -2.14273210987475        5.04448325052135
H           -8.16240628565389       -3.82505489913018        4.68632410340574
H           -7.62287892013834       -2.92837840594289        3.51036723792220
H            5.96545336475567       -2.11713574697560        6.18897949921244
H            6.07862734331809       -1.61606541974254        4.25445788066174
H            5.59353506848174       -3.21880745736823        4.59730622894434
H           -3.38762506683478        2.68189505984450        2.84367193757085
H           -3.92297956263884        0.96709881772629        2.68320322275689
H           -2.47985590124617        1.48218669883006        1.89053831193105
H           -2.22936432676658        2.87751648335178        7.41678113049156
H           -2.26557291374158        1.73572471147248        8.78688934244759
H           -3.39180176574787        3.15778982725081        9.07616598953435
H            0.75360293745077        7.14288582607001        1.88396922824160
H           -1.03161062014895        7.10770693594171        1.03848278534753
H            0.44710549418352        6.24441277690961        0.35701885211256
116
 energy: -22.538372589883 gnorm: 0.584502014623 xtb: 6.6.1 (8d0f1dd)
C           -2.58820816509002        0.26697022774169       -2.90422247717804
C           -2.01641980895453       -0.29009015540459       -1.79568418726701
C           -1.64219540206595        0.60039723301115       -0.66714433085435
C           -1.26394708322360        1.94945104191787       -1.20679999233362
C           -1.98135137034098        2.59060085149399       -2.30117207945776
C           -2.50426389948253        1.59115541222966       -3.08006451417010
C           -1.14759868343724        0.12262717860319        0.57519637055523
C           -0.11178428419829        0.76662825455707        1.13800007224082
C            0.17335060187347        2.11622101060385        0.65401029933020
N           -0.49039391105619        2.73056374287234       -0.33275475891353
C           -1.59190815048221       -0.91908200612928        1.37947768934837
C           -0.74141043261931       -1.38695441076737        2.51947203754156
N            0.29692525592812       -0.69933999876690        2.94932477049176
C            0.61990960843335        0.44548681176668        2.30844848583012
C            1.91405389993687        1.11886252802801        2.66013338687186
C            1.98095074338387        2.39994638760819        2.26348266018607
C            1.02666981287790        2.91376938133318        1.43892797578585
C           -2.90351598349613       -1.57243207365705        1.14453248902598
C           -3.21506425788676       -2.65505865662532        1.96915708820609
C           -2.32074131519970       -3.36037854197147        2.85890702489834
C           -1.13197799233987       -2.72538347872033        3.07628399649332
O           -3.76161967757249       -0.98657361149201        0.07562565141583
O           -1.95368792617752       -1.76901855761154       -1.83785172089478
C           -3.18529778942365        1.98418533629270       -4.37384798349860
C           -2.80877017254368       -4.50156199907305        3.72906467424577
H           -1.57380263425604        3.62906511793808       -2.65232755639197
H           -2.72468580969292       -0.49167339788712       -3.74321379984844
H            1.26294128743573        3.99478059969192        1.09012647248353
H            2.50788786451550        0.64381004442812        3.38871697407950
H           -0.58264732325825       -3.36892163113649        3.75166173674576
H           -4.19759504937002       -2.94670894221337        2.21384137396794
O           -3.23291703891943        3.15287354146381       -4.65831640247003
O           -3.96785860797292        0.93994360224147       -5.04083302650595
C           -3.69183865524944        0.89392659730114       -6.32992821183334
C            3.26426374277864        3.21830158808016        2.46391781485274
O            4.42737013443752        2.78618788705026        2.35243923123797
O            3.14511786731072        4.44526255603679        3.02150202406503
C            4.24495736596746        5.16566459614221        3.45720153542136
O           -3.90986282479831       -4.77343049297605        3.37668114521227
O           -2.05016761433784       -4.90041712001525        4.89091491495409
C           -2.67503576431208       -5.96428230329836        5.39579059572991
C           -4.99952683898067       -1.80140756802608       -0.17850360198076
C           -0.66232985281365       -2.31990459997959       -2.16478476265863
H           -2.99434613121771       -6.75958647157341        4.73459520898166
H           -3.66470227985981       -5.87187752378523        6.01785289352913
H           -1.78320750947201       -6.46174946762522        5.94750916016940
H            5.20903527979467        4.62620659939221        3.38680528226170
H            4.11956312314183        5.61882194321590        4.29524497876110
H            4.37513240379828        6.05491639039156        2.80469601849220
H           -0.39658241076799       -2.16450305087863       -1.15304932194293
H           -0.28480471780940       -1.80441002470060       -2.89845999994705
H           -0.87515507856529       -3.40428218691677       -2.47663300526426
H           -5.86626677880650       -1.15063185625659        0.11420692822135
H           -5.19803915815296       -2.63999959710230        0.66870316473371
H           -5.26406686441782       -2.35015926198192       -1.10793007733895
H           -4.05662270360167        1.82129051109345       -6.77734028210405
H           -4.35848814991779        0.19736803123187       -6.89032685303475
H           -2.61715781940647        0.89353168307434       -6.20488942426344
C           -1.62018137776477        3.65996554167744        4.49361264028541
C           -1.80132133718562        2.35169692719117        4.85681390804168
C           -0.78424222809136        1.73228660928554        5.82492924820975
C            0.48570841636380        2.18686875266907        5.73797434806331
C            0.62470586875093        3.44552132592150        5.11330020556482
C           -0.42884716853485        4.31743783861623        4.81019978667072
C           -0.94506085242576        0.57103970074308        6.70834266665134
C            0.14186442850424       -0.33802591405099        6.98277480087716
C            1.47677530475419        0.08410279564667        6.50382164428978
N            1.58491086463935        1.36834361362592        5.95630736381703
C           -2.23227336138670        0.08776713162172        6.92190510761962
C           -2.36517709403008       -1.34839063681802        7.18336476740865
N           -1.39328424763774       -1.99344238703304        7.76933817975199
C           -0.17502427386382       -1.55446861088879        7.42309150976026
C            0.98059271240862       -2.36501325457099        7.60554745257120
C            2.27666413759223       -2.12193108537627        7.18154809039178
C            2.58219032661319       -0.75710977246472        6.76914985889088
C           -3.49056619093154        0.86657773171138        6.90600366199872
C           -4.77688169400130        0.17777524888013        6.70477288356544
C           -4.72407466574727       -1.20277313498768        6.81080904197518
C           -3.62579358468838       -1.81899676111218        7.15883541258193
O           -3.49841044387362        2.27679279842711        6.94677602738635
O           -3.11497630522186        1.96067464553435        4.58410458327666
C           -0.01269496498880        5.70785383585511        4.30705667921084
C           -5.84293150785756       -2.17468083568909        7.27815237717537
H            1.57947616352737        3.68320291924881        4.76215877992461
H           -2.53727657339158        4.31812719974386        4.58415701217128
H            3.62790115092664       -0.35033129193658        6.72523377133434
H            0.67720356366875       -3.38858389114856        7.96230534205315
H           -3.80310455906365       -2.87151908139415        7.36296340414884
H           -5.56353045643872        0.73299866053752        6.33572254884732
O            0.34659888661919        6.64694013119003        5.07117840705142
O           -0.34636162849984        5.83443503170314        3.02342092181841
C           -0.02477913718374        7.18323740514219        2.60139343698844
C            3.41097964214708       -3.06636478624342        7.20860541747382
O            3.29850412504782       -4.13145077500764        7.86691431222256
O            4.53903872823019       -2.83026221712546        6.42819531107076
C            5.53616613966299       -4.01491102929166        6.58467142819892
O           -5.79132383108907       -3.41030529492749        7.10095024202432
O           -6.69932903415677       -1.61272079469968        8.20417379144993
C           -7.48454497549576       -2.72062812841555        8.67175145772384
C           -3.02376466257186        2.76979992535961        8.26518735974182
C           -3.23842570435340        0.95255623701197        3.70314272183487
H           -6.75593682376812       -3.10135207215389        9.41163151396358
H           -7.65432192738794       -3.53930904482247        7.92483907637035
H           -8.45891826497645       -2.22996602819475        9.04839904773169
H            5.83430447633674       -3.94783163380318        5.62096673112786
H            5.06666397478774       -5.02920437399419        6.58584609200521
H            6.32483697538626       -3.86448251114937        7.29251174784366
H           -2.95846150859594       -0.13174821099725        3.98437319256981
H           -2.41165862216747        1.12482364383697        2.92465158260934
H           -4.18901432228103        1.24603538943210        3.25955340844755
H           -3.38324380969341        2.00548527291732        9.06906625421855
H           -3.46853077899505        3.74095756414779        8.51405506726589
H           -2.00292490003851        2.58798314924650        8.09416844596033
H            0.23906100991167        8.03701819253883        3.47385999630342
H           -0.98912844654830        7.62311232306179        2.35589833771538
H            0.88358398257959        7.19268531431592        1.94905433690837
116
 energy: -22.628568449541 gnorm: 0.544729651328 xtb: 6.6.1 (8d0f1dd)
C           -1.90941505606964       -0.17278716616620       -3.58510700604287
C           -1.64813003523415       -0.77565428189696       -2.30773818602055
C           -1.11234412149709        0.40261255935183       -1.53485542450188
C           -0.72486032551464        1.73412667543973       -1.84225648066162
C           -1.25437866080044        2.18655231977883       -3.10572991288262
C           -1.77108937525075        1.19475862559039       -3.91781653074421
C           -0.59464887338736        0.10601381267216       -0.13600191871358
C            0.29112755429703        1.06253655182402        0.56448460135326
C            0.73777427032624        2.29463562310656       -0.13013291589084
N            0.31933271436343        2.57494005983922       -1.41700754203303
C           -1.15712923107212       -0.92159645515960        0.72767594036557
C           -0.61985499918390       -1.11790219202547        2.03983589433528
N            0.06825337449260       -0.12870541655954        2.74764452946823
C            0.57237766969942        0.84498011674724        1.93736090469488
C            1.35687362320348        1.81104922021432        2.63264410928735
C            1.70954856188040        3.09899676163701        1.97705460232375
C            1.64005985928263        3.21466186103846        0.55065805140326
C           -2.44476222643171       -1.50403676215448        0.56221818497627
C           -2.92862095421739       -2.56560006790882        1.39819640836619
C           -2.01061211929339       -2.94437505542911        2.42078079298210
C           -1.02062530911649       -2.07517632717173        2.90503593840823
O           -3.29516366352105       -0.79029688266695       -0.28206147099463
O           -1.46467887063386       -2.18735064449923       -2.06038868306510
C           -2.28069455564228        1.61192320037511       -5.33291082811928
C           -2.45522231710529       -4.09545349560148        3.42748485298359
H           -1.09096928627403        3.13945937826704       -3.39814003695422
H           -2.33624969647236       -0.72674186182265       -4.36260076780516
H            1.72372037088154        4.15973175653299        0.06615885967602
H            1.21977368673175        1.87461813200346        3.63754069083105
H           -0.77948557431126       -2.04490559570655        3.96391057493825
H           -3.91317425195224       -3.06291022283580        1.30819488462157
O           -1.56558557022422        2.23145950342624       -6.14086556973512