      -----------------------------------------------------------      
     |                   =====================                   |     
     |                           x T B                           |     
     |                   =====================                   |     
     |                         S. Grimme                         |     
     |          Mulliken Center for Theoretical Chemistry        |     
     |                    University of Bonn                     |     
      -----------------------------------------------------------      

   * xtb version 6.6.1 (8d0f1dd) compiled by 'runner@Mac-1690902418499.local' on 2023-08-01

   xtb is free software: you can redistribute it and/or modify it under
   the terms of the GNU Lesser General Public License as published by
   the Free Software Foundation, either version 3 of the License, or
   (at your option) any later version.
   
   xtb is distributed in the hope that it will be useful,
   but WITHOUT ANY WARRANTY; without even the implied warranty of
   MERCHANTABILITY or FITNESS FOR A PARTICULAR PURPOSE.  See the
   GNU Lesser General Public License for more details.
   
   Cite this work as:
   * C. Bannwarth, E. Caldeweyher, S. Ehlert, A. Hansen, P. Pracht,
     J. Seibert, S. Spicher, S. Grimme, WIREs Comput. Mol. Sci., 2020, 11,
     e01493. DOI: 10.1002/wcms.1493
   
   for GFN2-xTB:
   * C. Bannwarth, S. Ehlert and S. Grimme., J. Chem. Theory Comput., 2019,
     15, 1652-1671. DOI: 10.1021/acs.jctc.8b01176
   for GFN1-xTB:
   * S. Grimme, C. Bannwarth, P. Shushkov, J. Chem. Theory Comput., 2017,
     13, 1989-2009. DOI: 10.1021/acs.jctc.7b00118
   for GFN0-xTB:
   * P. Pracht, E. Caldeweyher, S. Ehlert, S. Grimme, ChemRxiv, 2019, preprint.
     DOI: 10.26434/chemrxiv.8326202.v1
   for GFN-FF:
   * S. Spicher and S. Grimme, Angew. Chem. Int. Ed., 2020, 59, 15665-15673.
     DOI: 10.1002/anie.202004239
   
   for ALPB and GBSA implicit solvation:
   * S. Ehlert, M. Stahn, S. Spicher, S. Grimme, J. Chem. Theory Comput.,
     2021, 17, 4250-4261. DOI: 10.1021/acs.jctc.1c00471
   
   for DFT-D4:
   * E. Caldeweyher, C. Bannwarth and S. Grimme, J. Chem. Phys., 2017,
     147, 034112. DOI: 10.1063/1.4993215
   * E. Caldeweyher, S. Ehlert, A. Hansen, H. Neugebauer, S. Spicher,
     C. Bannwarth and S. Grimme, J. Chem. Phys., 2019, 150, 154122.
     DOI: 10.1063/1.5090222
   * E. Caldeweyher, J.-M. Mewes, S. Ehlert and S. Grimme, Phys. Chem. Chem. Phys.
     2020, 22, 8499-8512. DOI: 10.1039/D0CP00502A
   
   for sTDA-xTB:
   * S. Grimme and C. Bannwarth, J. Chem. Phys., 2016, 145, 054103.
     DOI: 10.1063/1.4959605
   
   in the mass-spec context:
   * V. Asgeirsson, C. Bauer and S. Grimme, Chem. Sci., 2017, 8, 4879.
     DOI: 10.1039/c7sc00601b
   * J. Koopman and S. Grimme, ACS Omega 2019, 4, 12, 15120-15133.
     DOI: 10.1021/acsomega.9b02011
   
   for metadynamics refer to:
   * S. Grimme, J. Chem. Theory Comput., 2019, 155, 2847-2862
     DOI: 10.1021/acs.jctc.9b00143
   
   for SPH calculations refer to:
   * S. Spicher and S. Grimme, J. Chem. Theory Comput., 2021, 17, 1701-1714
     DOI: 10.1021/acs.jctc.0c01306
   
   with help from (in alphabetical order)
   P. Atkinson, C. Bannwarth, F. Bohle, G. Brandenburg, E. Caldeweyher
   M. Checinski, S. Dohm, S. Ehlert, S. Ehrlich, I. Gerasimov, C. Hölzer
   A. Katbashev, J. Koopman, C. Lavigne, S. Lehtola, F. März, M. Müller,
   F. Musil, H. Neugebauer, J. Pisarek, C. Plett, P. Pracht, F. Pultar,
   J. Seibert, P. Shushkov, S. Spicher, M. Stahn, M. Steiner, T. Strunk,
   J. Stückrath, T. Rose, and J. Unsleber
   
 * started run on 2024/11/14 at 13:18:23.840     

           -------------------------------------------------
          |                Calculation Setup                |
           -------------------------------------------------

          program call               : xtb Verdazyl4.mol --opt --gfn2 --chrg -1 --uhf 0 --tight
          coordinate file            : Verdazyl4.mol
          omp threads                :                     8

   ID    Z sym.   atoms
    1    6 C      1-25, 29, 33-36, 39, 40, 42-57
    2   35 Br     26
    3    7 N      27, 28, 30, 31, 37
    4    8 O      32, 41
    5   14 Si     38
    6    1 H      58-96
########################################################################
[WARNING] Please study the warnings concerning your input carefully
-1- prog_main_parseArguments: Unknown option '--tight' provided
########################################################################

           -------------------------------------------------
          |                 G F N 2 - x T B                 |
           -------------------------------------------------

        Reference                      10.1021/acs.jctc.8b01176
      * Hamiltonian:
        H0-scaling (s, p, d)           1.850000    2.230000    2.230000
        zeta-weighting                 0.500000
      * Dispersion:
        s8                             2.700000
        a1                             0.520000
        a2                             5.000000
        s9                             5.000000
      * Repulsion:
        kExp                           1.500000    1.000000
        rExp                           1.000000
      * Coulomb:
        alpha                          2.000000
        third order                    shell-resolved
        anisotropic                    true
        a3                             3.000000
        a5                             4.000000
        cn-shift                       1.200000
        cn-exp                         4.000000
        max-rad                        5.000000

q/qsh data taken from xtbrestart
CAMM data taken from xtbrestart

          ...................................................
          :                      SETUP                      :
          :.................................................:
          :  # basis functions                 279          :
          :  # atomic orbitals                 277          :
          :  # shells                          155          :
          :  # electrons                       280          :
          :  max. iterations                   250          :
          :  Hamiltonian                  GFN2-xTB          :
          :  restarted?                       true          :
          :  GBSA solvation                  false          :
          :  PC potential                    false          :
          :  electronic temp.          300.0000000     K    :
          :  accuracy                    1.0000000          :
          :  -> integral cutoff          0.2500000E+02      :
          :  -> integral neglect         0.1000000E-07      :
          :  -> SCF convergence          0.1000000E-05 Eh   :
          :  -> wf. convergence          0.1000000E-03 e    :
          :  Broyden damping             0.4000000          :
          ...................................................

 iter      E             dE          RMSdq      gap      omega  full diag
   1   -153.2616195 -0.153262E+03  0.289E+00    1.45       0.0  T
   2   -152.3338501  0.927769E+00  0.329E+00    0.24       1.0  T
   3   -152.1792162  0.154634E+00  0.193E+00    0.11       1.0  T
   4   -152.4235535 -0.244337E+00  0.287E+00    0.45       1.0  T
   5   -153.3045276 -0.880974E+00  0.199E+00    0.19       1.0  T
   6   -153.2850130  0.195146E-01  0.174E+00    0.65       1.0  T
   7   -153.3033272 -0.183141E-01  0.150E+00    0.82       1.0  T
   8   -153.3149092 -0.115821E-01  0.128E+00    0.60       1.0  T
   9   -153.3250229 -0.101137E-01  0.965E-01    0.26       1.0  T
  10   -153.3373832 -0.123604E-01  0.733E-01    0.09       1.0  T
  11   -153.3376106 -0.227326E-03  0.732E-01    0.09       1.0  T
  12   -153.2581046  0.795060E-01  0.884E-01    0.03       1.0  T
  13   -153.3414701 -0.833655E-01  0.531E-01    0.09       1.0  T
  14   -153.3438808 -0.241078E-02  0.351E-01    0.08       1.0  T
  15   -153.3488102 -0.492935E-02  0.221E-01    0.10       1.0  T
  16   -153.0470670  0.301743E+00  0.235E+00    0.02       1.0  T
  17   -153.3499952 -0.302928E+00  0.143E-01    0.14       1.0  T
  18   -153.3441582  0.583696E-02  0.434E-01    0.08       1.0  T
  19   -153.3510804 -0.692221E-02  0.219E-01    0.10       1.0  T
  20   -153.3529252 -0.184478E-02  0.760E-02    0.11       1.0  T
  21   -153.3532138 -0.288600E-03  0.210E-02    0.12       1.0  T
  22   -153.3532705 -0.567085E-04  0.119E-02    0.11       1.0  T
  23   -153.3532962 -0.256514E-04  0.370E-03    0.11       2.8  T
  24   -153.3532978 -0.167481E-05  0.399E-03    0.11       2.6  T
  25   -153.3532983 -0.417435E-06  0.194E-03    0.11       5.3  T
  26   -153.3532921  0.617286E-05  0.115E-02    0.11       1.0  T
  27   -153.3532941 -0.203205E-05  0.943E-03    0.11       1.1  T
  28   -153.3532982 -0.408646E-05  0.269E-03    0.11       3.8  T
  29   -153.3532981  0.970014E-07  0.272E-03    0.11       3.8  T
  30   -153.3532986 -0.474024E-06  0.297E-04    0.11      34.4  T
  31   -153.3532986  0.444820E-08  0.620E-04    0.11      16.5  T

   *** convergence criteria satisfied after 31 iterations ***

         #    Occupation            Energy/Eh            Energy/eV
      -------------------------------------------------------------
         1        2.0000           -0.7560282             -20.5726
       ...           ...                  ...                  ...
       134        2.0000           -0.2832354              -7.7072
       135        2.0000           -0.2820436              -7.6748
       136        2.0000           -0.2772051              -7.5431
       137        2.0000           -0.2765355              -7.5249
       138        2.0000           -0.2722416              -7.4081
       139        2.0000           -0.2299659              -6.2577
       140        1.7115           -0.1988509              -5.4110 (HOMO)
       141        0.1455           -0.1947416              -5.2992 (LUMO)
       142        0.1430           -0.1947238              -5.2987
       143        0.0000           -0.1861630              -5.0658
       144        0.0000           -0.1820344              -4.9534
       145                         -0.1587637              -4.3202
       ...                                ...                  ...
       277                          1.0070410              27.4030
      -------------------------------------------------------------
                  HL-Gap            0.0041092 Eh            0.1118 eV
             Fermi-level           -0.1971595 Eh           -5.3650 eV

 SCC (total)                   0 d,  0 h,  0 min,  1.906 sec
 SCC setup                      ...        0 min,  0.000 sec (  0.012%)
 Dispersion                     ...        0 min,  0.001 sec (  0.049%)
 classical contributions        ...        0 min,  0.000 sec (  0.013%)
 integral evaluation            ...        0 min,  0.004 sec (  0.236%)
 iterations                     ...        0 min,  1.872 sec ( 98.219%)
 molecular gradient             ...        0 min,  0.027 sec (  1.432%)
 printout                       ...        0 min,  0.001 sec (  0.039%)

         :::::::::::::::::::::::::::::::::::::::::::::::::::::
         ::                     SUMMARY                     ::
         :::::::::::::::::::::::::::::::::::::::::::::::::::::
         :: total energy            -151.193084357112 Eh    ::
         :: gradient norm              0.253159138805 Eh/a0 ::
         :: HOMO-LUMO gap              0.111817454603 eV    ::
         ::.................................................::
         :: SCC energy              -153.353298585062 Eh    ::
         :: -> isotropic ES            0.170790148246 Eh    ::
         :: -> anisotropic ES          0.025246884468 Eh    ::
         :: -> anisotropic XC          0.076974990361 Eh    ::
         :: -> dispersion             -0.144013459205 Eh    ::
         :: repulsion energy           2.157772862796 Eh    ::
         :: add. restraining           0.000000000000 Eh    ::
         :: total charge              -1.000000745809 e     ::
         :::::::::::::::::::::::::::::::::::::::::::::::::::::

      ----------------------------------------------------------- 
     |                   =====================                   |
     |                        A N C O P T                        |
     |                   =====================                   |
     |               Approximate Normal Coordinate               |
     |                Rational Function Optimizer                |
      ----------------------------------------------------------- 

          ...................................................
          :                      SETUP                      :
          :.................................................:
          :   optimization level            normal          :
          :   max. optcycles                   288          :
          :   ANC micro-cycles                  20          :
          :   degrees of freedom               282          :
          :.................................................:
          :   RF solver                   davidson          :
          :   write xtbopt.log                true          :
          :   linear?                        false          :
          :   energy convergence         0.5000000E-05 Eh   :
          :   grad. convergence          0.1000000E-02 Eh/α :
          :   maxmium RF displ.          1.0000000          :
          :   Hlow (freq-cutoff)         0.1000000E-01      :
          :   Hmax (freq-cutoff)         5.0000000          :
          :   S6 in model hess.         20.0000000          :
          ...................................................

generating ANC from model Hessian ...
Using Lindh-Hessian (1995)
 Shifting diagonal of input Hessian by    1.0017250205747444E-002
 Lowest  eigenvalues of input Hessian
    0.010000    0.000000    0.000000    0.000000    0.000000    0.000000
    0.000000    0.010028    0.010043    0.010053    0.010134    0.010141
    0.010317    0.010531    0.010580    0.010662    0.010700    0.010797
 Highest eigenvalues
    1.994487    2.029146    2.074090    2.148978    2.205370    2.292589


........................................................................
.............................. CYCLE    1 ..............................
........................................................................

 iter      E             dE          RMSdq      gap      omega  full diag
   1   -153.3532986 -0.153353E+03  0.665E-04    0.11       0.0  T
   2   -153.3532887  0.987126E-05  0.121E-02    0.11       1.0  T
   3   -153.3532981 -0.941659E-05  0.226E-03    0.11       4.5  T
   4   -153.3532985 -0.378611E-06  0.129E-03    0.11       7.9  T
   5   -153.3532986 -0.449758E-07  0.926E-04    0.11      11.0  T
   6   -153.3532986 -0.384423E-07  0.490E-04    0.11      20.8  T
     SCC iter.                  ...        0 min,  0.298 sec
     gradient                   ...        0 min,  0.028 sec
 * total energy  :  -151.1930844 Eh     change       -0.6303367E-08 Eh
   gradient norm :     0.2531633 Eh/α   predicted     0.0000000E+00 (-100.00%)
   displ. norm   :     0.6304739 α      lambda       -0.9338046E-01
   maximum displ.:     0.2064204 α      in ANC's #38, #43, #40, ...

........................................................................
.............................. CYCLE    2 ..............................
........................................................................

 iter      E             dE          RMSdq      gap      omega  full diag
   1   -153.4706638 -0.153471E+03  0.441E-01    0.19       0.0  T
   2   -152.5410883  0.929576E+00  0.395E+00    0.35       1.0  T
   3   -153.2233506 -0.682262E+00  0.116E+00    0.07       1.0  T
   4   -153.4634990 -0.240148E+00  0.417E-01    0.38       1.0  T
   5   -153.4767896 -0.132905E-01  0.260E-01    0.16       1.0  T
   6   -153.4719934  0.479613E-02  0.329E-01    0.16       1.0  T
   7   -153.4746871 -0.269367E-02  0.290E-01    0.09       1.0  T
   8   -153.4755239 -0.836777E-03  0.254E-01    0.09       1.0  T
   9   -153.4790787 -0.355483E-02  0.156E-01    0.11       1.0  T
  10   -153.4801799 -0.110113E-02  0.451E-02    0.11       1.0  T
  11   -153.4805485 -0.368608E-03  0.230E-02    0.12       1.0  T
  12   -153.4805831 -0.346755E-04  0.344E-03    0.12       3.0  T
  13   -153.4805649  0.182338E-04  0.187E-02    0.12       1.0  T
  14   -153.4805714 -0.648059E-05  0.847E-03    0.12       1.2  T
  15   -153.4805788 -0.743969E-05  0.783E-03    0.12       1.3  T
  16   -153.4805811 -0.228697E-05  0.637E-03    0.12       1.6  T
  17   -153.4805829 -0.181158E-05  0.292E-03    0.12       3.5  T
  18   -153.4805838 -0.836497E-06  0.110E-03    0.12       9.3  T
  19   -153.4805840 -0.199622E-06  0.210E-04    0.12      48.6  T
  20   -153.4805840 -0.664329E-09  0.197E-04    0.12      51.7  T
     SCC iter.                  ...        0 min,  0.798 sec
     gradient                   ...        0 min,  0.027 sec
 * total energy  :  -151.2665671 Eh     change       -0.7348278E-01 Eh
   gradient norm :     0.1262698 Eh/α   predicted    -0.6534704E-01 ( -11.07%)
   displ. norm   :     0.7487461 α      lambda       -0.5797491E-01
   maximum displ.:     0.2847197 α      in ANC's #38, #43, #40, ...

........................................................................
.............................. CYCLE    3 ..............................
........................................................................

 iter      E             dE          RMSdq      gap      omega  full diag
   1   -153.5815328 -0.153582E+03  0.388E-01    0.20       0.0  T
   2   -152.6290219  0.952511E+00  0.397E+00    0.43       1.0  T
   3   -153.5775773 -0.948555E+00  0.347E-01    0.11       1.0  T
   4   -153.5768543  0.723035E-03  0.382E-01    0.34       1.0  T
   5   -153.5841345 -0.728021E-02  0.278E-01    0.16       1.0  T
   6   -153.5814125  0.272195E-02  0.301E-01    0.19       1.0  T
   7   -153.5856511 -0.423853E-02  0.210E-01    0.15       1.0  T
   8   -153.5851152  0.535861E-03  0.221E-01    0.15       1.0  T
   9   -153.5878413 -0.272606E-02  0.742E-02    0.13       1.0  T
  10   -153.5881173 -0.276010E-03  0.151E-02    0.13       1.0  T
  11   -153.5881244 -0.716444E-05  0.653E-03    0.12       1.6  T
  12   -153.5881228  0.160363E-05  0.111E-02    0.13       1.0  T
  13   -153.5881291 -0.622917E-05  0.289E-03    0.13       3.5  T
  14   -153.5881288  0.254003E-06  0.355E-03    0.12       2.9  T
  15   -153.5881290 -0.202663E-06  0.326E-03    0.12       3.1  T
  16   -153.5881283  0.678391E-06  0.466E-03    0.12       2.2  T
  17   -153.5881291 -0.791500E-06  0.275E-03    0.12       3.7  T
  18   -153.5881295 -0.414511E-06  0.610E-04    0.13      16.7  T
  19   -153.5881296 -0.120328E-07  0.383E-04    0.13      26.7  T
     SCC iter.                  ...        0 min,  0.641 sec
     gradient                   ...        0 min,  0.027 sec
 * total energy  :  -151.3126017 Eh     change       -0.4603451E-01 Eh
   gradient norm :     0.0591997 Eh/α   predicted    -0.4523845E-01 (  -1.73%)
   displ. norm   :     0.8247884 α      lambda       -0.3827942E-01
   maximum displ.:     0.3283274 α      in ANC's #38, #43, #40, ...

........................................................................
.............................. CYCLE    4 ..............................
........................................................................

 iter      E             dE          RMSdq      gap      omega  full diag
   1   -153.6494905 -0.153649E+03  0.226E-01    0.15       0.0  T
   2   -152.9219037  0.727587E+00  0.344E+00    0.10       1.0  T
   3   -153.6411721 -0.719268E+00  0.339E-01    0.21       1.0  T
   4   -153.6460332 -0.486104E-02  0.316E-01    0.21       1.0  T
   5   -153.6427034  0.332974E-02  0.330E-01    0.22       1.0  T
   6   -153.6437146 -0.101120E-02  0.324E-01    0.21       1.0  T
   7   -153.6437726 -0.579515E-04  0.321E-01    0.22       1.0  T
   8   -153.6442018 -0.429239E-03  0.311E-01    0.21       1.0  T
   9   -153.6444368 -0.234941E-03  0.303E-01    0.21       1.0  T
  10   -153.6459178 -0.148101E-02  0.264E-01    0.20       1.0  T
  11   -153.6469282 -0.101042E-02  0.231E-01    0.19       1.0  T
  12   -153.6496535 -0.272530E-02  0.106E-01    0.15       1.0  T
  13   -153.6502614 -0.607887E-03  0.438E-02    0.14       1.0  T
  14   -153.6503827 -0.121276E-03  0.408E-03    0.13       2.5  T
  15   -153.6503725  0.101707E-04  0.132E-02    0.13       1.0  T
  16   -153.6503824 -0.987779E-05  0.444E-03    0.13       2.3  T
  17   -153.6503822  0.201021E-06  0.476E-03    0.13       2.1  T
  18   -153.6503831 -0.951778E-06  0.286E-03    0.13       3.6  T
  19   -153.6503836 -0.467193E-06  0.914E-04    0.13      11.2  T
  20   -153.6503836 -0.278652E-07  0.655E-04    0.13      15.6  T
     SCC iter.                  ...        0 min,  1.001 sec
     gradient                   ...        0 min,  0.026 sec
 * total energy  :  -151.3462475 Eh     change       -0.3364589E-01 Eh
   gradient norm :     0.0482525 Eh/α   predicted    -0.3216029E-01 (  -4.42%)
   displ. norm   :     0.8548984 α      lambda       -0.3118124E-01
   maximum displ.:     0.3314047 α      in ANC's #38, #43, #32, ...

........................................................................
.............................. CYCLE    5 ..............................
........................................................................

 iter      E             dE          RMSdq      gap      omega  full diag
   1   -153.7006968 -0.153701E+03  0.149E-01    0.13       0.0  T
   2   -153.6951657  0.553113E-02  0.303E-01    0.23       1.0  T
   3   -153.6977780 -0.261228E-02  0.247E-01    0.19       1.0  T
   4   -153.6968215  0.956441E-03  0.210E-01    0.20       1.0  T
   5   -153.6133174  0.835041E-01  0.117E+00    0.04       1.0  T
   6   -153.6238717 -0.105543E-01  0.108E+00    0.04       1.0  T
   7   -153.6996466 -0.757749E-01  0.151E-01    0.17       1.0  T
   8   -153.7002037 -0.557129E-03  0.118E-01    0.16       1.0  T
   9   -153.7009316 -0.727853E-03  0.584E-02    0.15       1.0  T
  10   -153.7011459 -0.214370E-03  0.950E-03    0.13       1.1  T
  11   -153.7011371  0.886792E-05  0.150E-02    0.13       1.0  T
  12   -153.7011512 -0.141469E-04  0.497E-03    0.13       2.1  T
  13   -153.7011465  0.472291E-05  0.993E-03    0.13       1.0  T
  14   -153.7011526 -0.614752E-05  0.958E-04    0.13      10.7  T
  15   -153.7011527 -0.200641E-07  0.516E-04    0.13      19.8  T
  16   -153.7011527 -0.169757E-07  0.128E-04    0.13      79.9  T
     SCC iter.                  ...        0 min,  0.534 sec
     gradient                   ...        0 min,  0.031 sec
 * total energy  :  -151.3734966 Eh     change       -0.2724907E-01 Eh
   gradient norm :     0.0347796 Eh/α   predicted    -0.2698548E-01 (  -0.97%)
   displ. norm   :     0.8462577 α      lambda       -0.2345606E-01
   maximum displ.:     0.3062189 α      in ANC's #38, #32, #43, ...

........................................................................
.............................. CYCLE    6 ..............................
........................................................................

 iter      E             dE          RMSdq      gap      omega  full diag
   1   -153.7425614 -0.153743E+03  0.233E-01    0.11       0.0  T
   2   -153.7309322  0.116292E-01  0.352E-01    0.44       1.0  T
   3   -153.7430616 -0.121294E-01  0.280E-01    0.21       1.0  T
   4   -153.7416146  0.144702E-02  0.268E-01    0.23       1.0  T
   5   -152.9892618  0.752353E+00  0.360E+00    0.11       1.0  T
   6   -153.7458249 -0.756563E+00  0.876E-02    0.12       1.0  T
   7   -153.7441230  0.170186E-02  0.178E-01    0.11       1.0  T
   8   -153.7460230 -0.189996E-02  0.689E-02    0.12       1.0  T
   9   -153.7460371 -0.141662E-04  0.669E-02    0.13       1.0  T
  10   -153.7463242 -0.287087E-03  0.173E-02    0.13       1.0  T
  11   -153.7463215  0.270014E-05  0.188E-02    0.14       1.0  T
  12   -153.7463402 -0.186990E-04  0.889E-03    0.14       1.1  T
  13   -153.7463381  0.211960E-05  0.108E-02    0.13       1.0  T
  14   -153.7463420 -0.389150E-05  0.767E-03    0.14       1.3  T
  15   -153.7463451 -0.316368E-05  0.347E-03    0.14       2.9  T
  16   -153.7463460 -0.815746E-06  0.299E-04    0.14      34.1  T
  17   -153.7463459  0.209873E-07  0.632E-04    0.14      16.1  T
     SCC iter.                  ...        0 min,  0.573 sec
     gradient                   ...        0 min,  0.026 sec
 * total energy  :  -151.3937815 Eh     change       -0.2028488E-01 Eh
   gradient norm :     0.0309022 Eh/α   predicted    -0.2012709E-01 (  -0.78%)
   displ. norm   :     0.8379415 α      lambda       -0.1753961E-01
   maximum displ.:     0.3492812 α      in ANC's #32, #38, #9, ...

........................................................................
.............................. CYCLE    7 ..............................
........................................................................

 iter      E             dE          RMSdq      gap      omega  full diag
   1   -153.7712561 -0.153771E+03  0.453E-01    0.08       0.0  T
   2   -153.7544661  0.167900E-01  0.448E-01    0.67       1.0  T
   3   -153.7798436 -0.253775E-01  0.405E-01    0.28       1.0  T
   4   -153.7781798  0.166379E-02  0.323E-01    0.27       1.0  T
   5   -153.7798543 -0.167445E-02  0.276E-01    0.10       1.0  T
   6   -153.7851357 -0.528137E-02  0.357E-02    0.14       1.0  T
   7   -153.7847913  0.344342E-03  0.842E-02    0.15       1.0  T
   8   -153.7852551 -0.463801E-03  0.182E-02    0.14       1.0  T
   9   -153.7852125  0.426373E-04  0.303E-02    0.13       1.0  T
  10   -153.7852065  0.601691E-05  0.335E-02    0.14       1.0  T
  11   -153.7852777 -0.711954E-04  0.101E-03    0.14      10.1  T
  12   -153.7852760  0.165957E-05  0.503E-03    0.14       2.0  T
  13   -153.7852761 -0.749712E-07  0.510E-03    0.14       2.0  T
  14   -153.7852774 -0.131277E-05  0.231E-03    0.14       4.4  T
  15   -153.7852777 -0.364972E-06  0.211E-04    0.14      48.5  T
  16   -153.7852777  0.866152E-08  0.410E-04    0.14      24.9  T
     SCC iter.                  ...        0 min,  0.933 sec
     gradient                   ...        0 min,  0.028 sec
 * total energy  :  -151.4090009 Eh     change       -0.1521937E-01 Eh
   gradient norm :     0.0273746 Eh/α   predicted    -0.1492749E-01 (  -1.92%)
   displ. norm   :     0.8487459 α      lambda       -0.1383413E-01
   maximum displ.:     0.3983938 α      in ANC's #32, #9, #16, ...

........................................................................
.............................. CYCLE    8 ..............................
........................................................................

 iter      E             dE          RMSdq      gap      omega  full diag
   1   -153.7915850 -0.153792E+03  0.609E-01    0.07       0.0  T
   2   -153.7713384  0.202466E-01  0.536E-01    0.82       1.0  T
   3   -153.8101146 -0.387762E-01  0.467E-01    0.31       1.0  T
   4   -153.8080868  0.202772E-02  0.350E-01    0.30       1.0  T
   5   -153.8136224 -0.553556E-02  0.227E-01    0.19       1.0  T
   6   -153.2311113  0.582511E+00  0.315E+00    0.07       1.0  T
   7   -153.8151237 -0.584012E+00  0.148E-01    0.17       1.0  T
   8   -153.8123798  0.274385E-02  0.252E-01    0.22       1.0  T
   9   -153.8147254 -0.234556E-02  0.166E-01    0.17       1.0  T
  10   -153.8165744 -0.184899E-02  0.452E-03    0.13       2.3  T
  11   -153.8161862  0.388118E-03  0.751E-02    0.12       1.0  T
  12   -153.8165536 -0.367303E-03  0.190E-02    0.14       1.0  T
  13   -153.8165751 -0.215909E-04  0.311E-03    0.13       3.3  T
  14   -153.8165652  0.995062E-05  0.128E-02    0.13       1.0  T
  15   -153.8165756 -0.104131E-04  0.181E-03    0.13       5.6  T
  16   -153.8165758 -0.148706E-06  0.125E-03    0.13       8.2  T
  17   -153.8165753  0.495689E-06  0.293E-03    0.13       3.5  T
  18   -153.8165758 -0.568123E-06  0.532E-04    0.13      19.2  T
  19   -153.8165758 -0.179137E-07  0.414E-05    0.13     246.3  T
     SCC iter.                  ...        0 min,  1.026 sec
     gradient                   ...        0 min,  0.036 sec
 * total energy  :  -151.4209868 Eh     change       -0.1198591E-01 Eh
   gradient norm :     0.0239000 Eh/α   predicted    -0.1189991E-01 (  -0.72%)
   displ. norm   :     0.8559580 α      lambda       -0.1148284E-01
   maximum displ.:     0.4071784 α      in ANC's #32, #9, #14, ...

........................................................................
.............................. CYCLE    9 ..............................
........................................................................

 iter      E             dE          RMSdq      gap      omega  full diag
   1   -153.8097905 -0.153810E+03  0.682E-01    0.06       0.0  T
   2   -153.7872808  0.225097E-01  0.583E-01    0.90       1.0  T
   3   -153.8338807 -0.465998E-01  0.498E-01    0.32       1.0  T
   4   -153.8316451  0.223559E-02  0.367E-01    0.30       1.0  T
   5   -153.8362395 -0.459445E-02  0.290E-01    0.20       1.0  T
   6   -153.7884146  0.478249E-01  0.891E-01    0.05       1.0  T
   7   -153.8287682 -0.403536E-01  0.439E-01    0.08       1.0  T
   8   -153.8409090 -0.121408E-01  0.628E-02    0.14       1.0  T
   9   -153.8388796  0.202944E-02  0.184E-01    0.18       1.0  T
  10   -153.8410198 -0.214022E-02  0.350E-02    0.14       1.0  T
  11   -153.8388168  0.220301E-02  0.185E-01    0.11       1.0  T
  12   -153.8410967 -0.227988E-02  0.128E-02    0.13       1.0  T
  13   -153.8410375  0.592079E-04  0.331E-02    0.13       1.0  T
  14   -153.8410676 -0.301166E-04  0.247E-02    0.13       1.0  T
  15   -153.8411055 -0.378936E-04  0.431E-03    0.13       2.4  T
  16   -153.8411066 -0.110305E-05  0.354E-04    0.13      28.8  T
  17   -153.8411066  0.655288E-08  0.337E-04    0.13      30.3  T
  18   -153.8411065  0.993320E-07  0.128E-03    0.13       8.0  T
  19   -153.8411066 -0.111396E-06  0.484E-05    0.13     210.9  T
     SCC iter.                  ...        0 min,  2.974 sec
     gradient                   ...        0 min,  0.055 sec
 * total energy  :  -151.4305709 Eh     change       -0.9584126E-02 Eh
   gradient norm :     0.0246511 Eh/α   predicted    -0.9947959E-02 (   3.80%)
   displ. norm   :     0.8293909 α      lambda       -0.8977665E-02
   maximum displ.:     0.3703245 α      in ANC's #32, #9, #14, ...

........................................................................
.............................. CYCLE   10 ..............................
........................................................................

 iter      E             dE          RMSdq      gap      omega  full diag
   1   -153.8525448 -0.153853E+03  0.333E-01    0.09       0.0  T
   2   -153.8367889  0.157560E-01  0.394E-01    0.53       1.0  T
   3   -153.8569728 -0.201840E-01  0.278E-01    0.18       1.0  T
   4   -153.8538139  0.315893E-02  0.283E-01    0.23       1.0  T
   5   -153.7293897  0.124424E+00  0.142E+00    0.02       1.0  T
   6   -153.8543816 -0.124992E+00  0.253E-01    0.13       1.0  T
   7   -153.8539765  0.405113E-03  0.276E-01    0.23       1.0  T
   8   -153.8574260 -0.344948E-02  0.170E-01    0.17       1.0  T
   9   -153.8592928 -0.186684E-02  0.431E-02    0.14       1.0  T
  10   -153.8584531  0.839713E-03  0.117E-01    0.11       1.0  T
  11   -153.8593632 -0.910039E-03  0.248E-02    0.13       1.0  T
  12   -153.8593773 -0.141066E-04  0.212E-02    0.13       1.0  T
  13   -153.8594034 -0.260926E-04  0.906E-03    0.13       1.1  T
  14   -153.8594061 -0.273431E-05  0.654E-03    0.13       1.6  T
  15   -153.8594088 -0.271952E-05  0.119E-03    0.13       8.6  T
  16   -153.8594089 -0.744453E-07  0.318E-04    0.13      32.1  T
  17   -153.8594089 -0.655976E-08  0.215E-04    0.13      47.5  T
     SCC iter.                  ...        0 min,  1.407 sec
     gradient                   ...        0 min,  0.028 sec
 * total energy  :  -151.4380918 Eh     change       -0.7520904E-02 Eh
   gradient norm :     0.0239609 Eh/α   predicted    -0.7576656E-02 (   0.74%)
   displ. norm   :     0.8065136 α      lambda       -0.6879805E-02
   maximum displ.:     0.3594694 α      in ANC's #14, #9, #16, ...

........................................................................
.............................. CYCLE   11 ..............................
........................................................................

 iter      E             dE          RMSdq      gap      omega  full diag
   1   -153.8745891 -0.153875E+03  0.175E-01    0.11       0.0  T
   2   -153.8635809  0.110082E-01  0.327E-01    0.32       1.0  T
   3   -153.8675584 -0.397759E-02  0.319E-01    0.09       1.0  T
   4   -153.8715584 -0.399997E-02  0.294E-01    0.15       1.0  T
   5   -153.8684262  0.313225E-02  0.322E-01    0.25       1.0  T
   6   -153.8694085 -0.982369E-03  0.299E-01    0.20       1.0  T
   7   -153.8754772 -0.606865E-02  0.477E-02    0.12       1.0  T
   8   -153.8758676 -0.390443E-03  0.257E-02    0.13       1.0  T
   9   -153.8756808  0.186827E-03  0.563E-02    0.12       1.0  T
  10   -153.8757685 -0.876567E-04  0.426E-02    0.12       1.0  T
  11   -153.8759010 -0.132517E-03  0.583E-03    0.13       1.7  T
  12   -153.8758876  0.133599E-04  0.157E-02    0.13       1.0  T
  13   -153.8759025 -0.148843E-04  0.254E-03    0.13       4.0  T
  14   -153.8759029 -0.426929E-06  0.170E-03    0.13       6.0  T
  15   -153.8759028  0.120733E-06  0.203E-03    0.13       5.0  T
  16   -153.8759030 -0.178638E-06  0.995E-04    0.13      10.3  T
  17   -153.8759030 -0.540520E-07  0.575E-04    0.13      17.8  T
     SCC iter.                  ...        0 min,  0.803 sec
     gradient                   ...        0 min,  0.026 sec
 * total energy  :  -151.4439936 Eh     change       -0.5901784E-02 Eh
   gradient norm :     0.0141186 Eh/α   predicted    -0.5677450E-02 (  -3.80%)
   displ. norm   :     0.8315578 α      lambda       -0.5899453E-02
   maximum displ.:     0.3949107 α      in ANC's #14, #9, #16, ...

........................................................................
.............................. CYCLE   12 ..............................
........................................................................

 iter      E             dE          RMSdq      gap      omega  full diag
   1   -153.8803541 -0.153880E+03  0.150E-01    0.15       0.0  T
   2   -153.0536463  0.826708E+00  0.373E+00    0.15       1.0  T
   3   -153.8803761 -0.826730E+00  0.125E-01    0.12       1.0  T
   4   -153.8800495  0.326595E-03  0.116E-01    0.16       1.0  T
   5   -153.8806318 -0.582368E-03  0.572E-02    0.12       1.0  T
   6   -153.8807032 -0.713466E-04  0.709E-02    0.15       1.0  T
   7   -153.8810877 -0.384550E-03  0.329E-02    0.14       1.0  T
   8   -153.8811742 -0.865037E-04  0.110E-02    0.13       1.0  T
   9   -153.8811098  0.644738E-04  0.228E-02    0.13       1.0  T
  10   -153.8811151 -0.533600E-05  0.298E-02    0.14       1.0  T
  11   -153.8811540 -0.389271E-04  0.189E-02    0.13       1.0  T
  12   -153.8811474  0.663399E-05  0.208E-02    0.14       1.0  T
  13   -153.8811580 -0.106426E-04  0.164E-02    0.13       1.0  T
  14   -153.8811638 -0.571310E-05  0.136E-02    0.13       1.0  T
  15   -153.8811694 -0.565787E-05  0.100E-02    0.13       1.0  T
  16   -153.8811732 -0.373574E-05  0.686E-03    0.13       1.5  T
  17   -153.8811749 -0.173089E-05  0.460E-03    0.13       2.2  T
  18   -153.8811757 -0.810029E-06  0.297E-03    0.13       3.4  T
  19   -153.8811762 -0.527912E-06  0.103E-03    0.13       9.9  T
  20   -153.8811763 -0.642775E-07  0.276E-04    0.13      36.9  T
  21   -153.8811763 -0.377017E-08  0.139E-04    0.13      73.4  T
     SCC iter.                  ...        0 min,  0.866 sec
     gradient                   ...        0 min,  0.027 sec
 * total energy  :  -151.4485454 Eh     change       -0.4551826E-02 Eh
   gradient norm :     0.0301997 Eh/α   predicted    -0.4989428E-02 (   9.61%)
   displ. norm   :     0.7715959 α      lambda       -0.5396846E-02
   maximum displ.:     0.3966227 α      in ANC's #14, #16, #9, ...

........................................................................
.............................. CYCLE   13 ..............................
........................................................................

 iter      E             dE          RMSdq      gap      omega  full diag
   1   -153.8924799 -0.153892E+03  0.138E-01    0.15       0.0  T
   2   -153.0300228  0.862457E+00  0.382E+00    0.18       1.0  T
   3   -153.8846538 -0.854631E+00  0.353E-01    0.09       1.0  T
   4   -153.8932140 -0.856020E-02  0.641E-02    0.14       1.0  T
   5   -153.8932228 -0.879788E-05  0.541E-02    0.13       1.0  T
   6   -153.8934648 -0.241959E-03  0.402E-02    0.13       1.0  T
   7   -153.8928846  0.580185E-03  0.996E-02    0.12       1.0  T
   8   -153.8933718 -0.487225E-03  0.538E-02    0.12       1.0  T
   9   -153.8935674 -0.195532E-03  0.695E-03    0.13       1.5  T
  10   -153.8935523  0.150133E-04  0.165E-02    0.13       1.0  T
  11   -153.8935329  0.194408E-04  0.234E-02    0.14       1.0  T
  12   -153.8935425 -0.960195E-05  0.201E-02    0.14       1.0  T
  13   -153.8935511 -0.855946E-05  0.166E-02    0.13       1.0  T
  14   -153.8935604 -0.928542E-05  0.118E-02    0.13       1.0  T
  15   -153.8935648 -0.441196E-05  0.859E-03    0.13       1.2  T
  16   -153.8935673 -0.257729E-05  0.591E-03    0.13       1.7  T
  17   -153.8935689 -0.157411E-05  0.347E-03    0.13       2.9  T
  18   -153.8935695 -0.566590E-06  0.190E-03    0.13       5.4  T
  19   -153.8935697 -0.216978E-06  0.601E-04    0.13      17.0  T
  20   -153.8935697 -0.186165E-07  0.297E-04    0.13      34.3  T
     SCC iter.                  ...        0 min,  1.148 sec
     gradient                   ...        0 min,  0.030 sec
 * total energy  :  -151.4525728 Eh     change       -0.4027440E-02 Eh
   gradient norm :     0.0206050 Eh/α   predicted    -0.4304961E-02 (   6.89%)
   displ. norm   :     0.7823705 α      lambda       -0.3776407E-02
   maximum displ.:     0.4129232 α      in ANC's #14, #16, #9, ...

........................................................................
.............................. CYCLE   14 ..............................
........................................................................

 iter      E             dE          RMSdq      gap      omega  full diag
   1   -153.8959880 -0.153896E+03  0.129E-01    0.15       0.0  T
   2   -153.0713000  0.824688E+00  0.372E+00    0.15       1.0  T
   3   -153.8888793 -0.817579E+00  0.337E-01    0.09       1.0  T
   4   -153.8965129 -0.763357E-02  0.458E-02    0.13       1.0  T
   5   -153.8945314  0.198152E-02  0.159E-01    0.11       1.0  T
   6   -153.8963111 -0.177976E-02  0.735E-02    0.12       1.0  T
   7   -153.8963070  0.411583E-05  0.752E-02    0.12       1.0  T
   8   -153.8963012  0.580058E-05  0.736E-02    0.12       1.0  T
   9   -153.8965568 -0.255544E-03  0.361E-02    0.13       1.0  T
  10   -153.8966475 -0.907314E-04  0.173E-02    0.14       1.0  T
  11   -153.8966591 -0.116089E-04  0.129E-02    0.13       1.0  T
  12   -153.8966507  0.842072E-05  0.165E-02    0.14       1.0  T
  13   -153.8966597 -0.895691E-05  0.120E-02    0.13       1.0  T
  14   -153.8966627 -0.307008E-05  0.996E-03    0.13       1.0  T
  15   -153.8966655 -0.278870E-05  0.759E-03    0.13       1.3  T
  16   -153.8966677 -0.213846E-05  0.517E-03    0.13       2.0  T
  17   -153.8966686 -0.996829E-06  0.345E-03    0.13       3.0  T
  18   -153.8966691 -0.463439E-06  0.222E-03    0.13       4.6  T
  19   -153.8966694 -0.279537E-06  0.905E-04    0.13      11.3  T
  20   -153.8966694 -0.464505E-07  0.345E-04    0.13      29.6  T
     SCC iter.                  ...        0 min,  0.719 sec
     gradient                   ...        0 min,  0.037 sec
 * total energy  :  -151.4557882 Eh     change       -0.3215348E-02 Eh
   gradient norm :     0.0120191 Eh/α   predicted    -0.3043983E-02 (  -5.33%)
   displ. norm   :     0.8187721 α      lambda       -0.3530360E-02
   maximum displ.:     0.4247092 α      in ANC's #14, #16, #8, ...

........................................................................
.............................. CYCLE   15 ..............................
........................................................................

 iter      E             dE          RMSdq      gap      omega  full diag
   1   -153.9005269 -0.153901E+03  0.142E-01    0.16       0.0  T
   2   -152.9936697  0.906857E+00  0.389E+00    0.24       1.0  T
   3   -153.8681892 -0.874519E+00  0.705E-01    0.06       1.0  T
   4   -153.8951306 -0.269414E-01  0.312E-01    0.09       1.0  T
   5   -153.8973856 -0.225503E-02  0.243E-01    0.10       1.0  T
   6   -153.9008497 -0.346409E-02  0.116E-01    0.12       1.0  T
   7   -153.9001368  0.712983E-03  0.151E-01    0.11       1.0  T
   8   -153.9010070 -0.870227E-03  0.980E-02    0.12       1.0  T
   9   -153.9016662 -0.659237E-03  0.189E-02    0.13       1.0  T
  10   -153.9016579  0.837284E-05  0.227E-02    0.14       1.0  T
  11   -153.9016370  0.208720E-04  0.287E-02    0.14       1.0  T
  12   -153.9016425 -0.547519E-05  0.266E-02    0.14       1.0  T
  13   -153.9016650 -0.225036E-04  0.200E-02    0.14       1.0  T
  14   -153.9016820 -0.170867E-04  0.124E-02    0.14       1.0  T
  15   -153.9016886 -0.653117E-05  0.760E-03    0.14       1.3  T
  16   -153.9016915 -0.288972E-05  0.409E-03    0.13       2.5  T
  17   -153.9016923 -0.848279E-06  0.206E-03    0.13       4.9  T
  18   -153.9016926 -0.255987E-06  0.674E-04    0.13      15.1  T
  19   -153.9016926 -0.263332E-07  0.285E-04    0.13      35.9  T
     SCC iter.                  ...        0 min,  1.252 sec
     gradient                   ...        0 min,  0.035 sec
 * total energy  :  -151.4588996 Eh     change       -0.3111413E-02 Eh
   gradient norm :     0.0097843 Eh/α   predicted    -0.2948537E-02 (  -5.23%)
   displ. norm   :     0.8625449 α      lambda       -0.3566459E-02
   maximum displ.:     0.4346415 α      in ANC's #14, #16, #5, ...

........................................................................
.............................. CYCLE   16 ..............................
........................................................................

 iter      E             dE          RMSdq      gap      omega  full diag
   1   -153.9054237 -0.153905E+03  0.153E-01    0.18       0.0  T
   2   -152.9715737  0.933850E+00  0.390E+00    0.35       1.0  T
   3   -153.6954678 -0.723894E+00  0.180E+00    0.00       1.0  T
   4   -153.7326598 -0.371920E-01  0.159E+00    0.01       1.0  T
   5   -153.9028681 -0.170208E+00  0.250E-01    0.19       1.0  T
   6   -153.9023863  0.481880E-03  0.258E-01    0.23       1.0  T
   7   -153.9036807 -0.129446E-02  0.235E-01    0.20       1.0  T
   8   -153.9045630 -0.882238E-03  0.203E-01    0.20       1.0  T
   9   -153.9057319 -0.116896E-02  0.155E-01    0.18       1.0  T
  10   -153.9072000 -0.146808E-02  0.549E-02    0.15       1.0  T
  11   -153.9073946 -0.194602E-03  0.878E-03    0.13       1.2  T
  12   -153.9073660  0.285939E-04  0.223E-02    0.13       1.0  T
  13   -153.9073717 -0.565786E-05  0.207E-02    0.13       1.0  T
  14   -153.9073920 -0.202990E-04  0.114E-02    0.13       1.0  T
  15   -153.9073986 -0.666540E-05  0.557E-03    0.14       1.8  T
  16   -153.9074004 -0.181367E-05  0.219E-03    0.14       4.7  T
  17   -153.9074008 -0.336061E-06  0.124E-04    0.14      82.6  T
  18   -153.9074008  0.542988E-08  0.301E-04    0.14      33.9  T
     SCC iter.                  ...        0 min,  1.047 sec
     gradient                   ...        0 min,  0.028 sec
 * total energy  :  -151.4624069 Eh     change       -0.3507247E-02 Eh
   gradient norm :     0.0099753 Eh/α   predicted    -0.3109925E-02 ( -11.33%)
   displ. norm   :     0.9406303 α      lambda       -0.4364635E-02
   maximum displ.:     0.4436656 α      in ANC's #14, #5, #16, ...

........................................................................
.............................. CYCLE   17 ..............................
........................................................................

 iter      E             dE          RMSdq      gap      omega  full diag
   1   -153.9124871 -0.153912E+03  0.154E-01    0.18       0.0  T
   2   -152.9666888  0.945798E+00  0.386E+00    0.37       1.0  T
   3   -153.2632711 -0.296582E+00  0.320E+00    0.08       1.0  T
   4   -153.2660170 -0.274592E-02  0.320E+00    0.08       1.0  T
   5   -153.9070949 -0.641078E+00  0.326E-01    0.36       1.0  T
   6   -153.9071498 -0.549221E-04  0.353E-01    0.27       1.0  T
   7   -153.9074886 -0.338749E-03  0.363E-01    0.27       1.0  T
   8   -153.9075644 -0.758202E-04  0.366E-01    0.27       1.0  T
   9   -153.9080877 -0.523335E-03  0.352E-01    0.25       1.0  T
  10   -153.9084390 -0.351219E-03  0.342E-01    0.25       1.0  T
  11   -153.9086811 -0.242158E-03  0.332E-01    0.24       1.0  T
  12   -153.9094458 -0.764684E-03  0.306E-01    0.23       1.0  T
  13   -153.9096618 -0.216017E-03  0.298E-01    0.22       1.0  T
  14   -153.9110664 -0.140455E-02  0.242E-01    0.20       1.0  T
  15   -153.9142198 -0.315339E-02  0.964E-02    0.17       1.0  T
  16   -153.9148930 -0.673196E-03  0.287E-02    0.15       1.0  T
  17   -153.9143196  0.573347E-03  0.978E-02    0.16       1.0  T
  18   -153.9146656 -0.346028E-03  0.682E-02    0.13       1.0  T
  19   -153.9142239  0.441777E-03  0.106E-01    0.17       1.0  T
  20   -153.9142590 -0.351116E-04  0.103E-01    0.12       1.0  T
  21   -153.9143870 -0.128052E-03  0.939E-02    0.16       1.0  T
  22   -153.9147047 -0.317657E-03  0.631E-02    0.13       1.0  T
  23   -153.9148904 -0.185675E-03  0.348E-02    0.15       1.0  T
  24   -153.9149215 -0.311434E-04  0.272E-02    0.14       1.0  T
  25   -153.9149700 -0.484890E-04  0.474E-03    0.14       2.2  T
  26   -153.9149638  0.616574E-05  0.106E-02    0.14       1.0  T
  27   -153.9149697 -0.583540E-05  0.508E-03    0.14       2.0  T
  28   -153.9149701 -0.416977E-06  0.448E-03    0.14       2.3  T
  29   -153.9149707 -0.668187E-06  0.321E-03    0.14       3.2  T
  30   -153.9149713 -0.587238E-06  0.128E-03    0.14       8.0  T
  31   -153.9149714 -0.940385E-07  0.484E-04    0.14      21.1  T
  32   -153.9149714 -0.147858E-07  0.109E-04    0.14      93.9  T
     SCC iter.                  ...        0 min,  1.300 sec
     gradient                   ...        0 min,  0.028 sec
 * total energy  :  -151.4667149 Eh     change       -0.4308058E-02 Eh
   gradient norm :     0.0171372 Eh/α   predicted    -0.4113210E-02 (  -4.52%)
   displ. norm   :     0.9242717 α      lambda       -0.5006195E-02
   maximum displ.:     0.5332388 α      in ANC's #5, #14, #6, ...

........................................................................
.............................. CYCLE   18 ..............................
........................................................................

 iter      E             dE          RMSdq      gap      omega  full diag
   1   -153.9249083 -0.153925E+03  0.152E-01    0.15       0.0  T
   2   -153.0459826  0.878926E+00  0.365E+00    0.17       1.0  T
   3   -153.0416165  0.436608E-02  0.366E+00    0.17       1.0  T
   4   -153.0448627 -0.324619E-02  0.366E+00    0.17       1.0  T
   5   -153.9218663 -0.877004E+00  0.246E-01    0.27       1.0  T
   6   -153.9218567  0.956163E-05  0.274E-01    0.18       1.0  T
   7   -153.9211375  0.719272E-03  0.303E-01    0.24       1.0  T
   8   -153.9217678 -0.630331E-03  0.294E-01    0.21       1.0  T
   9   -153.9217438  0.239727E-04  0.290E-01    0.22       1.0  T
  10   -153.9219654 -0.221543E-03  0.282E-01    0.22       1.0  T
  11   -153.9221304 -0.165044E-03  0.276E-01    0.21       1.0  T
  12   -153.9224927 -0.362331E-03  0.261E-01    0.21       1.0  T
  13   -153.9228496 -0.356863E-03  0.245E-01    0.20       1.0  T
  14   -153.9231876 -0.338042E-03  0.230E-01    0.20       1.0  T
  15   -153.9238071 -0.619438E-03  0.201E-01    0.19       1.0  T
  16   -153.9246640 -0.856891E-03  0.159E-01    0.18       1.0  T
  17   -153.9264687 -0.180475E-02  0.124E-02    0.15       1.0  T
  18   -153.9249271  0.154166E-02  0.153E-01    0.17       1.0  T
  19   -153.9264782 -0.155115E-02  0.180E-02    0.15       1.0  T
  20   -153.9261350  0.343253E-03  0.714E-02    0.16       1.0  T
  21   -153.9264289 -0.293957E-03  0.331E-02    0.14       1.0  T
  22   -153.9262217  0.207203E-03  0.635E-02    0.16       1.0  T
  23   -153.9264003 -0.178608E-03  0.384E-02    0.14       1.0  T
  24   -153.9263299  0.704226E-04  0.499E-02    0.16       1.0  T
  25   -153.9264393 -0.109399E-03  0.297E-02    0.14       1.0  T
  26   -153.9264388  0.467694E-06  0.298E-02    0.15       1.0  T
  27   -153.9264807 -0.418693E-04  0.165E-02    0.14       1.0  T
  28   -153.9264873 -0.655351E-05  0.133E-02    0.15       1.0  T
  29   -153.9264965 -0.920536E-05  0.639E-03    0.15       1.6  T
  30   -153.9264982 -0.177904E-05  0.387E-03    0.15       2.6  T
  31   -153.9264991 -0.908819E-06  0.120E-03    0.15       8.5  T
  32   -153.9264992 -0.951685E-07  0.259E-04    0.15      39.4  T
  33   -153.9264992  0.112004E-07  0.507E-04    0.15      20.1  T
     SCC iter.                  ...        0 min,  1.238 sec
     gradient                   ...        0 min,  0.026 sec
 * total energy  :  -151.4713510 Eh     change       -0.4636093E-02 Eh
   gradient norm :     0.0339371 Eh/α   predicted    -0.4641453E-02 (   0.12%)
   displ. norm   :     0.8835423 α      lambda       -0.4955369E-02
   maximum displ.:     0.4996340 α      in ANC's #5, #14, #6, ...

........................................................................
.............................. CYCLE   19 ..............................
........................................................................

 iter      E             dE          RMSdq      gap      omega  full diag
   1   -153.9289243 -0.153929E+03  0.139E-01    0.15       0.0  T
   2   -153.6180510  0.310873E+00  0.208E+00    0.01       1.0  T
   3   -153.0857946  0.532256E+00  0.344E+00    0.14       1.0  T
   4   -153.0585067  0.272879E-01  0.346E+00    0.15       1.0  T
   5   -153.1365481 -0.780414E-01  0.328E+00    0.12       1.0  T
   6   -153.5673225 -0.430774E+00  0.211E+00    0.03       1.0  T
   7   -153.9292632 -0.361941E+00  0.521E-02    0.17       1.0  T
   8   -153.9292064  0.567312E-04  0.774E-02    0.17       1.0  T
   9   -153.9293968 -0.190370E-03  0.706E-02    0.16       1.0  T
  10   -153.9294843 -0.874776E-04  0.607E-02    0.16       1.0  T
  11   -153.9295876 -0.103297E-03  0.474E-02    0.16       1.0  T
  12   -153.9296586 -0.710429E-04  0.375E-02    0.15       1.0  T
  13   -153.9297170 -0.583603E-04  0.248E-02    0.15       1.0  T
  14   -153.9297445 -0.275062E-04  0.148E-02    0.15       1.0  T
  15   -153.9297556 -0.111109E-04  0.881E-03    0.15       1.2  T
  16   -153.9297613 -0.575703E-05  0.206E-03    0.15       5.0  T
  17   -153.9297616 -0.232124E-06  0.132E-03    0.15       7.7  T
  18   -153.9297614  0.145957E-06  0.187E-03    0.15       5.5  T
  19   -153.9297616 -0.178656E-06  0.109E-03    0.15       9.3  T
  20   -153.9297617 -0.743151E-07  0.549E-04    0.15      18.6  T
  21   -153.9297617 -0.151414E-07  0.339E-04    0.15      30.1  T
     SCC iter.                  ...        0 min,  0.870 sec
     gradient                   ...        0 min,  0.029 sec
 * total energy  :  -151.4761671 Eh     change       -0.4816131E-02 Eh
   gradient norm :     0.0423799 Eh/α   predicted    -0.4411881E-02 (  -8.39%)
   displ. norm   :     0.8413534 α      lambda       -0.7135874E-02
   maximum displ.:     0.5106950 α      in ANC's #5, #6, #3, ...

........................................................................
.............................. CYCLE   20 ..............................
........................................................................

 iter      E             dE          RMSdq      gap      omega  full diag
   1   -153.9367166 -0.153937E+03  0.225E-01    0.12       0.0  T
   2   -153.9336773  0.303928E-02  0.194E-01    0.30       1.0  T
   3   -153.8452351  0.884422E-01  0.711E-01    0.03       1.0  T
   4   -153.9354750 -0.902398E-01  0.147E-01    0.23       1.0  T
   5   -153.9354266  0.483951E-04  0.119E-01    0.25       1.0  T
   6   -153.9363039 -0.877342E-03  0.100E-01    0.22       1.0  T
   7   -153.9368098 -0.505943E-03  0.797E-02    0.20       1.0  T
   8   -153.9378646 -0.105479E-02  0.297E-02    0.16       1.0  T
   9   -153.9376370  0.227647E-03  0.437E-02    0.13       1.0  T
  10   -153.9379077 -0.270731E-03  0.259E-02    0.14       1.0  T
  11   -153.9378845  0.232623E-04  0.263E-02    0.13       1.0  T
  12   -153.9380006 -0.116178E-03  0.113E-02    0.14       1.0  T
  13   -153.9380003  0.384854E-06  0.110E-02    0.14       1.0  T
  14   -153.9380111 -0.108502E-04  0.771E-03    0.14       1.3  T
  15   -153.9380217 -0.105754E-04  0.252E-03    0.15       4.0  T
  16   -153.9380227 -0.106506E-05  0.813E-04    0.15      12.6  T
  17   -153.9380229 -0.118237E-06  0.182E-04    0.15      56.1  T
  18   -153.9380229 -0.519367E-08  0.506E-05    0.15     201.6  T
     SCC iter.                  ...        0 min,  0.742 sec
     gradient                   ...        0 min,  0.038 sec
 * total energy  :  -151.4820965 Eh     change       -0.5929384E-02 Eh
   gradient norm :     0.0469148 Eh/α   predicted    -0.6093601E-02 (   2.77%)
   displ. norm   :     0.7794277 α      lambda       -0.7704701E-02
   maximum displ.:     0.4128486 α      in ANC's #5, #14, #6, ...
 * RMSD in coord.:     1.2671322 α      energy gain  -0.2890122E+00 Eh

generating ANC from model Hessian ...
Using Lindh-Hessian (1995)
 Shifting diagonal of input Hessian by    1.0063189294051507E-002
 Lowest  eigenvalues of input Hessian
    0.010000    0.000000    0.000000    0.000000    0.000000    0.000000
    0.000000    0.010074    0.010089    0.010185    0.010272    0.010443
    0.010576    0.010663    0.010846    0.010997    0.011164    0.011354
 Highest eigenvalues
    2.129336    2.138762    2.154628    2.165405    2.301354    2.477325


........................................................................
.............................. CYCLE   21 ..............................
........................................................................

 iter      E             dE          RMSdq      gap      omega  full diag
   1   -153.9267744 -0.153927E+03  0.166E-01    0.18       0.0  T
   2   -153.8416088  0.851656E-01  0.643E-01    0.03       1.0  T
   3   -153.9256239 -0.840151E-01  0.127E-01    0.23       1.0  T
   4   -153.9263611 -0.737196E-03  0.904E-02    0.20       1.0  T
   5   -153.9263265  0.346004E-04  0.741E-02    0.20       1.0  T
   6   -153.9267863 -0.459799E-03  0.560E-02    0.19       1.0  T
   7   -153.9271039 -0.317612E-03  0.387E-02    0.17       1.0  T
   8   -153.9273788 -0.274930E-03  0.774E-03    0.15       1.3  T
   9   -153.9273791 -0.238718E-06  0.641E-03    0.15       1.6  T
  10   -153.9273836 -0.447516E-05  0.420E-03    0.15       2.4  T
  11   -153.9273864 -0.287355E-05  0.166E-03    0.15       6.2  T
  12   -153.9273865 -0.120139E-06  0.109E-03    0.15       9.4  T
  13   -153.9273866 -0.594494E-07  0.744E-04    0.15      13.7  T
  14   -153.9273867 -0.797873E-07  0.267E-04    0.15      38.2  T
     SCC iter.                  ...        0 min,  0.644 sec
     gradient                   ...        0 min,  0.032 sec
 * total energy  :  -151.4887031 Eh     change       -0.6606584E-02 Eh
   gradient norm :     0.0409144 Eh/α   predicted     0.0000000E+00 (-100.00%)
   displ. norm   :     0.5191938 α      lambda       -0.7131903E-02
   maximum displ.:     0.3064232 α      in ANC's #7, #15, #14, ...

........................................................................
.............................. CYCLE   22 ..............................
........................................................................

 iter      E             dE          RMSdq      gap      omega  full diag
   1   -153.9449394 -0.153945E+03  0.121E-01    0.18       0.0  T
   2   -153.8623227  0.826167E-01  0.632E-01    0.03       1.0  T
   3   -153.9448961 -0.825734E-01  0.832E-02    0.19       1.0  T
   4   -153.9453512 -0.455125E-03  0.308E-02    0.16       1.0  T
   5   -153.9453337  0.175241E-04  0.244E-02    0.16       1.0  T
   6   -153.9454078 -0.740786E-04  0.143E-02    0.16       1.0  T
   7   -153.9454296 -0.218103E-04  0.703E-03    0.15       1.5  T
   8   -153.9454334 -0.382214E-05  0.300E-03    0.15       3.4  T
   9   -153.9454331  0.324805E-06  0.243E-03    0.15       4.2  T
  10   -153.9454335 -0.385534E-06  0.140E-03    0.15       7.3  T
  11   -153.9454336 -0.718145E-07  0.885E-04    0.15      11.5  T
  12   -153.9454335  0.155161E-07  0.672E-04    0.15      15.2  T
     SCC iter.                  ...        0 min,  0.549 sec
     gradient                   ...        0 min,  0.029 sec
 * total energy  :  -151.4949656 Eh     change       -0.6262544E-02 Eh
   gradient norm :     0.0212103 Eh/α   predicted    -0.4530442E-02 ( -27.66%)
   displ. norm   :     0.8308513 α      lambda       -0.8836366E-02
   maximum displ.:     0.4641671 α      in ANC's #7, #15, #14, ...

........................................................................
.............................. CYCLE   23 ..............................
........................................................................

 iter      E             dE          RMSdq      gap      omega  full diag
   1   -153.9617532 -0.153962E+03  0.199E-01    0.20       0.0  T
   2   -153.8374938  0.124259E+00  0.783E-01    0.03       1.0  T
   3   -153.9612427 -0.123749E+00  0.142E-01    0.23       1.0  T
   4   -153.9616800 -0.437340E-03  0.745E-02    0.21       1.0  T
   5   -153.9615835  0.964756E-04  0.680E-02    0.21       1.0  T
   6   -153.9619908 -0.407212E-03  0.508E-02    0.19       1.0  T
   7   -153.9622879 -0.297195E-03  0.315E-02    0.18       1.0  T
   8   -153.9624410 -0.153097E-03  0.133E-02    0.16       1.0  T
   9   -153.9624725 -0.314962E-04  0.300E-03    0.16       3.4  T
  10   -153.9624734 -0.885899E-06  0.121E-03    0.16       8.4  T
  11   -153.9624734  0.292513E-08  0.951E-04    0.16      10.7  T
  12   -153.9624726  0.827506E-06  0.210E-03    0.15       4.8  T
  13   -153.9624732 -0.648769E-06  0.104E-03    0.16       9.8  T
  14   -153.9624734 -0.159251E-06  0.497E-04    0.16      20.5  T
     SCC iter.                  ...        0 min,  0.524 sec
     gradient                   ...        0 min,  0.030 sec
 * total energy  :  -151.5028883 Eh     change       -0.7922685E-02 Eh
   gradient norm :     0.0153188 Eh/α   predicted    -0.7468120E-02 (  -5.74%)
   displ. norm   :     0.8884839 α      lambda       -0.8063779E-02
   maximum displ.:     0.4998187 α      in ANC's #7, #15, #14, ...

........................................................................
.............................. CYCLE   24 ..............................
........................................................................

 iter      E             dE          RMSdq      gap      omega  full diag
   1   -153.9695809 -0.153970E+03  0.191E-01    0.19       0.0  T
   2   -153.9348766  0.347043E-01  0.428E-01    0.06       1.0  T
   3   -153.9683319 -0.334553E-01  0.147E-01    0.25       1.0  T
   4   -153.9684211 -0.891839E-04  0.995E-02    0.26       1.0  T
   5   -153.9684593 -0.382125E-04  0.892E-02    0.25       1.0  T
   6   -153.9690722 -0.612848E-03  0.679E-02    0.22       1.0  T
   7   -153.9696367 -0.564571E-03  0.396E-02    0.19       1.0  T
   8   -153.9699182 -0.281502E-03  0.664E-03    0.16       1.5  T
   9   -153.9698936  0.246539E-04  0.121E-02    0.15       1.0  T
  10   -153.9699113 -0.176998E-04  0.770E-03    0.15       1.3  T
  11   -153.9699224 -0.111629E-04  0.111E-03    0.16       9.2  T
  12   -153.9699225 -0.260244E-07  0.630E-04    0.16      16.2  T
  13   -153.9699222  0.271841E-06  0.119E-03    0.16       8.6  T
  14   -153.9699224 -0.225529E-06  0.554E-04    0.16      18.4  T
     SCC iter.                  ...        0 min,  0.623 sec
     gradient                   ...        0 min,  0.027 sec
 * total energy  :  -151.5103498 Eh     change       -0.7461478E-02 Eh
   gradient norm :     0.0222483 Eh/α   predicted    -0.7214685E-02 (  -3.31%)
   displ. norm   :     0.8865417 α      lambda       -0.7533068E-02
   maximum displ.:     0.4984327 α      in ANC's #7, #15, #14, ...

........................................................................
.............................. CYCLE   25 ..............................
........................................................................

 iter      E             dE          RMSdq      gap      omega  full diag
   1   -153.9750024 -0.153975E+03  0.190E-01    0.17       0.0  T
   2   -153.9732272  0.177522E-02  0.156E-01    0.12       1.0  T
   3   -153.9711885  0.203874E-02  0.174E-01    0.40       1.0  T
   4   -153.9729636 -0.177511E-02  0.118E-01    0.32       1.0  T
   5   -153.9734359 -0.472279E-03  0.947E-02    0.27       1.0  T
   6   -153.9745739 -0.113799E-02  0.522E-02    0.20       1.0  T
   7   -153.9750610 -0.487136E-03  0.951E-03    0.16       1.1  T
   8   -153.9750341  0.269203E-04  0.136E-02    0.15       1.0  T
   9   -153.9750668 -0.326713E-04  0.393E-03    0.16       2.6  T
  10   -153.9750656  0.117583E-05  0.445E-03    0.16       2.3  T
  11   -153.9750693 -0.375355E-05  0.850E-04    0.16      12.0  T
  12   -153.9750694 -0.974585E-07  0.346E-04    0.16      29.5  T
  13   -153.9750694  0.329948E-09  0.273E-04    0.16      37.4  T
     SCC iter.                  ...        0 min,  0.652 sec
     gradient                   ...        0 min,  0.029 sec
 * total energy  :  -151.5172712 Eh     change       -0.6921408E-02 Eh
   gradient norm :     0.0233580 Eh/α   predicted    -0.6726883E-02 (  -2.81%)
   displ. norm   :     0.8635204 α      lambda       -0.6850979E-02
   maximum displ.:     0.4952035 α      in ANC's #7, #15, #14, ...

........................................................................
.............................. CYCLE   26 ..............................
........................................................................

 iter      E             dE          RMSdq      gap      omega  full diag
   1   -153.9813689 -0.153981E+03  0.178E-01    0.14       0.0  T
   2   -153.9803165  0.105236E-02  0.141E-01    0.23       1.0  T
   3   -153.7828204  0.197496E+00  0.972E-01    0.05       1.0  T
   4   -153.9795191 -0.196699E+00  0.110E-01    0.30       1.0  T
   5   -153.9795265 -0.740958E-05  0.104E-01    0.29       1.0  T
   6   -153.9800204 -0.493906E-03  0.910E-02    0.26       1.0  T
   7   -153.9803235 -0.303144E-03  0.799E-02    0.23       1.0  T
   8   -153.9806489 -0.325418E-03  0.674E-02    0.22       1.0  T
   9   -153.9813448 -0.695866E-03  0.285E-02    0.18       1.0  T
  10   -153.9814890 -0.144211E-03  0.783E-03    0.16       1.3  T
  11   -153.9815003 -0.113108E-04  0.162E-03    0.16       6.3  T
  12   -153.9815003 -0.243937E-07  0.153E-03    0.16       6.7  T
  13   -153.9815008 -0.426260E-06  0.441E-04    0.16      23.1  T
  14   -153.9815008 -0.306781E-08  0.397E-04    0.16      25.7  T
     SCC iter.                  ...        0 min,  0.710 sec
     gradient                   ...        0 min,  0.027 sec
 * total energy  :  -151.5233945 Eh     change       -0.6123272E-02 Eh
   gradient norm :     0.0188413 Eh/α   predicted    -0.5979772E-02 (  -2.34%)
   displ. norm   :     0.8414122 α      lambda       -0.5715064E-02
   maximum displ.:     0.4824878 α      in ANC's #7, #14, #15, ...

........................................................................
.............................. CYCLE   27 ..............................
........................................................................

 iter      E             dE          RMSdq      gap      omega  full diag
   1   -153.9853164 -0.153985E+03  0.139E-01    0.13       0.0  T
   2   -153.9833314  0.198503E-02  0.143E-01    0.28       1.0  T
   3   -153.9785241  0.480733E-02  0.196E-01    0.09       1.0  T
   4   -153.9836294 -0.510532E-02  0.108E-01    0.28       1.0  T
   5   -153.9843010 -0.671617E-03  0.859E-02    0.24       1.0  T
   6   -153.9850417 -0.740634E-03  0.581E-02    0.20       1.0  T
   7   -153.9856523 -0.610645E-03  0.159E-02    0.16       1.0  T
   8   -153.9856349  0.174414E-04  0.173E-02    0.15       1.0  T
   9   -153.9856933 -0.584126E-04  0.323E-03    0.15       3.2  T
  10   -153.9856815  0.118162E-04  0.833E-03    0.15       1.2  T
  11   -153.9856937 -0.122157E-04  0.275E-03    0.15       3.7  T
  12   -153.9856951 -0.145355E-05  0.535E-04    0.15      19.1  T
  13   -153.9856951  0.289398E-07  0.624E-04    0.15      16.4  T
  14   -153.9856951 -0.429147E-07  0.406E-04    0.15      25.2  T
     SCC iter.                  ...        0 min,  0.616 sec
     gradient                   ...        0 min,  0.027 sec
 * total energy  :  -151.5283477 Eh     change       -0.4953190E-02 Eh
   gradient norm :     0.0164522 Eh/α   predicted    -0.4880633E-02 (  -1.46%)
   displ. norm   :     0.7951320 α      lambda       -0.4586410E-02
   maximum displ.:     0.4642966 α      in ANC's #7, #14, #15, ...

........................................................................
.............................. CYCLE   28 ..............................
........................................................................

 iter      E             dE          RMSdq      gap      omega  full diag
   1   -153.9962860 -0.153996E+03  0.155E-01    0.13       0.0  T
   2   -153.9940173  0.226872E-02  0.158E-01    0.29       1.0  T
   3   -153.9879549  0.606238E-02  0.218E-01    0.09       1.0  T
   4   -153.9942231 -0.626821E-02  0.120E-01    0.30       1.0  T
   5   -153.9949287 -0.705566E-03  0.993E-02    0.25       1.0  T
   6   -153.9957377 -0.809020E-03  0.725E-02    0.21       1.0  T
   7   -153.9966533 -0.915592E-03  0.234E-02    0.17       1.0  T
   8   -153.9966717 -0.184205E-04  0.198E-02    0.14       1.0  T
   9   -153.9967491 -0.774422E-04  0.318E-03    0.15       3.2  T
  10   -153.9967356  0.135422E-04  0.876E-03    0.15       1.2  T
  11   -153.9967497 -0.141062E-04  0.241E-03    0.15       4.2  T
  12   -153.9967509 -0.114938E-05  0.335E-04    0.15      30.4  T
  13   -153.9967508  0.462623E-07  0.553E-04    0.15      18.5  T
  14   -153.9967509 -0.490378E-07  0.215E-04    0.15      47.6  T
     SCC iter.                  ...        0 min,  0.490 sec
     gradient                   ...        0 min,  0.026 sec
 * total energy  :  -151.5319549 Eh     change       -0.3607231E-02 Eh
   gradient norm :     0.0137570 Eh/α   predicted    -0.3743051E-02 (   3.77%)
   displ. norm   :     0.7785281 α      lambda       -0.3670081E-02
   maximum displ.:     0.4512763 α      in ANC's #7, #14, #15, ...

........................................................................
.............................. CYCLE   29 ..............................
........................................................................

 iter      E             dE          RMSdq      gap      omega  full diag
   1   -153.9909049 -0.153991E+03  0.904E-02    0.15       0.0  T
   2   -153.9905562  0.348688E-03  0.728E-02    0.18       1.0  T
   3   -153.9635326  0.270236E-01  0.363E-01    0.06       1.0  T
   4   -153.9903989 -0.268663E-01  0.583E-02    0.19       1.0  T
   5   -153.9906205 -0.221636E-03  0.442E-02    0.18       1.0  T
   6   -153.9908286 -0.208106E-03  0.268E-02    0.17       1.0  T
   7   -153.9909392 -0.110583E-03  0.949E-03    0.15       1.1  T
   8   -153.9909226  0.165904E-04  0.126E-02    0.14       1.0  T
   9   -153.9909499 -0.272214E-04  0.490E-03    0.15       2.1  T
  10   -153.9909536 -0.375769E-05  0.213E-03    0.15       4.8  T
  11   -153.9909544 -0.805061E-06  0.597E-04    0.15      17.1  T
  12   -153.9909545 -0.554296E-07  0.144E-04    0.15      70.8  T
     SCC iter.                  ...        0 min,  0.505 sec
     gradient                   ...        0 min,  0.028 sec
 * total energy  :  -151.5340965 Eh     change       -0.2141549E-02 Eh
   gradient norm :     0.0241584 Eh/α   predicted    -0.2947277E-02 (  37.62%)
   displ. norm   :     0.5356440 α      lambda       -0.2411067E-02
   maximum displ.:     0.3075990 α      in ANC's #7, #8, #18, ...

........................................................................
.............................. CYCLE   30 ..............................
........................................................................

 iter      E             dE          RMSdq      gap      omega  full diag
   1   -153.9965715 -0.153997E+03  0.936E-02    0.16       0.0  T
   2   -153.9958384  0.733079E-03  0.846E-02    0.12       1.0  T
   3   -153.9944668  0.137161E-02  0.114E-01    0.26       1.0  T
   4   -153.9960492 -0.158238E-02  0.583E-02    0.19       1.0  T
   5   -153.9964775 -0.428284E-03  0.275E-02    0.17       1.0  T
   6   -153.9966097 -0.132183E-03  0.789E-03    0.15       1.3  T
   7   -153.9965973  0.123240E-04  0.931E-03    0.16       1.1  T
   8   -153.9966103 -0.129694E-04  0.221E-03    0.15       4.6  T
   9   -153.9966105 -0.174363E-06  0.168E-03    0.15       6.1  T
  10   -153.9966109 -0.406070E-06  0.529E-04    0.15      19.3  T
  11   -153.9966109  0.345591E-07  0.566E-04    0.15      18.0  T
     SCC iter.                  ...        0 min,  0.423 sec
     gradient                   ...        0 min,  0.027 sec
 * total energy  :  -151.5355050 Eh     change       -0.1408559E-02 Eh
   gradient norm :     0.0194660 Eh/α   predicted    -0.1551422E-02 (  10.14%)
   displ. norm   :     0.4588017 α      lambda       -0.1973188E-02
   maximum displ.:     0.2601212 α      in ANC's #7, #8, #18, ...

........................................................................
.............................. CYCLE   31 ..............................
........................................................................

 iter      E             dE          RMSdq      gap      omega  full diag
   1   -154.0117705 -0.154012E+03  0.109E-01    0.16       0.0  T
   2   -154.0076879  0.408258E-02  0.157E-01    0.10       1.0  T
   3   -154.0103840 -0.269613E-02  0.106E-01    0.23       1.0  T
   4   -154.0110797 -0.695665E-03  0.698E-02    0.20       1.0  T
   5   -154.0113744 -0.294636E-03  0.513E-02    0.19       1.0  T
   6   -154.0118164 -0.442060E-03  0.190E-02    0.16       1.0  T
   7   -154.0118263 -0.989147E-05  0.149E-02    0.14       1.0  T
   8   -154.0118698 -0.434628E-04  0.254E-03    0.15       4.0  T
   9   -154.0118703 -0.521353E-06  0.129E-03    0.15       7.9  T
  10   -154.0118701  0.136663E-06  0.123E-03    0.15       8.3  T
  11   -154.0118704 -0.234907E-06  0.438E-04    0.15      23.3  T
  12   -154.0118704  0.237184E-07  0.462E-04    0.15      22.1  T
     SCC iter.                  ...        0 min,  0.480 sec
     gradient                   ...        0 min,  0.030 sec
 * total energy  :  -151.5360252 Eh     change       -0.5201860E-03 Eh
   gradient norm :     0.0203603 Eh/α   predicted    -0.1194271E-02 ( 129.59%)
   displ. norm   :     0.3597563 α      lambda       -0.1629878E-02
   maximum displ.:     0.2294500 α      in ANC's #7, #8, #18, ...

........................................................................
.............................. CYCLE   32 ..............................
........................................................................

 iter      E             dE          RMSdq      gap      omega  full diag
   1   -154.0023369 -0.154002E+03  0.878E-02    0.17       0.0  T
   2   -153.9981780  0.415887E-02  0.154E-01    0.10       1.0  T
   3   -154.0016422 -0.346422E-02  0.813E-02    0.20       1.0  T
   4   -154.0021181 -0.475816E-03  0.456E-02    0.18       1.0  T
   5   -154.0022508 -0.132715E-03  0.311E-02    0.17       1.0  T
   6   -154.0024239 -0.173130E-03  0.841E-03    0.16       1.2  T
   7   -154.0024007  0.231972E-04  0.115E-02    0.15       1.0  T
   8   -154.0024226 -0.218710E-04  0.453E-03    0.15       2.3  T
   9   -154.0024263 -0.371824E-05  0.982E-04    0.15      10.4  T
  10   -154.0024263 -0.135422E-07  0.643E-04    0.15      15.9  T
  11   -154.0024263 -0.348107E-07  0.248E-04    0.15      41.1  T
     SCC iter.                  ...        0 min,  0.501 sec
     gradient                   ...        0 min,  0.027 sec
 * total energy  :  -151.5367705 Eh     change       -0.7453017E-03 Eh
   gradient norm :     0.0150668 Eh/α   predicted    -0.9204157E-03 (  23.50%)
   displ. norm   :     0.2740726 α      lambda       -0.1048441E-02
   maximum displ.:     0.1144526 α      in ANC's #7, #18, #6, ...

........................................................................
.............................. CYCLE   33 ..............................
........................................................................

 iter      E             dE          RMSdq      gap      omega  full diag
   1   -153.9983590 -0.153998E+03  0.900E-02    0.17       0.0  T
   2   -153.9943954  0.396363E-02  0.153E-01    0.10       1.0  T
   3   -153.9977338 -0.333840E-02  0.831E-02    0.20       1.0  T
   4   -153.9982056 -0.471802E-03  0.443E-02    0.18       1.0  T
   5   -153.9982996 -0.940396E-04  0.302E-02    0.17       1.0  T
   6   -153.9984466 -0.146933E-03  0.108E-02    0.16       1.0  T
   7   -153.9984076  0.389586E-04  0.145E-02    0.15       1.0  T
   8   -153.9984443 -0.366628E-04  0.562E-03    0.15       1.8  T
   9   -153.9984502 -0.593271E-05  0.813E-04    0.16      12.6  T
  10   -153.9984502 -0.423168E-08  0.447E-04    0.16      22.8  T
  11   -153.9984502 -0.475421E-08  0.210E-04    0.16      48.7  T
     SCC iter.                  ...        0 min,  0.448 sec
     gradient                   ...        0 min,  0.027 sec
 * total energy  :  -151.5369609 Eh     change       -0.1904273E-03 Eh
   gradient norm :     0.0183635 Eh/α   predicted    -0.5636020E-03 ( 195.97%)
   displ. norm   :     0.2161091 α      lambda       -0.1040719E-02
   maximum displ.:     0.0932021 α      in ANC's #6, #18, #9, ...

........................................................................
.............................. CYCLE   34 ..............................
........................................................................

 iter      E             dE          RMSdq      gap      omega  full diag
   1   -154.0044823 -0.154004E+03  0.606E-02    0.17       0.0  T
   2   -154.0018487  0.263361E-02  0.118E-01    0.11       1.0  T
   3   -154.0040467 -0.219802E-02  0.574E-02    0.19       1.0  T
   4   -154.0044520 -0.405287E-03  0.300E-02    0.17       1.0  T
   5   -154.0044800 -0.279965E-04  0.218E-02    0.17       1.0  T
   6   -154.0045241 -0.441358E-04  0.148E-02    0.16       1.0  T
   7   -154.0045487 -0.245412E-04  0.412E-03    0.16       2.5  T
   8   -154.0045496 -0.951158E-06  0.142E-03    0.16       7.2  T
   9   -154.0045497 -0.109084E-06  0.513E-04    0.16      19.9  T
  10   -154.0045497  0.881499E-09  0.263E-04    0.16      38.8  T
     SCC iter.                  ...        0 min,  0.381 sec
     gradient                   ...        0 min,  0.027 sec
 * total energy  :  -151.5375161 Eh     change       -0.5551557E-03 Eh
   gradient norm :     0.0123611 Eh/α   predicted    -0.5446630E-03 (  -1.89%)
   displ. norm   :     0.3239255 α      lambda       -0.9166904E-03
   maximum displ.:     0.1580636 α      in ANC's #7, #6, #9, ...

........................................................................
.............................. CYCLE   35 ..............................
........................................................................

 iter      E             dE          RMSdq      gap      omega  full diag
   1   -154.0088285 -0.154009E+03  0.680E-02    0.17       0.0  T
   2   -154.0051628  0.366561E-02  0.143E-01    0.10       1.0  T
   3   -154.0085952 -0.343237E-02  0.591E-02    0.19       1.0  T
   4   -154.0088809 -0.285645E-03  0.209E-02    0.17       1.0  T
   5   -154.0088845 -0.367674E-05  0.143E-02    0.16       1.0  T
   6   -154.0089156 -0.310366E-04  0.620E-03    0.16       1.6  T
   7   -154.0089080  0.758600E-05  0.680E-03    0.15       1.5  T
   8   -154.0089130 -0.497982E-05  0.413E-03    0.16       2.5  T
   9   -154.0089160 -0.299237E-05  0.119E-03    0.16       8.5  T
  10   -154.0089162 -0.222490E-06  0.319E-04    0.16      32.0  T
  11   -154.0089162 -0.276430E-08  0.136E-04    0.16      75.0  T
     SCC iter.                  ...        0 min,  0.378 sec
     gradient                   ...        0 min,  0.028 sec
 * total energy  :  -151.5379630 Eh     change       -0.4469437E-03 Eh
   gradient norm :     0.0128900 Eh/α   predicted    -0.5064389E-03 (  13.31%)
   displ. norm   :     0.4024778 α      lambda       -0.6615362E-03
   maximum displ.:     0.1894730 α      in ANC's #7, #6, #18, ...

........................................................................
.............................. CYCLE   36 ..............................
........................................................................

 iter      E             dE          RMSdq      gap      omega  full diag
   1   -154.0071234 -0.154007E+03  0.547E-02    0.17       0.0  T
   2   -154.0053012  0.182216E-02  0.101E-01    0.12       1.0  T
   3   -154.0068543 -0.155308E-02  0.494E-02    0.19       1.0  T
   4   -154.0071169 -0.262613E-03  0.202E-02    0.17       1.0  T
   5   -154.0071355 -0.186160E-04  0.143E-02    0.17       1.0  T
   6   -154.0071728 -0.372844E-04  0.335E-03    0.16       3.0  T
   7   -154.0071649  0.789927E-05  0.648E-03    0.16       1.6  T
   8   -154.0071706 -0.571796E-05  0.357E-03    0.16       2.9  T
   9   -154.0071731 -0.247213E-05  0.588E-04    0.16      17.3  T
  10   -154.0071731 -0.345972E-07  0.239E-04    0.16      42.7  T
  11   -154.0071731 -0.833978E-09  0.123E-04    0.16      82.9  T
     SCC iter.                  ...        0 min,  0.377 sec
     gradient                   ...        0 min,  0.031 sec
 * total energy  :  -151.5385109 Eh     change       -0.5478869E-03 Eh
   gradient norm :     0.0110641 Eh/α   predicted    -0.3843520E-03 ( -29.85%)
   displ. norm   :     0.6515728 α      lambda       -0.1044914E-02
   maximum displ.:     0.2939715 α      in ANC's #6, #7, #18, ...

........................................................................
.............................. CYCLE   37 ..............................
........................................................................

 iter      E             dE          RMSdq      gap      omega  full diag
   1   -154.0044799 -0.154004E+03  0.861E-02    0.17       0.0  T
   2   -154.0027978  0.168214E-02  0.105E-01    0.12       1.0  T
   3   -154.0035051 -0.707280E-03  0.856E-02    0.23       1.0  T
   4   -154.0041983 -0.693260E-03  0.464E-02    0.20       1.0  T
   5   -154.0043559 -0.157569E-03  0.307E-02    0.18       1.0  T
   6   -154.0045371 -0.181235E-03  0.593E-03    0.16       1.7  T
   7   -154.0045050  0.321375E-04  0.131E-02    0.15       1.0  T
   8   -154.0045313 -0.263450E-04  0.606E-03    0.16       1.7  T
   9   -154.0045379 -0.656272E-05  0.166E-03    0.16       6.1  T
  10   -154.0045379 -0.183505E-07  0.144E-03    0.16       7.1  T
  11   -154.0045383 -0.331259E-06  0.539E-04    0.16      18.9  T
  12   -154.0045383 -0.467865E-07  0.162E-04    0.16      62.8  T
     SCC iter.                  ...        0 min,  0.510 sec
     gradient                   ...        0 min,  0.028 sec
[...]
    59   1 H        0.925     0.009     2.910     2.668
    60   1 H        0.925     0.002     3.023     2.719
    61   1 H        0.925     0.009     2.912     2.669
    62   1 H        0.926     0.047     2.354     2.399
    63   1 H        0.926     0.056     2.247     2.344
    64   1 H        0.925     0.007     2.931     2.677
    65   1 H        0.925    -0.000     3.061     2.736
    66   1 H        0.925     0.005     2.971     2.695
    67   1 H        0.926     0.047     2.359     2.402
    68   1 H        0.926     0.043     2.410     2.427
    69   1 H        0.925     0.020     2.733     2.585
    70   1 H        0.925     0.044     2.392     2.418
    71   1 H        0.925     0.041     2.436     2.441
    72   1 H        0.923     0.003     3.012     2.714
    73   1 H        0.923    -0.000     3.062     2.737
    74   1 H        0.923     0.022     2.710     2.575
    75   1 H        0.922     0.022     2.698     2.569
    76   1 H        0.925     0.031     2.571     2.507
    77   1 H        0.925     0.035     2.517     2.481
    78   1 H        0.925     0.037     2.495     2.470
    79   1 H        0.925     0.034     2.526     2.485
    80   1 H        0.925     0.028     2.613     2.528
    81   1 H        0.925     0.034     2.528     2.486
    82   1 H        0.925     0.032     2.555     2.499
    83   1 H        0.925     0.038     2.474     2.460
    84   1 H        0.925     0.034     2.533     2.489
    85   1 H        0.926     0.053     2.286     2.365
    86   1 H        0.925     0.020     2.732     2.585
    87   1 H        0.925     0.014     2.831     2.631
    88   1 H        0.926     0.018     2.766     2.601
    89   1 H        0.926     0.012     2.852     2.641
    90   1 H        0.926     0.017     2.773     2.604
    91   1 H        0.926     0.028     2.609     2.526
    92   1 H        0.926     0.030     2.592     2.518
    93   1 H        0.926     0.034     2.526     2.485
    94   1 H        0.926     0.043     2.414     2.430
    95   1 H        0.926     0.041     2.436     2.441
    96   1 H        0.926     0.045     2.384     2.415

 Mol. C6AA /au·bohr⁶  :     138456.852241
 Mol. C8AA /au·bohr⁸  :    3693081.459655
 Mol. α(0) /au        :        596.539736


Wiberg/Mayer (AO) data.
largest (>0.10) Wiberg bond orders for each atom

 ---------------------------------------------------------------------------
     #   Z sym  total        # sym  WBO       # sym  WBO       # sym  WBO
 ---------------------------------------------------------------------------
     1   6 C    3.980 --     2 C    1.507     6 C    1.308    94 H    0.965
                             4 C    0.103
     2   6 C    3.974 --     1 C    1.507     3 C    1.337    95 H    0.969
     3   6 C    3.920 --     4 C    1.486     2 C    1.337    26 Br   0.952
     4   6 C    3.983 --     3 C    1.486     5 C    1.306    96 H    0.962
                             1 C    0.103
     5   6 C    3.983 --     4 C    1.306     6 C    1.271     7 C    1.180
     6   6 C    3.982 --     1 C    1.308     5 C    1.271    36 C    1.218
     7   6 C    3.969 --     8 C    1.294     9 C    1.250     5 C    1.180
     8   6 C    3.983 --     7 C    1.294    12 C    1.288    35 C    1.214
     9   6 C    3.967 --    10 C    1.291     7 C    1.250    13 C    1.178
    10   6 C    3.943 --    11 C    1.308     9 C    1.291    37 N    1.128
    11   6 C    3.968 --    12 C    1.521    10 C    1.308    90 H    0.965
    12   6 C    3.950 --    11 C    1.521     8 C    1.288    91 H    0.968
    13   6 C    3.967 --    14 C    1.287    15 C    1.252     9 C    1.178
    14   6 C    3.940 --    18 C    1.311    13 C    1.287    37 N    1.127
    15   6 C    3.971 --    16 C    1.294    13 C    1.252    19 C    1.181
    16   6 C    3.984 --    15 C    1.294    17 C    1.290    22 C    1.214
    17   6 C    3.947 --    18 C    1.515    16 C    1.290    88 H    0.969
    18   6 C    3.968 --    17 C    1.515    14 C    1.311    89 H    0.965
    19   6 C    3.984 --    33 C    1.327    20 C    1.263    15 C    1.181
    20   6 C    3.979 --    24 C    1.306    19 C    1.263    21 C    1.221
    21   6 C    3.979 --    22 C    1.627    20 C    1.221    86 H    0.968
    22   6 C    3.975 --    21 C    1.627    16 C    1.214    87 H    0.968
    23   6 C    3.977 --    33 C    1.451    34 C    1.312    25 C    1.025
    24   6 C    3.981 --    34 C    1.528    20 C    1.306    69 H    0.968
                            33 C    0.101
    25   6 C    3.974 --    27 N    1.416    31 N    1.412    23 C    1.025
    26  35 Br   1.065 --     3 C    0.952
    27   7 N    2.806 --    25 C    1.416    28 N    0.999    31 N    0.195
    28   7 N    3.561 --    29 C    1.127    46 C    1.111    27 N    0.999
                            32 O    0.115
    29   6 C    3.959 --    32 O    1.573    28 N    1.127    30 N    1.126
    30   7 N    3.552 --    29 C    1.126    52 C    1.104    31 N    0.998
                            32 O    0.118
    31   7 N    2.801 --    25 C    1.412    30 N    0.998    27 N    0.195
    32   8 O    1.939 --    29 C    1.573    30 N    0.118    28 N    0.115
    33   6 C    3.982 --    23 C    1.451    19 C    1.327    85 H    0.956
                            24 C    0.101
    34   6 C    3.976 --    24 C    1.528    23 C    1.312    68 H    0.967
    35   6 C    3.980 --    36 C    1.631     8 C    1.214    92 H    0.967
    36   6 C    3.979 --    35 C    1.631     6 C    1.218    93 H    0.967
    37   7 N    3.528 --    10 C    1.128    14 C    1.127    45 C    1.018
    38  14 Si   3.617 --    44 C    0.901    43 C    0.900    42 C    0.892
                            39 C    0.853
    39   6 C    3.972 --    40 C    1.022    71 H    0.981    70 H    0.979
                            38 Si   0.853
    40   6 C    3.949 --    39 C    1.022    41 O    0.974    72 H    0.971
                            73 H    0.970
    41   8 O    2.068 --    40 C    0.974    45 C    0.970
    42   6 C    3.979 --    80 H    0.992    81 H    0.988    79 H    0.988
                            38 Si   0.892
    43   6 C    3.981 --    76 H    0.988    77 H    0.988    78 H    0.987
                            38 Si   0.900
    44   6 C    3.981 --    84 H    0.988    82 H    0.987    83 H    0.986
                            38 Si   0.901
    45   6 C    3.957 --    37 N    1.018    41 O    0.970    74 H    0.955
                            75 H    0.954
    46   6 C    3.959 --    51 C    1.339    47 C    1.325    28 N    1.111
    47   6 C    3.978 --    48 C    1.477    46 C    1.325    67 H    0.962
    48   6 C    3.990 --    47 C    1.477    49 C    1.412    66 H    0.971
    49   6 C    3.964 --    50 C    1.418    48 C    1.412    65 H    0.973
    50   6 C    3.988 --    51 C    1.467    49 C    1.418    64 H    0.972
    51   6 C    3.977 --    50 C    1.467    46 C    1.339    63 H    0.961
    52   6 C    3.960 --    53 C    1.342    57 C    1.333    30 N    1.104
    53   6 C    3.979 --    54 C    1.467    52 C    1.342    62 H    0.965
    54   6 C    3.989 --    53 C    1.467    55 C    1.418    61 H    0.972
    55   6 C    3.965 --    54 C    1.418    56 C    1.415    60 H    0.973
    56   6 C    3.990 --    57 C    1.474    55 C    1.415    59 H    0.972
    57   6 C    3.978 --    56 C    1.474    52 C    1.333    58 H    0.964
    58   1 H    0.998 --    57 C    0.964
    59   1 H    0.999 --    56 C    0.972
    60   1 H    1.000 --    55 C    0.973
    61   1 H    0.999 --    54 C    0.972
    62   1 H    0.998 --    53 C    0.965
    63   1 H    0.997 --    51 C    0.961
    64   1 H    0.999 --    50 C    0.972
    65   1 H    1.000 --    49 C    0.973
    66   1 H    0.999 --    48 C    0.971
    67   1 H    0.998 --    47 C    0.962
    68   1 H    0.997 --    34 C    0.967
    69   1 H    0.999 --    24 C    0.968
    70   1 H    0.998 --    39 C    0.979
    71   1 H    0.998 --    39 C    0.981
    72   1 H    1.000 --    40 C    0.971
    73   1 H    1.000 --    40 C    0.970
    74   1 H    0.999 --    45 C    0.955
    75   1 H    0.998 --    45 C    0.954
    76   1 H    0.999 --    43 C    0.988
    77   1 H    0.999 --    43 C    0.988
    78   1 H    0.999 --    43 C    0.987
    79   1 H    0.999 --    42 C    0.988
    80   1 H    0.999 --    42 C    0.992
    81   1 H    0.999 --    42 C    0.988
    82   1 H    0.999 --    44 C    0.987
    83   1 H    0.999 --    44 C    0.986
    84   1 H    0.999 --    44 C    0.988
    85   1 H    0.997 --    33 C    0.956
    86   1 H    0.998 --    21 C    0.968
    87   1 H    0.999 --    22 C    0.968
    88   1 H    0.999 --    17 C    0.969
    89   1 H    0.998 --    18 C    0.965
    90   1 H    0.998 --    11 C    0.965
    91   1 H    0.998 --    12 C    0.968
    92   1 H    0.998 --    35 C    0.967
    93   1 H    0.997 --    36 C    0.967
    94   1 H    0.998 --     1 C    0.965
    95   1 H    0.998 --     2 C    0.969
    96   1 H    0.998 --     4 C    0.962
 ---------------------------------------------------------------------------

Topologies differ in bond orders
Writing corrected topology to xtbtopo.mol

molecular dipole:
                 x           y           z       tot (Debye)
 q only:       -4.862       2.583       6.003
   full:       -5.510       1.622       5.795      20.738
molecular quadrupole (traceless):
                xx          xy          yy          xz          yz          zz
 q only:       14.307       7.059     -17.112      32.999     -19.404       2.805
  q+dip:       22.713      -7.891     -16.698      31.642     -23.810      -6.016
   full:       16.908      -6.071     -22.753      37.736     -19.110       5.845

           -------------------------------------------------
          |                Geometry Summary                 |
           -------------------------------------------------

      molecular mass/u    :      825.8463648
   center of mass at/Å    :        0.1769046       1.0296800      -1.4601867
  moments of inertia/u·Å² :        0.7390782E+04   0.1987610E+05   0.2426469E+05
rotational constants/cm⁻¹ :        0.2280900E-02   0.8481359E-03   0.6947392E-03

 * 102 selected distances

     #   Z          #   Z                                           value/Å
     1   6 C        2   6 C                                       1.3712283
     2   6 C        3   6 C                                       1.3931127
     3   6 C        4   6 C                                       1.3688937
     4   6 C        5   6 C                                       1.4052979
     1   6 C        6   6 C                                       1.4050834
     5   6 C        6   6 C                                       1.4163030
     5   6 C        7   6 C                                       1.4353062
     7   6 C        8   6 C                                       1.4149666
     7   6 C        9   6 C                                       1.4209518
     9   6 C       10   6 C                                       1.4124468
    10   6 C       11   6 C                                       1.3939740
     8   6 C       12   6 C                                       1.4083840
    11   6 C       12   6 C                                       1.3701356
     9   6 C       13   6 C                                       1.4433435
    13   6 C       14   6 C                                       1.4123840
    13   6 C       15   6 C                                       1.4197899
    15   6 C       16   6 C                                       1.4147735
    16   6 C       17   6 C                                       1.4086014
    14   6 C       18   6 C                                       1.3937134
    17   6 C       18   6 C                                       1.3714697
    15   6 C       19   6 C                                       1.4343858
    19   6 C       20   6 C                                       1.4160787
    20   6 C       21   6 C                                       1.4201519
    16   6 C       22   6 C                                       1.4240971
    21   6 C       22   6 C                                       1.3551842
    20   6 C       24   6 C                                       1.4058011
     3   6 C       26  35 Br                                      1.9047071
    25   6 C       27   7 N                                       1.3119753
    28   7 N       29   6 C                                       1.3799537
    29   6 C       30   7 N                                       1.3809308
    25   6 C       31   7 N                                       1.3125677
    29   6 C       32   8 O                                       1.2225672
    19   6 C       33   6 C                                       1.3986939
    23   6 C       33   6 C                                       1.3781954
    23   6 C       34   6 C                                       1.4024406
    24   6 C       34   6 C                                       1.3708101
     8   6 C       35   6 C                                       1.4229110
     6   6 C       36   6 C                                       1.4203800
    35   6 C       36   6 C                                       1.3536216
    10   6 C       37   7 N                                       1.3778044
    14   6 C       37   7 N                                       1.3775817
    38  14 Si      39   6 C                                       1.9109109 (max)
    39   6 C       40   6 C                                       1.5175129
    40   6 C       41   8 O                                       1.4077602
    38  14 Si      42   6 C                                       1.9082240
    38  14 Si      43   6 C                                       1.9104825
    38  14 Si      44   6 C                                       1.9103870
    37   7 N       45   6 C                                       1.4176185
    41   8 O       45   6 C                                       1.4096006
    28   7 N       46   6 C                                       1.3884980
    46   6 C       47   6 C                                       1.4034544
    47   6 C       48   6 C                                       1.3765475
    48   6 C       49   6 C                                       1.3864760
    49   6 C       50   6 C                                       1.3858259
    46   6 C       51   6 C                                       1.3995835
    50   6 C       51   6 C                                       1.3803125
    30   7 N       52   6 C                                       1.3888156
    52   6 C       53   6 C                                       1.3987534
    53   6 C       54   6 C                                       1.3799775
    54   6 C       55   6 C                                       1.3862689
    55   6 C       56   6 C                                       1.3866343
    52   6 C       57   6 C                                       1.4015896
    56   6 C       57   6 C                                       1.3775290
    57   6 C       58   1 H                                       1.0778214
    56   6 C       59   1 H                                       1.0823891
    55   6 C       60   1 H                                       1.0815155
    54   6 C       61   1 H                                       1.0822851
    53   6 C       62   1 H                                       1.0766169
    51   6 C       63   1 H                                       1.0757863
    50   6 C       64   1 H                                       1.0824980
    49   6 C       65   1 H                                       1.0817769
    48   6 C       66   1 H                                       1.0824404
    47   6 C       67   1 H                                       1.0763561
    34   6 C       68   1 H                                       1.0788737
    24   6 C       69   1 H                                       1.0823249
    39   6 C       70   1 H                                       1.0899426
    39   6 C       71   1 H                                       1.0897413
    40   6 C       72   1 H                                       1.1017330
    40   6 C       73   1 H                                       1.1026217
    45   6 C       74   1 H                                       1.1043138
    45   6 C       75   1 H                                       1.1046708
    43   6 C       76   1 H                                       1.0859873
    43   6 C       77   1 H                                       1.0859993
    43   6 C       78   1 H                                       1.0859626
    42   6 C       79   1 H                                       1.0854354
    42   6 C       80   1 H                                       1.0854033
    42   6 C       81   1 H                                       1.0853120
    44   6 C       82   1 H                                       1.0860438
    44   6 C       83   1 H                                       1.0859961
    44   6 C       84   1 H                                       1.0860371
    33   6 C       85   1 H                                       1.0754062 (min)
    21   6 C       86   1 H                                       1.0813136
    22   6 C       87   1 H                                       1.0819893
    17   6 C       88   1 H                                       1.0811648
    18   6 C       89   1 H                                       1.0801132
    11   6 C       90   1 H                                       1.0798105
    12   6 C       91   1 H                                       1.0801241
    35   6 C       92   1 H                                       1.0806641
    36   6 C       93   1 H                                       1.0806457
     1   6 C       94   1 H                                       1.0802402
     2   6 C       95   1 H                                       1.0792365
     4   6 C       96   1 H                                       1.0780693

 * 6 distinct bonds (by element types)

   Z      Z             #   av. dist./Å        max./Å        min./Å
   1 H    6 C          39     1.0842221     1.1046708     1.0754062
   6 C    6 C          46     1.4013777     1.5175129     1.3536216
   6 C    7 N           9     1.3706384     1.4176185     1.3119753
   6 C    8 O           3     1.3466427     1.4096006     1.2225672
   6 C   14 Si          4     1.9100011     1.9109109     1.9082240
   6 C   35 Br          1     1.9047071     1.9047071     1.9047071


optimized geometry written to: xtbopt.mol


           -------------------------------------------------
          | TOTAL ENERGY             -151.544055277615 Eh   |
          | GRADIENT NORM               0.000394832610 Eh/α |
          | HOMO-LUMO GAP               0.174899662983 eV   |
           -------------------------------------------------
########################################################################
[WARNING] Runtime exception occurred
-2- restart_readRestart: Multiplicity missmatch in restart file.
-1- restart_readRestart: Number of electron missmatch in restart file.
########################################################################

------------------------------------------------------------------------
 * finished run on 2024/11/14 at 13:19:22.503     
Note: The following floating-point exceptions are signalling: IEEE_UNDERFLOW_FLAG
normal termination of xtb
------------------------------------------------------------------------
 total:
 * wall-time:     0 d,  0 h,  0 min, 58.662 sec
 *  cpu-time:     0 d,  0 h,  3 min,  6.585 sec
 * ratio c/w:     3.181 speedup
 SCF:
 * wall-time:     0 d,  0 h,  0 min,  1.906 sec
 *  cpu-time:     0 d,  0 h,  0 min,  6.991 sec
 * ratio c/w:     3.668 speedup
 ANC optimizer:
 * wall-time:     0 d,  0 h,  0 min, 56.740 sec
 *  cpu-time:     0 d,  0 h,  2 min, 59.568 sec
 * ratio c/w:     3.165 speedup

