      -----------------------------------------------------------      
     |                   =====================                   |     
     |                           x T B                           |     
     |                   =====================                   |     
     |                         S. Grimme                         |     
     |          Mulliken Center for Theoretical Chemistry        |     
     |                    University of Bonn                     |     
      -----------------------------------------------------------      

   * xtb version 6.6.1 (8d0f1dd) compiled by 'runner@Mac-1690902418499.local' on 2023-08-01

   xtb is free software: you can redistribute it and/or modify it under
   the terms of the GNU Lesser General Public License as published by
   the Free Software Foundation, either version 3 of the License, or
   (at your option) any later version.
   
   xtb is distributed in the hope that it will be useful,
   but WITHOUT ANY WARRANTY; without even the implied warranty of
   MERCHANTABILITY or FITNESS FOR A PARTICULAR PURPOSE.  See the
   GNU Lesser General Public License for more details.
   
   Cite this work as:
   * C. Bannwarth, E. Caldeweyher, S. Ehlert, A. Hansen, P. Pracht,
     J. Seibert, S. Spicher, S. Grimme, WIREs Comput. Mol. Sci., 2020, 11,
     e01493. DOI: 10.1002/wcms.1493
   
   for GFN2-xTB:
   * C. Bannwarth, S. Ehlert and S. Grimme., J. Chem. Theory Comput., 2019,
     15, 1652-1671. DOI: 10.1021/acs.jctc.8b01176
   for GFN1-xTB:
   * S. Grimme, C. Bannwarth, P. Shushkov, J. Chem. Theory Comput., 2017,
     13, 1989-2009. DOI: 10.1021/acs.jctc.7b00118
   for GFN0-xTB:
   * P. Pracht, E. Caldeweyher, S. Ehlert, S. Grimme, ChemRxiv, 2019, preprint.
     DOI: 10.26434/chemrxiv.8326202.v1
   for GFN-FF:
   * S. Spicher and S. Grimme, Angew. Chem. Int. Ed., 2020, 59, 15665-15673.
     DOI: 10.1002/anie.202004239
   
   for ALPB and GBSA implicit solvation:
   * S. Ehlert, M. Stahn, S. Spicher, S. Grimme, J. Chem. Theory Comput.,
     2021, 17, 4250-4261. DOI: 10.1021/acs.jctc.1c00471
   
   for DFT-D4:
   * E. Caldeweyher, C. Bannwarth and S. Grimme, J. Chem. Phys., 2017,
     147, 034112. DOI: 10.1063/1.4993215
   * E. Caldeweyher, S. Ehlert, A. Hansen, H. Neugebauer, S. Spicher,
     C. Bannwarth and S. Grimme, J. Chem. Phys., 2019, 150, 154122.
     DOI: 10.1063/1.5090222
   * E. Caldeweyher, J.-M. Mewes, S. Ehlert and S. Grimme, Phys. Chem. Chem. Phys.
     2020, 22, 8499-8512. DOI: 10.1039/D0CP00502A
   
   for sTDA-xTB:
   * S. Grimme and C. Bannwarth, J. Chem. Phys., 2016, 145, 054103.
     DOI: 10.1063/1.4959605
   
   in the mass-spec context:
   * V. Asgeirsson, C. Bauer and S. Grimme, Chem. Sci., 2017, 8, 4879.
     DOI: 10.1039/c7sc00601b
   * J. Koopman and S. Grimme, ACS Omega 2019, 4, 12, 15120-15133.
     DOI: 10.1021/acsomega.9b02011
   
   for metadynamics refer to:
   * S. Grimme, J. Chem. Theory Comput., 2019, 155, 2847-2862
     DOI: 10.1021/acs.jctc.9b00143
   
   for SPH calculations refer to:
   * S. Spicher and S. Grimme, J. Chem. Theory Comput., 2021, 17, 1701-1714
     DOI: 10.1021/acs.jctc.0c01306
   
   with help from (in alphabetical order)
   P. Atkinson, C. Bannwarth, F. Bohle, G. Brandenburg, E. Caldeweyher
   M. Checinski, S. Dohm, S. Ehlert, S. Ehrlich, I. Gerasimov, C. Hölzer
   A. Katbashev, J. Koopman, C. Lavigne, S. Lehtola, F. März, M. Müller,
   F. Musil, H. Neugebauer, J. Pisarek, C. Plett, P. Pracht, F. Pultar,
   J. Seibert, P. Shushkov, S. Spicher, M. Stahn, M. Steiner, T. Strunk,
   J. Stückrath, T. Rose, and J. Unsleber
   
 * started run on 2024/11/14 at 13:21:00.306     

           -------------------------------------------------
          |                Calculation Setup                |
           -------------------------------------------------

          program call               : xtb opt_anion_Verdazyl4.mol --gfn2 --sp --chrg -1 --uhf 0
          coordinate file            : opt_anion_Verdazyl4.mol
          omp threads                :                     8

   ID    Z sym.   atoms
    1    6 C      1-25, 29, 33-36, 39, 40, 42-57
    2   35 Br     26
    3    7 N      27, 28, 30, 31, 37
    4    8 O      32, 41
    5   14 Si     38
    6    1 H      58-96
########################################################################
[WARNING] Please study the warnings concerning your input carefully
-1- prog_main: Charge in sdf/mol input was overwritten
########################################################################

           -------------------------------------------------
          |                 G F N 2 - x T B                 |
           -------------------------------------------------

        Reference                      10.1021/acs.jctc.8b01176
      * Hamiltonian:
        H0-scaling (s, p, d)           1.850000    2.230000    2.230000
        zeta-weighting                 0.500000
      * Dispersion:
        s8                             2.700000
        a1                             0.520000
        a2                             5.000000
        s9                             5.000000
      * Repulsion:
        kExp                           1.500000    1.000000
        rExp                           1.000000
      * Coulomb:
        alpha                          2.000000
        third order                    shell-resolved
        anisotropic                    true
        a3                             3.000000
        a5                             4.000000
        cn-shift                       1.200000
        cn-exp                         4.000000
        max-rad                        5.000000

q/qsh data taken from xtbrestart
CAMM data taken from xtbrestart

          ...................................................
          :                      SETUP                      :
          :.................................................:
          :  # basis functions                 279          :
          :  # atomic orbitals                 277          :
          :  # shells                          155          :
          :  # electrons                       280          :
          :  max. iterations                   250          :
          :  Hamiltonian                  GFN2-xTB          :
          :  restarted?                       true          :
          :  GBSA solvation                  false          :
          :  PC potential                    false          :
          :  electronic temp.          300.0000000     K    :
          :  accuracy                    1.0000000          :
          :  -> integral cutoff          0.2500000E+02      :
          :  -> integral neglect         0.1000000E-07      :
          :  -> SCF convergence          0.1000000E-05 Eh   :
          :  -> wf. convergence          0.1000000E-03 e    :
          :  Broyden damping             0.4000000          :
          ...................................................

 iter      E             dE          RMSdq      gap      omega  full diag
   1   -153.9718072 -0.153972E+03  0.729E-01    2.03       0.0  T
   2   -154.0039625 -0.321553E-01  0.493E-01    0.29       1.0  T
   3   -154.0112643 -0.730171E-02  0.278E-01    0.31       1.0  T
   4   -153.8008282  0.210436E+00  0.101E+00    0.04       1.0  T
   5   -154.0118889 -0.211061E+00  0.215E-01    0.41       1.0  T
   6   -154.0126554 -0.766559E-03  0.123E-01    0.34       1.0  T
   7   -154.0122178  0.437621E-03  0.120E-01    0.38       1.0  T
   8   -154.0126335 -0.415638E-03  0.110E-01    0.36       1.0  T
   9   -154.0129648 -0.331362E-03  0.921E-02    0.32       1.0  T
  10   -154.0132902 -0.325332E-03  0.761E-02    0.28       1.0  T
  11   -154.0135371 -0.246993E-03  0.628E-02    0.25       1.0  T
  12   -154.0137340 -0.196807E-03  0.519E-02    0.23       1.0  T
  13   -154.0139691 -0.235158E-03  0.360E-02    0.21       1.0  T
  14   -154.0141187 -0.149577E-03  0.214E-02    0.19       1.0  T
  15   -154.0141998 -0.811379E-04  0.409E-03    0.18       2.5  T
  16   -154.0142019 -0.209484E-05  0.207E-03    0.17       4.9  T
  17   -154.0142013  0.657004E-06  0.273E-03    0.17       3.7  T
  18   -154.0142021 -0.794493E-06  0.180E-03    0.17       5.7  T
  19   -154.0142025 -0.421811E-06  0.963E-04    0.17      10.6  T
  20   -154.0142026 -0.155501E-06  0.304E-04    0.17      33.6  T

   *** convergence criteria satisfied after 20 iterations ***

         #    Occupation            Energy/Eh            Energy/eV
      -------------------------------------------------------------
         1        2.0000           -0.7476389             -20.3443
       ...           ...                  ...                  ...
       134        2.0000           -0.2808231              -7.6416
       135        2.0000           -0.2790214              -7.5926
       136        2.0000           -0.2785662              -7.5802
       137        2.0000           -0.2759174              -7.5081
       138        2.0000           -0.2598786              -7.0717
       139        2.0000           -0.2276405              -6.1944
       140        1.9340           -0.1893149              -5.1515 (HOMO)
       141        0.0660           -0.1828970              -4.9769 (LUMO)
       142        0.0000           -0.1745045              -4.7485
       143                         -0.1626550              -4.4261
       144                         -0.1510062              -4.1091
       145                         -0.1274262              -3.4674
       ...                                ...                  ...
       277                          0.8288188              22.5533
      -------------------------------------------------------------
                  HL-Gap            0.0064179 Eh            0.1746 eV
             Fermi-level           -0.1861060 Eh           -5.0642 eV

 SCC (total)                   0 d,  0 h,  0 min,  1.506 sec
 SCC setup                      ...        0 min,  0.000 sec (  0.023%)
 Dispersion                     ...        0 min,  0.001 sec (  0.070%)
 classical contributions        ...        0 min,  0.000 sec (  0.018%)
 integral evaluation            ...        0 min,  0.005 sec (  0.357%)
 iterations                     ...        0 min,  1.471 sec ( 97.665%)
 molecular gradient             ...        0 min,  0.027 sec (  1.798%)
 printout                       ...        0 min,  0.001 sec (  0.069%)

         :::::::::::::::::::::::::::::::::::::::::::::::::::::
         ::                     SUMMARY                     ::
         :::::::::::::::::::::::::::::::::::::::::::::::::::::
         :: total energy            -151.544055115288 Eh    ::
         :: gradient norm              0.000607916377 Eh/a0 ::
         :: HOMO-LUMO gap              0.174640853125 eV    ::
         ::.................................................::
         :: SCC energy              -154.014202637253 Eh    ::
         :: -> isotropic ES            0.184284561295 Eh    ::
         :: -> anisotropic ES          0.015039919572 Eh    ::
         :: -> anisotropic XC          0.068144188872 Eh    ::
         :: -> dispersion             -0.158883198942 Eh    ::
         :: repulsion energy           2.465800928586 Eh    ::
         :: add. restraining           0.000000000000 Eh    ::
         :: total charge              -0.999997249798 e     ::
         :::::::::::::::::::::::::::::::::::::::::::::::::::::

           -------------------------------------------------
          |                Property Printout                |
           -------------------------------------------------

    * Orbital Energies and Occupations

         #    Occupation            Energy/Eh            Energy/eV
      -------------------------------------------------------------
         1        2.0000           -0.7476389             -20.3443
       ...           ...                  ...                  ...
       128        2.0000           -0.3023783              -8.2281
       129        2.0000           -0.2978127              -8.1039
       130        2.0000           -0.2954685              -8.0401
       131        2.0000           -0.2934004              -7.9838
       132        2.0000           -0.2898347              -7.8868
       133        2.0000           -0.2888752              -7.8607
       134        2.0000           -0.2808231              -7.6416
       135        2.0000           -0.2790214              -7.5926
       136        2.0000           -0.2785662              -7.5802
       137        2.0000           -0.2759174              -7.5081
       138        2.0000           -0.2598786              -7.0717
       139        2.0000           -0.2276405              -6.1944
       140        1.9340           -0.1893149              -5.1515 (HOMO)
       141        0.0660           -0.1828970              -4.9769 (LUMO)
       142        0.0000           -0.1745045              -4.7485
       143                         -0.1626550              -4.4261
       144                         -0.1510062              -4.1091
       145                         -0.1274262              -3.4674
       146                         -0.1237164              -3.3665
       147                         -0.1190478              -3.2395
       148                         -0.1135158              -3.0889
       149                         -0.1118278              -3.0430
       150                         -0.1107350              -3.0133
       151                         -0.1073805              -2.9220
       ...                                ...                  ...
       277                          0.8288188              22.5533
      -------------------------------------------------------------
                  HL-Gap            0.0064179 Eh            0.1746 eV
             Fermi-level           -0.1861060 Eh           -5.0642 eV

     #   Z          covCN         q      C6AA      α(0)
     1   6 C        2.927    -0.027    28.669     8.781
     2   6 C        2.989    -0.036    28.883     8.816
     3   6 C        2.918     0.073    26.358     8.419
     4   6 C        3.003    -0.041    28.993     8.833
     5   6 C        2.987     0.012    27.743     8.640
     6   6 C        2.988     0.017    27.625     8.622
     7   6 C        2.978     0.010    27.787     8.647
     8   6 C        2.986     0.009    27.818     8.652
     9   6 C        3.058    -0.020    28.450     8.747
    10   6 C        3.086     0.045    26.906     8.503
    11   6 C        2.907    -0.052    29.285     8.873
    12   6 C        2.928    -0.038    28.937     8.822
    13   6 C        3.061    -0.023    28.507     8.756
    14   6 C        3.085     0.041    26.983     8.515
    15   6 C        2.981     0.004    27.933     8.669
    16   6 C        2.985    -0.002    28.059     8.689
    17   6 C        2.926    -0.045    29.122     8.850
    18   6 C        2.907    -0.056    29.387     8.889
    19   6 C        2.984     0.004    27.923     8.668
    20   6 C        2.987     0.008    27.843     8.656
    21   6 C        2.913    -0.037    28.917     8.818
    22   6 C        2.916    -0.043    29.062     8.840
    23   6 C        2.991     0.004    27.923     8.668
    24   6 C        2.919    -0.038    28.955     8.824
    25   6 C        2.864     0.163    24.489     8.112
    26  35 Br       1.081    -0.198   190.555    22.257
    27   7 N        1.924    -0.358    30.155     8.142
    28   7 N        2.837    -0.016    21.559     6.896
    29   6 C        2.700     0.311    21.715     7.627
    30   7 N        2.843    -0.019    21.612     6.905
    31   7 N        1.922    -0.355    30.074     8.131
    32   8 O        0.859    -0.497    23.725     6.530
    33   6 C        2.930    -0.038    28.949     8.824
    34   6 C        2.919    -0.031    28.773     8.796
    35   6 C        2.918    -0.029    28.719     8.788
    36   6 C        2.914    -0.028    28.704     8.785
    37   7 N        2.795    -0.059    22.386     7.027
    38  14 Si       3.506     0.483   100.793    19.414
    39   6 C        3.699    -0.169    23.978     7.003
    40   6 C        3.715     0.096    19.116     6.246
    41   8 O        1.702    -0.323    19.396     5.946
    42   6 C        3.649    -0.209    25.023     7.187
    43   6 C        3.648    -0.207    24.990     7.182
    44   6 C        3.648    -0.207    24.983     7.181
    45   6 C        3.643     0.160    18.334     6.155
    46   6 C        2.921     0.070    26.439     8.432
    47   6 C        2.926    -0.049    29.220     8.865
    48   6 C        2.919    -0.036    28.888     8.814
    49   6 C        2.917    -0.054    29.340     8.882
    50   6 C        2.921    -0.038    28.945     8.823
    51   6 C        2.919    -0.059    29.460     8.901
    52   6 C        2.923     0.071    26.414     8.428
    53   6 C        2.919    -0.052    29.290     8.875
    54   6 C        2.920    -0.037    28.911     8.817
    55   6 C        2.917    -0.053    29.305     8.877
    56   6 C        2.919    -0.037    28.916     8.818
    57   6 C        2.925    -0.050    29.236     8.867
    58   1 H        0.926     0.049     2.332     2.388
    59   1 H        0.925     0.009     2.910     2.667
    60   1 H        0.925     0.002     3.023     2.719
    61   1 H        0.925     0.009     2.912     2.669
    62   1 H        0.926     0.047     2.353     2.399
    63   1 H        0.926     0.056     2.247     2.344
    64   1 H        0.925     0.008     2.931     2.677
    65   1 H        0.925    -0.000     3.060     2.736
    66   1 H        0.925     0.005     2.971     2.696
    67   1 H        0.926     0.047     2.358     2.401
    68   1 H        0.926     0.043     2.410     2.427
    69   1 H        0.925     0.020     2.733     2.585
    70   1 H        0.925     0.044     2.392     2.418
    71   1 H        0.925     0.041     2.436     2.441
    72   1 H        0.923     0.003     3.012     2.714
    73   1 H        0.923    -0.000     3.062     2.737
    74   1 H        0.923     0.022     2.711     2.575
    75   1 H        0.923     0.022     2.698     2.569
    76   1 H        0.925     0.031     2.571     2.507
    77   1 H        0.925     0.035     2.517     2.481
    78   1 H        0.925     0.037     2.495     2.470
    79   1 H        0.925     0.034     2.526     2.485
    80   1 H        0.925     0.028     2.613     2.528
    81   1 H        0.925     0.034     2.528     2.486
    82   1 H        0.925     0.032     2.555     2.499
    83   1 H        0.925     0.038     2.474     2.460
    84   1 H        0.925     0.034     2.533     2.489
    85   1 H        0.926     0.053     2.286     2.365
    86   1 H        0.925     0.020     2.732     2.585
    87   1 H        0.925     0.014     2.831     2.631
    88   1 H        0.926     0.018     2.766     2.601
    89   1 H        0.926     0.012     2.852     2.641
    90   1 H        0.926     0.017     2.773     2.604
    91   1 H        0.926     0.028     2.609     2.526
    92   1 H        0.926     0.030     2.592     2.517
    93   1 H        0.926     0.034     2.526     2.485
    94   1 H        0.926     0.043     2.414     2.430
    95   1 H        0.926     0.041     2.436     2.441
    96   1 H        0.926     0.045     2.384     2.415

 Mol. C6AA /au·bohr⁶  :     138456.638569
 Mol. C8AA /au·bohr⁸  :    3693079.163015
 Mol. α(0) /au        :        596.539292


Wiberg/Mayer (AO) data.
largest (>0.10) Wiberg bond orders for each atom

 ---------------------------------------------------------------------------
     #   Z sym  total        # sym  WBO       # sym  WBO       # sym  WBO
 ---------------------------------------------------------------------------
     1   6 C    3.980 --     2 C    1.507     6 C    1.308    94 H    0.965
                             4 C    0.103
     2   6 C    3.974 --     1 C    1.507     3 C    1.337    95 H    0.969
     3   6 C    3.920 --     4 C    1.486     2 C    1.337    26 Br   0.952
     4   6 C    3.983 --     3 C    1.486     5 C    1.306    96 H    0.962
                             1 C    0.103
     5   6 C    3.983 --     4 C    1.306     6 C    1.271     7 C    1.180
     6   6 C    3.982 --     1 C    1.308     5 C    1.271    36 C    1.218
     7   6 C    3.969 --     8 C    1.294     9 C    1.250     5 C    1.180
     8   6 C    3.983 --     7 C    1.294    12 C    1.289    35 C    1.214
     9   6 C    3.967 --    10 C    1.291     7 C    1.250    13 C    1.178
    10   6 C    3.943 --    11 C    1.308     9 C    1.291    37 N    1.128
    11   6 C    3.968 --    12 C    1.521    10 C    1.308    90 H    0.965
    12   6 C    3.950 --    11 C    1.521     8 C    1.289    91 H    0.968
    13   6 C    3.967 --    14 C    1.287    15 C    1.252     9 C    1.178
    14   6 C    3.940 --    18 C    1.311    13 C    1.287    37 N    1.127
    15   6 C    3.971 --    16 C    1.294    13 C    1.252    19 C    1.181
    16   6 C    3.984 --    15 C    1.294    17 C    1.290    22 C    1.214
    17   6 C    3.947 --    18 C    1.515    16 C    1.290    88 H    0.969
    18   6 C    3.968 --    17 C    1.515    14 C    1.311    89 H    0.965
    19   6 C    3.984 --    33 C    1.327    20 C    1.263    15 C    1.181
    20   6 C    3.979 --    24 C    1.306    19 C    1.263    21 C    1.221
    21   6 C    3.979 --    22 C    1.628    20 C    1.221    86 H    0.968
    22   6 C    3.975 --    21 C    1.628    16 C    1.214    87 H    0.968
    23   6 C    3.977 --    33 C    1.451    34 C    1.312    25 C    1.025
    24   6 C    3.981 --    34 C    1.528    20 C    1.306    69 H    0.968
                            33 C    0.101
    25   6 C    3.974 --    27 N    1.416    31 N    1.412    23 C    1.025
    26  35 Br   1.065 --     3 C    0.952
    27   7 N    2.806 --    25 C    1.416    28 N    0.999    31 N    0.195
    28   7 N    3.561 --    29 C    1.127    46 C    1.111    27 N    0.999
                            32 O    0.115
    29   6 C    3.959 --    32 O    1.573    28 N    1.127    30 N    1.126
    30   7 N    3.552 --    29 C    1.126    52 C    1.104    31 N    0.998
                            32 O    0.118
    31   7 N    2.801 --    25 C    1.412    30 N    0.998    27 N    0.195
    32   8 O    1.939 --    29 C    1.573    30 N    0.118    28 N    0.115
    33   6 C    3.982 --    23 C    1.451    19 C    1.327    85 H    0.956
                            24 C    0.101
    34   6 C    3.976 --    24 C    1.528    23 C    1.312    68 H    0.967
    35   6 C    3.980 --    36 C    1.631     8 C    1.214    92 H    0.967
    36   6 C    3.979 --    35 C    1.631     6 C    1.218    93 H    0.967
    37   7 N    3.528 --    10 C    1.128    14 C    1.127    45 C    1.018
    38  14 Si   3.617 --    44 C    0.901    43 C    0.900    42 C    0.892
                            39 C    0.853
    39   6 C    3.972 --    40 C    1.022    71 H    0.981    70 H    0.979
                            38 Si   0.853
    40   6 C    3.949 --    39 C    1.022    41 O    0.974    72 H    0.971
                            73 H    0.970
    41   8 O    2.068 --    40 C    0.974    45 C    0.970
    42   6 C    3.979 --    80 H    0.992    81 H    0.988    79 H    0.988
                            38 Si   0.892
    43   6 C    3.981 --    76 H    0.988    77 H    0.988    78 H    0.987
                            38 Si   0.900
    44   6 C    3.981 --    84 H    0.988    82 H    0.987    83 H    0.986
                            38 Si   0.901
    45   6 C    3.957 --    37 N    1.018    41 O    0.970    74 H    0.955
                            75 H    0.954
    46   6 C    3.959 --    51 C    1.339    47 C    1.325    28 N    1.111
    47   6 C    3.978 --    48 C    1.477    46 C    1.325    67 H    0.962
    48   6 C    3.990 --    47 C    1.477    49 C    1.412    66 H    0.971
    49   6 C    3.964 --    50 C    1.418    48 C    1.412    65 H    0.973
    50   6 C    3.988 --    51 C    1.467    49 C    1.418    64 H    0.972
    51   6 C    3.977 --    50 C    1.467    46 C    1.339    63 H    0.961
    52   6 C    3.960 --    53 C    1.342    57 C    1.333    30 N    1.104
    53   6 C    3.979 --    54 C    1.467    52 C    1.342    62 H    0.965
    54   6 C    3.989 --    53 C    1.467    55 C    1.419    61 H    0.972
    55   6 C    3.965 --    54 C    1.419    56 C    1.415    60 H    0.973
    56   6 C    3.990 --    57 C    1.474    55 C    1.415    59 H    0.972
    57   6 C    3.978 --    56 C    1.474    52 C    1.333    58 H    0.964
    58   1 H    0.998 --    57 C    0.964
    59   1 H    0.999 --    56 C    0.972
    60   1 H    1.000 --    55 C    0.973
Note: The following floating-point exceptions are signalling: IEEE_UNDERFLOW_FLAG
normal termination of xtb
    61   1 H    0.999 --    54 C    0.972
    62   1 H    0.998 --    53 C    0.965
    63   1 H    0.997 --    51 C    0.961
    64   1 H    0.999 --    50 C    0.972
    65   1 H    1.000 --    49 C    0.973
    66   1 H    0.999 --    48 C    0.971
    67   1 H    0.998 --    47 C    0.962
    68   1 H    0.997 --    34 C    0.967
    69   1 H    0.999 --    24 C    0.968
    70   1 H    0.998 --    39 C    0.979
    71   1 H    0.998 --    39 C    0.981
    72   1 H    1.000 --    40 C    0.971
    73   1 H    1.000 --    40 C    0.970
    74   1 H    0.999 --    45 C    0.955
    75   1 H    0.998 --    45 C    0.954
    76   1 H    0.999 --    43 C    0.988
    77   1 H    0.999 --    43 C    0.988
    78   1 H    0.999 --    43 C    0.987
    79   1 H    0.999 --    42 C    0.988
    80   1 H    0.999 --    42 C    0.992
    81   1 H    0.999 --    42 C    0.988
    82   1 H    0.999 --    44 C    0.987
    83   1 H    0.999 --    44 C    0.986
    84   1 H    0.999 --    44 C    0.988
    85   1 H    0.997 --    33 C    0.956
    86   1 H    0.998 --    21 C    0.968
    87   1 H    0.999 --    22 C    0.968
    88   1 H    0.999 --    17 C    0.969
    89   1 H    0.998 --    18 C    0.965
    90   1 H    0.998 --    11 C    0.965
    91   1 H    0.998 --    12 C    0.968
    92   1 H    0.998 --    35 C    0.967
    93   1 H    0.997 --    36 C    0.967
    94   1 H    0.998 --     1 C    0.965
    95   1 H    0.998 --     2 C    0.969
    96   1 H    0.998 --     4 C    0.962
 ---------------------------------------------------------------------------

Topologies differ in bond orders
Writing corrected topology to xtbtopo.mol

molecular dipole:
                 x           y           z       tot (Debye)
 q only:       -4.862       2.583       6.003
   full:       -5.509       1.622       5.794      20.736
molecular quadrupole (traceless):
                xx          xy          yy          xz          yz          zz
 q only:       14.310       7.054     -17.114      32.991     -19.402       2.805
  q+dip:       22.714      -7.897     -16.699      31.635     -23.808      -6.016
   full:       16.908      -6.077     -22.753      37.730     -19.108       5.845


           -------------------------------------------------
          | TOTAL ENERGY             -151.544055115288 Eh   |
          | GRADIENT NORM               0.000607916377 Eh/α |
          | HOMO-LUMO GAP               0.174640853125 eV   |
           -------------------------------------------------
########################################################################
[WARNING] Runtime exception occurred
-2- restart_readRestart: Multiplicity missmatch in restart file.
-1- restart_readRestart: Number of electron missmatch in restart file.
########################################################################

------------------------------------------------------------------------
 * finished run on 2024/11/14 at 13:21:01.828     
------------------------------------------------------------------------
 total:
 * wall-time:     0 d,  0 h,  0 min,  1.521 sec
 *  cpu-time:     0 d,  0 h,  0 min,  5.717 sec
 * ratio c/w:     3.759 speedup
 SCF:
 * wall-time:     0 d,  0 h,  0 min,  1.506 sec
 *  cpu-time:     0 d,  0 h,  0 min,  5.691 sec
 * ratio c/w:     3.779 speedup

