      -----------------------------------------------------------      
     |                   =====================                   |     
     |                           x T B                           |     
     |                   =====================                   |     
     |                         S. Grimme                         |     
     |          Mulliken Center for Theoretical Chemistry        |     
     |                    University of Bonn                     |     
      -----------------------------------------------------------      

   * xtb version 6.6.1 (8d0f1dd) compiled by 'runner@Mac-1690902418499.local' on 2023-08-01

   xtb is free software: you can redistribute it and/or modify it under
   the terms of the GNU Lesser General Public License as published by
   the Free Software Foundation, either version 3 of the License, or
   (at your option) any later version.
   
   xtb is distributed in the hope that it will be useful,
   but WITHOUT ANY WARRANTY; without even the implied warranty of
   MERCHANTABILITY or FITNESS FOR A PARTICULAR PURPOSE.  See the
   GNU Lesser General Public License for more details.
   
   Cite this work as:
   * C. Bannwarth, E. Caldeweyher, S. Ehlert, A. Hansen, P. Pracht,
     J. Seibert, S. Spicher, S. Grimme, WIREs Comput. Mol. Sci., 2020, 11,
     e01493. DOI: 10.1002/wcms.1493
   
   for GFN2-xTB:
   * C. Bannwarth, S. Ehlert and S. Grimme., J. Chem. Theory Comput., 2019,
     15, 1652-1671. DOI: 10.1021/acs.jctc.8b01176
   for GFN1-xTB:
   * S. Grimme, C. Bannwarth, P. Shushkov, J. Chem. Theory Comput., 2017,
     13, 1989-2009. DOI: 10.1021/acs.jctc.7b00118
   for GFN0-xTB:
   * P. Pracht, E. Caldeweyher, S. Ehlert, S. Grimme, ChemRxiv, 2019, preprint.
     DOI: 10.26434/chemrxiv.8326202.v1
   for GFN-FF:
   * S. Spicher and S. Grimme, Angew. Chem. Int. Ed., 2020, 59, 15665-15673.
     DOI: 10.1002/anie.202004239
   
   for ALPB and GBSA implicit solvation:
   * S. Ehlert, M. Stahn, S. Spicher, S. Grimme, J. Chem. Theory Comput.,
     2021, 17, 4250-4261. DOI: 10.1021/acs.jctc.1c00471
   
   for DFT-D4:
   * E. Caldeweyher, C. Bannwarth and S. Grimme, J. Chem. Phys., 2017,
     147, 034112. DOI: 10.1063/1.4993215
   * E. Caldeweyher, S. Ehlert, A. Hansen, H. Neugebauer, S. Spicher,
     C. Bannwarth and S. Grimme, J. Chem. Phys., 2019, 150, 154122.
     DOI: 10.1063/1.5090222
   * E. Caldeweyher, J.-M. Mewes, S. Ehlert and S. Grimme, Phys. Chem. Chem. Phys.
     2020, 22, 8499-8512. DOI: 10.1039/D0CP00502A
   
   for sTDA-xTB:
   * S. Grimme and C. Bannwarth, J. Chem. Phys., 2016, 145, 054103.
     DOI: 10.1063/1.4959605
   
   in the mass-spec context:
   * V. Asgeirsson, C. Bauer and S. Grimme, Chem. Sci., 2017, 8, 4879.
     DOI: 10.1039/c7sc00601b
   * J. Koopman and S. Grimme, ACS Omega 2019, 4, 12, 15120-15133.
     DOI: 10.1021/acsomega.9b02011
   
   for metadynamics refer to:
   * S. Grimme, J. Chem. Theory Comput., 2019, 155, 2847-2862
     DOI: 10.1021/acs.jctc.9b00143
   
   for SPH calculations refer to:
   * S. Spicher and S. Grimme, J. Chem. Theory Comput., 2021, 17, 1701-1714
     DOI: 10.1021/acs.jctc.0c01306
   
   with help from (in alphabetical order)
   P. Atkinson, C. Bannwarth, F. Bohle, G. Brandenburg, E. Caldeweyher
   M. Checinski, S. Dohm, S. Ehlert, S. Ehrlich, I. Gerasimov, C. Hölzer
   A. Katbashev, J. Koopman, C. Lavigne, S. Lehtola, F. März, M. Müller,
   F. Musil, H. Neugebauer, J. Pisarek, C. Plett, P. Pracht, F. Pultar,
   J. Seibert, P. Shushkov, S. Spicher, M. Stahn, M. Steiner, T. Strunk,
   J. Stückrath, T. Rose, and J. Unsleber
   
 * started run on 2024/11/14 at 13:21:03.841     

           -------------------------------------------------
          |                Calculation Setup                |
           -------------------------------------------------

          program call               : xtb opt_cation_Verdazyl4.mol --gfn2 --sp --chrg 1 --uhf 0
          coordinate file            : opt_cation_Verdazyl4.mol
          omp threads                :                     8

   ID    Z sym.   atoms
    1    6 C      1-25, 29, 33-36, 39, 40, 42-57
    2   35 Br     26
    3    7 N      27, 28, 30, 31, 37
    4    8 O      32, 41
    5   14 Si     38
    6    1 H      58-96
########################################################################
[WARNING] Please study the warnings concerning your input carefully
-1- prog_main: Charge in sdf/mol input was overwritten
########################################################################

           -------------------------------------------------
          |                 G F N 2 - x T B                 |
           -------------------------------------------------

        Reference                      10.1021/acs.jctc.8b01176
      * Hamiltonian:
        H0-scaling (s, p, d)           1.850000    2.230000    2.230000
        zeta-weighting                 0.500000
      * Dispersion:
        s8                             2.700000
        a1                             0.520000
        a2                             5.000000
        s9                             5.000000
      * Repulsion:
        kExp                           1.500000    1.000000
        rExp                           1.000000
      * Coulomb:
        alpha                          2.000000
        third order                    shell-resolved
        anisotropic                    true
        a3                             3.000000
        a5                             4.000000
        cn-shift                       1.200000
        cn-exp                         4.000000
        max-rad                        5.000000

q/qsh data taken from xtbrestart
CAMM data taken from xtbrestart

          ...................................................
          :                      SETUP                      :
          :.................................................:
          :  # basis functions                 279          :
          :  # atomic orbitals                 277          :
          :  # shells                          155          :
          :  # electrons                       278          :
          :  max. iterations                   250          :
          :  Hamiltonian                  GFN2-xTB          :
          :  restarted?                       true          :
          :  GBSA solvation                  false          :
          :  PC potential                    false          :
          :  electronic temp.          300.0000000     K    :
          :  accuracy                    1.0000000          :
          :  -> integral cutoff          0.2500000E+02      :
          :  -> integral neglect         0.1000000E-07      :
          :  -> SCF convergence          0.1000000E-05 Eh   :
          :  -> wf. convergence          0.1000000E-03 e    :
          :  Broyden damping             0.4000000          :
          ...................................................

 iter      E             dE          RMSdq      gap      omega  full diag
   1   -153.1962199 -0.153196E+03  0.119E+00    1.16       0.0  T
   2   -152.8178805  0.378339E+00  0.153E+00    0.15       1.0  T
   3   -153.2877942 -0.469914E+00  0.724E-01    1.27       1.0  T
   4   -153.3343096 -0.465154E-01  0.522E-01    0.78       1.0  T
   5   -153.3527031 -0.183935E-01  0.338E-01    0.17       1.0  T
   6   -153.0419502  0.310753E+00  0.118E+00    0.13       1.0  T
   7   -153.2969636 -0.255013E+00  0.547E-01    0.04       1.0  T
   8   -152.9554629  0.341501E+00  0.138E+00    0.06       1.0  T
   9   -153.3613580 -0.405895E+00  0.189E-01    0.10       1.0  T
  10   -153.3567592  0.459881E-02  0.226E-01    0.07       1.0  T
  11   -153.3447764  0.119828E-01  0.322E-01    0.05       1.0  T
  12   -153.3569749 -0.121986E-01  0.201E-01    0.06       1.0  T
  13   -153.3649376 -0.796263E-02  0.294E-02    0.09       1.0  T
  14   -153.3648533  0.842540E-04  0.286E-02    0.09       1.0  T
  15   -153.3641261  0.727237E-03  0.618E-02    0.11       1.0  T
  16   -153.3649153 -0.789277E-03  0.211E-02    0.09       1.0  T
  17   -153.3649462 -0.308427E-04  0.168E-02    0.09       1.0  T
  18   -153.3649658 -0.196239E-04  0.131E-02    0.09       1.0  T
  19   -153.3649648  0.982226E-06  0.126E-02    0.09       1.0  T
  20   -153.3649436  0.212081E-04  0.152E-02    0.09       1.0  T
  21   -153.3649741 -0.304980E-04  0.968E-03    0.09       1.1  T
  22   -153.3649880 -0.138433E-04  0.545E-03    0.09       1.9  T
  23   -153.3649881 -0.856127E-07  0.527E-03    0.09       1.9  T
  24   -153.3649894 -0.130408E-05  0.456E-03    0.09       2.2  T
  25   -153.3649909 -0.156684E-05  0.348E-03    0.09       2.9  T
  26   -153.3649922 -0.128630E-05  0.233E-03    0.09       4.4  T
  27   -153.3649929 -0.694587E-06  0.126E-03    0.09       8.1  T
  28   -153.3649932 -0.307875E-06  0.243E-04    0.09      42.0  T
  29   -153.3649932 -0.874022E-08  0.117E-04    0.09      87.6  T

   *** convergence criteria satisfied after 29 iterations ***

         #    Occupation            Energy/Eh            Energy/eV
      -------------------------------------------------------------
         1        2.0000           -0.9091621             -24.7396
       ...           ...                  ...                  ...
       133        2.0000           -0.4800514             -13.0629
       134        2.0000           -0.4746449             -12.9157
       135        1.9999           -0.4634825             -12.6120
       136        1.9998           -0.4629720             -12.5981
       137        1.9990           -0.4614013             -12.5554
       138        1.9970           -0.4603534             -12.5269
       139        1.7077           -0.4558571             -12.4045 (HOMO)
       140        0.2966           -0.4525194             -12.3137 (LUMO)
       141                         -0.3804270             -10.3519
       142                         -0.3633348              -9.8868
       143                         -0.3595370              -9.7835
       144                         -0.3525465              -9.5933
       ...                                ...                  ...
       277                          0.6429761              17.4963
      -------------------------------------------------------------
                  HL-Gap            0.0033377 Eh            0.0908 eV
             Fermi-level           -0.4541801 Eh          -12.3589 eV

 SCC (total)                   0 d,  0 h,  0 min,  1.540 sec
 SCC setup                      ...        0 min,  0.000 sec (  0.017%)
 Dispersion                     ...        0 min,  0.001 sec (  0.067%)
 classical contributions        ...        0 min,  0.000 sec (  0.015%)
 integral evaluation            ...        0 min,  0.006 sec (  0.367%)
 iterations                     ...        0 min,  1.499 sec ( 97.367%)
 molecular gradient             ...        0 min,  0.028 sec (  1.823%)
 printout                       ...        0 min,  0.005 sec (  0.343%)

         :::::::::::::::::::::::::::::::::::::::::::::::::::::
         ::                     SUMMARY                     ::
         :::::::::::::::::::::::::::::::::::::::::::::::::::::
         :: total energy            -150.885795046644 Eh    ::
         :: gradient norm              0.000709275554 Eh/a0 ::
         :: HOMO-LUMO gap              0.090823595862 eV    ::
         ::.................................................::
         :: SCC energy              -153.364993221080 Eh    ::
         :: -> isotropic ES            0.128229844882 Eh    ::
         :: -> anisotropic ES         -0.002099395245 Eh    ::
         :: -> anisotropic XC          0.079906477330 Eh    ::
         :: -> dispersion             -0.152894899437 Eh    ::
         :: repulsion energy           2.474932900209 Eh    ::
         :: add. restraining           0.000000000000 Eh    ::
         :: total charge               1.000007594249 e     ::
         :::::::::::::::::::::::::::::::::::::::::::::::::::::

           -------------------------------------------------
          |                Property Printout                |
           -------------------------------------------------

    * Orbital Energies and Occupations

         #    Occupation            Energy/Eh            Energy/eV
      -------------------------------------------------------------
         1        2.0000           -0.9091621             -24.7396
       ...           ...                  ...                  ...
       127        2.0000           -0.5028867             -13.6842
       128        2.0000           -0.4950446             -13.4708
       129        2.0000           -0.4940080             -13.4426
       130        2.0000           -0.4888235             -13.3016
       131        2.0000           -0.4851964             -13.2029
       132        2.0000           -0.4841962             -13.1756
       133        2.0000           -0.4800514             -13.0629
       134        2.0000           -0.4746449             -12.9157
       135        1.9999           -0.4634825             -12.6120
       136        1.9998           -0.4629720             -12.5981
       137        1.9990           -0.4614013             -12.5554
       138        1.9970           -0.4603534             -12.5269
       139        1.7077           -0.4558571             -12.4045 (HOMO)
       140        0.2966           -0.4525194             -12.3137 (LUMO)
       141                         -0.3804270             -10.3519
       142                         -0.3633348              -9.8868
       143                         -0.3595370              -9.7835
       144                         -0.3525465              -9.5933
       145                         -0.3387363              -9.2175
       146                         -0.3320763              -9.0363
       147                         -0.3290249              -8.9532
       148                         -0.3283777              -8.9356
       149                         -0.3259856              -8.8705
       150                         -0.3068122              -8.3488
       ...                                ...                  ...
       277                          0.6429761              17.4963
      -------------------------------------------------------------
                  HL-Gap            0.0033377 Eh            0.0908 eV
             Fermi-level           -0.4541801 Eh          -12.3589 eV

     #   Z          covCN         q      C6AA      α(0)
     1   6 C        2.925    -0.038    28.939     8.822
     2   6 C        2.985    -0.036    28.877     8.815
     3   6 C        2.915     0.080    26.224     8.397
     4   6 C        3.001    -0.038    28.935     8.824
     5   6 C        2.984     0.010    27.780     8.646
     6   6 C        2.987     0.005    27.905     8.665
     7   6 C        2.976     0.009    27.812     8.651
     8   6 C        2.986     0.010    27.785     8.647
     9   6 C        3.054    -0.017    28.383     8.737
    10   6 C        3.093     0.055    26.664     8.463
    11   6 C        2.907    -0.040    28.994     8.829
    12   6 C        2.928    -0.035    28.869     8.811
    13   6 C        3.057    -0.019    28.418     8.742
    14   6 C        3.092     0.053    26.704     8.470
    15   6 C        2.979     0.011    27.761     8.643
    16   6 C        2.985     0.015    27.663     8.628
    17   6 C        2.926    -0.031    28.779     8.798
    18   6 C        2.907    -0.039    28.975     8.826
    19   6 C        2.983     0.014    27.701     8.633
    20   6 C        2.987     0.026    27.410     8.588
    21   6 C        2.913    -0.027    28.680     8.782
    22   6 C        2.917    -0.024    28.612     8.772
    23   6 C        2.984    -0.004    28.120     8.699
    24   6 C        2.921    -0.025    28.630     8.774
    25   6 C        2.886     0.163    24.488     8.113
    26  35 Br       1.074    -0.145   189.036    22.168
    27   7 N        1.937    -0.189    25.914     7.548
    28   7 N        2.846     0.078    19.881     6.622
    29   6 C        2.705     0.299    21.928     7.665
    30   7 N        2.855     0.077    19.902     6.626
    31   7 N        1.934    -0.187    25.869     7.542
    32   8 O        0.858    -0.390    21.474     6.213
    33   6 C        2.930    -0.029    28.726     8.790
    34   6 C        2.917    -0.027    28.680     8.782
    35   6 C        2.918    -0.032    28.790     8.799
    36   6 C        2.913    -0.040    29.000     8.831
    37   7 N        2.797    -0.024    21.712     6.921
    38  14 Si       3.503     0.492   100.656    19.407
    39   6 C        3.696    -0.167    23.939     6.999
    40   6 C        3.711     0.088    19.255     6.271
    41   8 O        1.702    -0.318    19.318     5.934
    42   6 C        3.649    -0.210    25.044     7.189
    43   6 C        3.649    -0.211    25.070     7.193
    44   6 C        3.649    -0.211    25.060     7.192
    45   6 C        3.641     0.150    18.494     6.184
    46   6 C        2.930     0.061    26.634     8.464
    47   6 C        2.923    -0.029    28.714     8.787
    48   6 C        2.919    -0.020    28.497     8.754
    49   6 C        2.918    -0.015    28.378     8.736
    50   6 C        2.920    -0.019    28.481     8.752
    51   6 C        2.917    -0.032    28.791     8.799
    52   6 C        2.935     0.062    26.615     8.461
    53   6 C        2.917    -0.025    28.623     8.773
    54   6 C        2.921    -0.017    28.435     8.745
    55   6 C        2.919    -0.013    28.329     8.728
    56   6 C        2.919    -0.018    28.451     8.747
    57   6 C        2.922    -0.026    28.650     8.778
    58   1 H        0.926     0.070     2.086     2.259
    59   1 H        0.926     0.067     2.124     2.279
    60   1 H        0.926     0.068     2.107     2.270
    61   1 H        0.926     0.068     2.109     2.271
    62   1 H        0.926     0.070     2.086     2.259
    63   1 H        0.926     0.085     1.923     2.169
    64   1 H        0.926     0.067     2.114     2.274
    65   1 H        0.926     0.065     2.143     2.289
    66   1 H        0.926     0.057     2.232     2.336
    67   1 H        0.926     0.067     2.120     2.277
    68   1 H        0.926     0.059     2.207     2.323
    69   1 H        0.926     0.061     2.183     2.310
    70   1 H        0.925     0.046     2.371     2.408
    71   1 H        0.925     0.043     2.409     2.427
    72   1 H        0.923     0.014     2.823     2.628
    73   1 H        0.923     0.013     2.848     2.639
    74   1 H        0.923     0.039     2.461     2.454
    75   1 H        0.923     0.036     2.498     2.472
    76   1 H        0.925     0.037     2.495     2.470
    77   1 H        0.925     0.048     2.346     2.395
    78   1 H        0.925     0.044     2.402     2.424
    79   1 H        0.925     0.045     2.386     2.415
    80   1 H        0.925     0.043     2.411     2.428
    81   1 H        0.925     0.045     2.381     2.413
    82   1 H        0.925     0.038     2.475     2.460
    83   1 H        0.925     0.046     2.376     2.410
    84   1 H        0.925     0.047     2.356     2.400
    85   1 H        0.926     0.058     2.222     2.331
    86   1 H        0.926     0.057     2.231     2.336
    87   1 H        0.926     0.056     2.250     2.346
    88   1 H        0.926     0.056     2.243     2.342
    89   1 H        0.926     0.050     2.325     2.384
    90   1 H        0.926     0.050     2.318     2.381
    91   1 H        0.926     0.049     2.337     2.391
    92   1 H        0.926     0.043     2.409     2.427
    93   1 H        0.926     0.040     2.454     2.450
    94   1 H        0.925     0.041     2.437     2.441
    95   1 H        0.926     0.060     2.203     2.321
    96   1 H        0.926     0.063     2.166     2.301

 Mol. C6AA /au·bohr⁶  :     133818.552709
 Mol. C8AA /au·bohr⁸  :    3596176.477177
 Mol. α(0) /au        :        586.781305


Wiberg/Mayer (AO) data.
largest (>0.10) Wiberg bond orders for each atom

 ---------------------------------------------------------------------------
     #   Z sym  total        # sym  WBO       # sym  WBO       # sym  WBO
 ---------------------------------------------------------------------------
     1   6 C    3.971 --     2 C    1.514     6 C    1.308    94 H    0.966
                             4 C    0.100
     2   6 C    3.978 --     1 C    1.514     3 C    1.333    95 H    0.967
     3   6 C    3.924 --     4 C    1.462     2 C    1.333    26 Br   0.993
     4   6 C    3.975 --     3 C    1.462     5 C    1.322    96 H    0.959
                             1 C    0.100
     5   6 C    3.984 --     4 C    1.322     6 C    1.268     7 C    1.171
     6   6 C    3.985 --     1 C    1.308     5 C    1.268    36 C    1.221
     7   6 C    3.961 --     8 C    1.278     9 C    1.275     5 C    1.171
     8   6 C    3.961 --     7 C    1.278    12 C    1.273    35 C    1.231
     9   6 C    3.948 --     7 C    1.275    10 C    1.270    13 C    1.163
    10   6 C    3.937 --    11 C    1.290     9 C    1.270    37 N    1.165
    11   6 C    3.963 --    12 C    1.546    10 C    1.290    90 H    0.963
    12   6 C    3.959 --    11 C    1.546     8 C    1.273    91 H    0.967
    13   6 C    3.956 --    14 C    1.276    15 C    1.274     9 C    1.163
    14   6 C    3.938 --    18 C    1.293    13 C    1.276    37 N    1.157
    15   6 C    3.952 --    16 C    1.274    13 C    1.274    19 C    1.171
    16   6 C    3.956 --    17 C    1.280    15 C    1.274    22 C    1.230
    17   6 C    3.956 --    18 C    1.539    16 C    1.280    88 H    0.966
    18   6 C    3.955 --    17 C    1.539    14 C    1.293    89 H    0.962
    19   6 C    3.984 --    33 C    1.346    20 C    1.259    15 C    1.171
    20   6 C    3.978 --    24 C    1.303    19 C    1.259    21 C    1.225
    21   6 C    3.946 --    22 C    1.607    20 C    1.225    86 H    0.965
    22   6 C    3.966 --    21 C    1.607    16 C    1.230    87 H    0.965
    23   6 C    3.965 --    33 C    1.411    34 C    1.302    25 C    1.071
    24   6 C    3.964 --    34 C    1.528    20 C    1.303    69 H    0.965
    25   6 C    3.954 --    27 N    1.355    31 N    1.349    23 C    1.071
    26  35 Br   1.120 --     3 C    0.993
    27   7 N    2.905 --    25 C    1.355    28 N    1.231
    28   7 N    3.616 --    27 N    1.231    29 C    1.052    46 C    1.045
                            32 O    0.122
    29   6 C    3.957 --    32 O    1.684    30 N    1.069    28 N    1.052
    30   7 N    3.609 --    31 N    1.224    29 C    1.069    52 C    1.030
                            32 O    0.126
    31   7 N    2.886 --    25 C    1.349    30 N    1.224
    32   8 O    2.050 --    29 C    1.684    30 N    0.126    28 N    0.122
    33   6 C    3.969 --    23 C    1.411    19 C    1.346    85 H    0.955
    34   6 C    3.970 --    24 C    1.528    23 C    1.302    68 H    0.966
    35   6 C    3.973 --    36 C    1.610     8 C    1.231    92 H    0.966
    36   6 C    3.957 --    35 C    1.610     6 C    1.221    93 H    0.966
    37   7 N    3.536 --    10 C    1.165    14 C    1.157    45 C    0.997
    38  14 Si   3.579 --    44 C    0.909    43 C    0.908    42 C    0.889
                            39 C    0.789
    39   6 C    3.907 --    40 C    1.026    71 H    0.983    70 H    0.981
                            38 Si   0.789
    40   6 C    3.935 --    39 C    1.026    72 H    0.973    73 H    0.972
                            41 O    0.952
    41   8 O    2.061 --    45 C    0.988    40 C    0.952
    42   6 C    3.960 --    80 H    0.987    81 H    0.984    79 H    0.984
                            38 Si   0.889
    43   6 C    3.980 --    76 H    0.985    77 H    0.984    78 H    0.984
                            38 Si   0.908
    44   6 C    3.980 --    84 H    0.984    82 H    0.984    83 H    0.983
                            38 Si   0.909
    45   6 C    3.951 --    37 N    0.997    41 O    0.988    74 H    0.954
                            75 H    0.952
    46   6 C    3.938 --    51 C    1.355    47 C    1.338    28 N    1.045
    47   6 C    3.963 --    48 C    1.475    46 C    1.338    67 H    0.961
                            50 C    0.102
    48   6 C    3.986 --    47 C    1.475    49 C    1.411    66 H    0.968
    49   6 C    3.944 --    50 C    1.427    48 C    1.411    65 H    0.968
    50   6 C    3.986 --    51 C    1.456    49 C    1.427    64 H    0.967
                            47 C    0.102
    51   6 C    3.959 --    50 C    1.456    46 C    1.355    63 H    0.958
    52   6 C    3.935 --    53 C    1.359    57 C    1.348    30 N    1.030
Note: The following floating-point exceptions are signalling: IEEE_UNDERFLOW_FLAG
normal termination of xtb
    53   6 C    3.966 --    54 C    1.457    52 C    1.359    62 H    0.964
                            56 C    0.102
    54   6 C    3.985 --    53 C    1.457    55 C    1.425    61 H    0.967
                            57 C    0.103
    55   6 C    3.948 --    54 C    1.425    56 C    1.417    60 H    0.968
    56   6 C    3.985 --    57 C    1.468    55 C    1.417    59 H    0.966
                            53 C    0.102
    57   6 C    3.963 --    56 C    1.468    52 C    1.348    58 H    0.961
                            54 C    0.103
    58   1 H    0.995 --    57 C    0.961
    59   1 H    0.994 --    56 C    0.966
    60   1 H    0.995 --    55 C    0.968
    61   1 H    0.994 --    54 C    0.967
    62   1 H    0.995 --    53 C    0.964
    63   1 H    0.993 --    51 C    0.958
    64   1 H    0.995 --    50 C    0.967
    65   1 H    0.996 --    49 C    0.968
    66   1 H    0.996 --    48 C    0.968
    67   1 H    0.995 --    47 C    0.961
    68   1 H    0.996 --    34 C    0.966
    69   1 H    0.995 --    24 C    0.965
    70   1 H    0.997 --    39 C    0.981
    71   1 H    0.997 --    39 C    0.983
    72   1 H    1.000 --    40 C    0.973
    73   1 H    1.000 --    40 C    0.972
    74   1 H    0.997 --    45 C    0.954
    75   1 H    0.997 --    45 C    0.952
    76   1 H    0.999 --    43 C    0.985
    77   1 H    0.996 --    43 C    0.984
    78   1 H    0.998 --    43 C    0.984
    79   1 H    0.998 --    42 C    0.984
    80   1 H    0.996 --    42 C    0.987
    81   1 H    0.998 --    42 C    0.984
    82   1 H    0.998 --    44 C    0.984
    83   1 H    0.998 --    44 C    0.983
    84   1 H    0.996 --    44 C    0.984
    85   1 H    0.996 --    33 C    0.955
    86   1 H    0.995 --    21 C    0.965
    87   1 H    0.996 --    22 C    0.965
    88   1 H    0.996 --    17 C    0.966
    89   1 H    0.996 --    18 C    0.962
    90   1 H    0.996 --    11 C    0.963
    91   1 H    0.997 --    12 C    0.967
    92   1 H    0.997 --    35 C    0.966
    93   1 H    0.997 --    36 C    0.966
    94   1 H    0.998 --     1 C    0.966
    95   1 H    0.996 --     2 C    0.967
    96   1 H    0.996 --     4 C    0.959
 ---------------------------------------------------------------------------

Topologies differ in bond orders
Writing corrected topology to xtbtopo.mol

molecular dipole:
                 x           y           z       tot (Debye)
 q only:       -1.004       0.189      -3.853
   full:       -1.351      -0.345      -3.780      10.242
molecular quadrupole (traceless):
                xx          xy          yy          xz          yz          zz
 q only:       38.700     -62.163     -10.536     -66.736      25.666     -28.164
  q+dip:       47.653     -68.974      -6.713     -64.912      22.542     -40.941
   full:       41.059     -67.249     -13.791     -58.944      28.033     -27.268


           -------------------------------------------------
          | TOTAL ENERGY             -150.885795046644 Eh   |
          | GRADIENT NORM               0.000709275554 Eh/α |
          | HOMO-LUMO GAP               0.090823595862 eV   |
           -------------------------------------------------
########################################################################
[WARNING] Runtime exception occurred
-1- restart_readRestart: Number of electron missmatch in restart file.
########################################################################

------------------------------------------------------------------------
 * finished run on 2024/11/14 at 13:21:05.394     
------------------------------------------------------------------------
 total:
 * wall-time:     0 d,  0 h,  0 min,  1.553 sec
 *  cpu-time:     0 d,  0 h,  0 min,  5.380 sec
 * ratio c/w:     3.465 speedup
 SCF:
 * wall-time:     0 d,  0 h,  0 min,  1.540 sec
 *  cpu-time:     0 d,  0 h,  0 min,  5.354 sec
 * ratio c/w:     3.476 speedup

