      -----------------------------------------------------------      
     |                   =====================                   |     
     |                           x T B                           |     
     |                   =====================                   |     
     |                         S. Grimme                         |     
     |          Mulliken Center for Theoretical Chemistry        |     
     |                    University of Bonn                     |     
      -----------------------------------------------------------      

   * xtb version 6.6.1 (8d0f1dd) compiled by 'runner@Mac-1690902418499.local' on 2023-08-01

   xtb is free software: you can redistribute it and/or modify it under
   the terms of the GNU Lesser General Public License as published by
   the Free Software Foundation, either version 3 of the License, or
   (at your option) any later version.
   
   xtb is distributed in the hope that it will be useful,
   but WITHOUT ANY WARRANTY; without even the implied warranty of
   MERCHANTABILITY or FITNESS FOR A PARTICULAR PURPOSE.  See the
   GNU Lesser General Public License for more details.
   
   Cite this work as:
   * C. Bannwarth, E. Caldeweyher, S. Ehlert, A. Hansen, P. Pracht,
     J. Seibert, S. Spicher, S. Grimme, WIREs Comput. Mol. Sci., 2020, 11,
     e01493. DOI: 10.1002/wcms.1493
   
   for GFN2-xTB:
   * C. Bannwarth, S. Ehlert and S. Grimme., J. Chem. Theory Comput., 2019,
     15, 1652-1671. DOI: 10.1021/acs.jctc.8b01176
   for GFN1-xTB:
   * S. Grimme, C. Bannwarth, P. Shushkov, J. Chem. Theory Comput., 2017,
     13, 1989-2009. DOI: 10.1021/acs.jctc.7b00118
   for GFN0-xTB:
   * P. Pracht, E. Caldeweyher, S. Ehlert, S. Grimme, ChemRxiv, 2019, preprint.
     DOI: 10.26434/chemrxiv.8326202.v1
   for GFN-FF:
   * S. Spicher and S. Grimme, Angew. Chem. Int. Ed., 2020, 59, 15665-15673.
     DOI: 10.1002/anie.202004239
   
   for ALPB and GBSA implicit solvation:
   * S. Ehlert, M. Stahn, S. Spicher, S. Grimme, J. Chem. Theory Comput.,
     2021, 17, 4250-4261. DOI: 10.1021/acs.jctc.1c00471
   
   for DFT-D4:
   * E. Caldeweyher, C. Bannwarth and S. Grimme, J. Chem. Phys., 2017,
     147, 034112. DOI: 10.1063/1.4993215
   * E. Caldeweyher, S. Ehlert, A. Hansen, H. Neugebauer, S. Spicher,
     C. Bannwarth and S. Grimme, J. Chem. Phys., 2019, 150, 154122.
     DOI: 10.1063/1.5090222
   * E. Caldeweyher, J.-M. Mewes, S. Ehlert and S. Grimme, Phys. Chem. Chem. Phys.
     2020, 22, 8499-8512. DOI: 10.1039/D0CP00502A
   
   for sTDA-xTB:
   * S. Grimme and C. Bannwarth, J. Chem. Phys., 2016, 145, 054103.
     DOI: 10.1063/1.4959605
   
   in the mass-spec context:
   * V. Asgeirsson, C. Bauer and S. Grimme, Chem. Sci., 2017, 8, 4879.
     DOI: 10.1039/c7sc00601b
   * J. Koopman and S. Grimme, ACS Omega 2019, 4, 12, 15120-15133.
     DOI: 10.1021/acsomega.9b02011
   
   for metadynamics refer to:
   * S. Grimme, J. Chem. Theory Comput., 2019, 155, 2847-2862
     DOI: 10.1021/acs.jctc.9b00143
   
   for SPH calculations refer to:
   * S. Spicher and S. Grimme, J. Chem. Theory Comput., 2021, 17, 1701-1714
     DOI: 10.1021/acs.jctc.0c01306
   
   with help from (in alphabetical order)
   P. Atkinson, C. Bannwarth, F. Bohle, G. Brandenburg, E. Caldeweyher
   M. Checinski, S. Dohm, S. Ehlert, S. Ehrlich, I. Gerasimov, C. Hölzer
   A. Katbashev, J. Koopman, C. Lavigne, S. Lehtola, F. März, M. Müller,
   F. Musil, H. Neugebauer, J. Pisarek, C. Plett, P. Pracht, F. Pultar,
   J. Seibert, P. Shushkov, S. Spicher, M. Stahn, M. Steiner, T. Strunk,
   J. Stückrath, T. Rose, and J. Unsleber
   
 * started run on 2024/11/14 at 13:21:01.852     

           -------------------------------------------------
          |                Calculation Setup                |
           -------------------------------------------------

          program call               : xtb opt_anion_Verdazyl4.mol --gfn2 --sp --chrg 0 --uhf 1
          coordinate file            : opt_anion_Verdazyl4.mol
          omp threads                :                     8

   ID    Z sym.   atoms
    1    6 C      1-25, 29, 33-36, 39, 40, 42-57
    2   35 Br     26
    3    7 N      27, 28, 30, 31, 37
    4    8 O      32, 41
    5   14 Si     38
    6    1 H      58-96
########################################################################
[WARNING] Please study the warnings concerning your input carefully
-1- prog_main: Charge in sdf/mol input was overwritten
########################################################################

           -------------------------------------------------
          |                 G F N 2 - x T B                 |
           -------------------------------------------------

        Reference                      10.1021/acs.jctc.8b01176
      * Hamiltonian:
        H0-scaling (s, p, d)           1.850000    2.230000    2.230000
        zeta-weighting                 0.500000
      * Dispersion:
        s8                             2.700000
        a1                             0.520000
        a2                             5.000000
        s9                             5.000000
      * Repulsion:
        kExp                           1.500000    1.000000
        rExp                           1.000000
      * Coulomb:
        alpha                          2.000000
        third order                    shell-resolved
        anisotropic                    true
        a3                             3.000000
        a5                             4.000000
        cn-shift                       1.200000
        cn-exp                         4.000000
        max-rad                        5.000000

q/qsh data taken from xtbrestart
CAMM data taken from xtbrestart

          ...................................................
          :                      SETUP                      :
          :.................................................:
          :  # basis functions                 279          :
          :  # atomic orbitals                 277          :
          :  # shells                          155          :
          :  # electrons                       279          :
          :  max. iterations                   250          :
          :  Hamiltonian                  GFN2-xTB          :
          :  restarted?                       true          :
          :  GBSA solvation                  false          :
          :  PC potential                    false          :
          :  electronic temp.          300.0000000     K    :
          :  accuracy                    1.0000000          :
          :  -> integral cutoff          0.2500000E+02      :
          :  -> integral neglect         0.1000000E-07      :
          :  -> SCF convergence          0.1000000E-05 Eh   :
          :  -> wf. convergence          0.1000000E-03 e    :
          :  Broyden damping             0.4000000          :
          ...................................................

 iter      E             dE          RMSdq      gap      omega  full diag
   1   -153.7020030 -0.153702E+03  0.629E-01    0.17       0.0  T
   2   -153.7365335 -0.345304E-01  0.431E-01    1.79       1.0  T
   3   -153.7475352 -0.110017E-01  0.220E-01    1.70       1.0  T
   4   -153.7478233 -0.288061E-03  0.187E-01    1.92       1.0  T
   5   -153.7488885 -0.106521E-02  0.836E-02    2.00       1.0  T
   6   -153.7489505 -0.620306E-04  0.524E-02    1.98       1.0  T
   7   -153.7490017 -0.512450E-04  0.388E-02    1.97       1.0  T
   8   -153.7490184 -0.166487E-04  0.200E-02    1.98       1.0  T
   9   -153.7490335 -0.150971E-04  0.108E-02    1.98       1.0  T
  10   -153.7490363 -0.279974E-05  0.649E-03    1.98       1.6  T
  11   -153.7490368 -0.526837E-06  0.399E-03    1.98       2.6  T
  12   -153.7490375 -0.676425E-06  0.222E-03    1.98       4.6  T
  13   -153.7490376 -0.114351E-06  0.137E-03    1.98       7.5  T
  14   -153.7490377 -0.563884E-07  0.591E-04    1.98      17.3  T
  15   -153.7490377 -0.663965E-08  0.360E-04    1.98      28.3  T

   *** convergence criteria satisfied after 15 iterations ***

         #    Occupation            Energy/Eh            Energy/eV
      -------------------------------------------------------------
         1        2.0000           -0.8263562             -22.4863
       ...           ...                  ...                  ...
       134        2.0000           -0.3939887             -10.7210
       135        2.0000           -0.3868444             -10.5266
       136        2.0000           -0.3821408             -10.3986
       137        2.0000           -0.3799537             -10.3391
       138        2.0000           -0.3673195              -9.9953
       139        2.0000           -0.3645333              -9.9195
       140        1.0000           -0.3448397              -9.3836 (HOMO)
       141                         -0.2720739              -7.4035 (LUMO)
       142                         -0.2710227              -7.3749
       143                         -0.2605769              -7.0907
       144                         -0.2515072              -6.8439
       145                         -0.2431798              -6.6173
       ...                                ...                  ...
       277                          0.7388315              20.1046
      -------------------------------------------------------------
                  HL-Gap            0.0727658 Eh            1.9801 eV
             Fermi-level           -0.3315594 Eh           -9.0222 eV

 SCC (total)                   0 d,  0 h,  0 min,  0.812 sec
 SCC setup                      ...        0 min,  0.000 sec (  0.029%)
 Dispersion                     ...        0 min,  0.001 sec (  0.110%)
 classical contributions        ...        0 min,  0.000 sec (  0.024%)
 integral evaluation            ...        0 min,  0.005 sec (  0.600%)
 iterations                     ...        0 min,  0.776 sec ( 95.576%)
 molecular gradient             ...        0 min,  0.027 sec (  3.291%)
 printout                       ...        0 min,  0.003 sec (  0.369%)

         :::::::::::::::::::::::::::::::::::::::::::::::::::::
         ::                     SUMMARY                     ::
         :::::::::::::::::::::::::::::::::::::::::::::::::::::
         :: total energy            -151.278890149374 Eh    ::
         :: gradient norm              0.082040932320 Eh/a0 ::
         :: HOMO-LUMO gap              1.980058474020 eV    ::
         ::.................................................::
         :: SCC energy              -153.749037671339 Eh    ::
         :: -> isotropic ES            0.101325489659 Eh    ::
         :: -> anisotropic ES          0.007826373625 Eh    ::
         :: -> anisotropic XC          0.073302917156 Eh    ::
         :: -> dispersion             -0.156349952901 Eh    ::
         :: repulsion energy           2.465800928586 Eh    ::
         :: add. restraining           0.000000000000 Eh    ::
         :: total charge               0.000053699759 e     ::
         :::::::::::::::::::::::::::::::::::::::::::::::::::::

           -------------------------------------------------
          |                Property Printout                |
           -------------------------------------------------

    * Orbital Energies and Occupations

         #    Occupation            Energy/Eh            Energy/eV
      -------------------------------------------------------------
         1        2.0000           -0.8263562             -22.4863
       ...           ...                  ...                  ...
       128        2.0000           -0.4052820             -11.0283
       129        2.0000           -0.4047494             -11.0138
       130        2.0000           -0.4037002             -10.9852
       131        2.0000           -0.4014845             -10.9250
       132        2.0000           -0.4000393             -10.8856
       133        2.0000           -0.3948428             -10.7442
       134        2.0000           -0.3939887             -10.7210
       135        2.0000           -0.3868444             -10.5266
       136        2.0000           -0.3821408             -10.3986
       137        2.0000           -0.3799537             -10.3391
       138        2.0000           -0.3673195              -9.9953
       139        2.0000           -0.3645333              -9.9195
       140        1.0000           -0.3448397              -9.3836 (HOMO)
       141                         -0.2720739              -7.4035 (LUMO)
       142                         -0.2710227              -7.3749
       143                         -0.2605769              -7.0907
       144                         -0.2515072              -6.8439
       145                         -0.2431798              -6.6173
       146                         -0.2296575              -6.2493
       147                         -0.2290962              -6.2340
       148                         -0.2272983              -6.1851
       149                         -0.2219050              -6.0383
       150                         -0.2117507              -5.7620
       151                         -0.2055234              -5.5926
       ...                                ...                  ...
       277                          0.7388315              20.1046
      -------------------------------------------------------------
                  HL-Gap            0.0727658 Eh            1.9801 eV
             Fermi-level           -0.3315594 Eh           -9.0222 eV

     #   Z          covCN         q      C6AA      α(0)
     1   6 C        2.927    -0.034    28.847     8.808
     2   6 C        2.989    -0.036    28.882     8.816
     3   6 C        2.918     0.077    26.291     8.408
     4   6 C        3.003    -0.039    28.953     8.827
     5   6 C        2.987     0.010    27.782     8.646
     6   6 C        2.988     0.008    27.826     8.653
     7   6 C        2.978     0.008    27.845     8.656
     8   6 C        2.986     0.006    27.879     8.661
     9   6 C        3.058    -0.021    28.467     8.750
    10   6 C        3.086     0.049    26.803     8.487
    11   6 C        2.907    -0.046    29.144     8.852
    12   6 C        2.928    -0.037    28.927     8.820
    13   6 C        3.061    -0.022    28.498     8.754
    14   6 C        3.085     0.048    26.839     8.493
    15   6 C        2.981     0.006    27.889     8.663
    16   6 C        2.985     0.005    27.903     8.665
    17   6 C        2.926    -0.038    28.935     8.821
    18   6 C        2.907    -0.048    29.187     8.859
    19   6 C        2.984     0.009    27.806     8.650
    20   6 C        2.987     0.018    27.607     8.619
    21   6 C        2.913    -0.035    28.863     8.810
    22   6 C        2.916    -0.033    28.812     8.802
    23   6 C        2.991    -0.005    28.130     8.700
    24   6 C        2.919    -0.033    28.812     8.802
    25   6 C        2.864     0.173    24.272     8.075
    26  35 Br       1.081    -0.176   189.935    22.221
    27   7 N        1.924    -0.255    27.470     7.771
    28   7 N        2.837     0.026    20.793     6.773
    29   6 C        2.700     0.310    21.726     7.629
    30   7 N        2.843     0.023    20.836     6.780
    31   7 N        1.922    -0.251    27.371     7.757
    32   8 O        0.859    -0.451    22.735     6.393
    33   6 C        2.930    -0.033    28.830     8.806
    34   6 C        2.919    -0.031    28.763     8.795
    35   6 C        2.918    -0.032    28.792     8.799
    36   6 C        2.914    -0.038    28.951     8.823
    37   7 N        2.795    -0.049    22.181     6.995
    38  14 Si       3.506     0.483   100.775    19.413
    39   6 C        3.699    -0.170    23.996     7.006
    40   6 C        3.715     0.094    19.147     6.251
    41   8 O        1.702    -0.322    19.377     5.943
    42   6 C        3.649    -0.210    25.046     7.190
    43   6 C        3.648    -0.209    25.014     7.186
    44   6 C        3.648    -0.208    25.008     7.185
    45   6 C        3.643     0.155    18.401     6.167
    46   6 C        2.921     0.070    26.424     8.430
    47   6 C        2.926    -0.037    28.922     8.819
    48   6 C        2.919    -0.026    28.642     8.776
    49   6 C        2.917    -0.030    28.752     8.793
    50   6 C        2.921    -0.027    28.676     8.781
    51   6 C        2.919    -0.043    29.071     8.842
    52   6 C        2.923     0.070    26.426     8.430
    53   6 C        2.919    -0.038    28.933     8.821
    54   6 C        2.920    -0.026    28.644     8.777
    55   6 C        2.917    -0.029    28.722     8.788
    56   6 C        2.919    -0.026    28.649     8.777
    57   6 C        2.925    -0.038    28.933     8.821
    58   1 H        0.926     0.065     2.145     2.290
    59   1 H        0.925     0.041     2.435     2.440
    60   1 H        0.925     0.039     2.456     2.451
    61   1 H        0.925     0.042     2.426     2.435
    62   1 H        0.926     0.067     2.117     2.276
    63   1 H        0.926     0.077     2.012     2.218
    64   1 H        0.925     0.041     2.433     2.439
    65   1 H        0.925     0.037     2.485     2.465
    66   1 H        0.925     0.036     2.507     2.476
    67   1 H        0.926     0.062     2.174     2.305
    68   1 H        0.926     0.047     2.352     2.398
    69   1 H        0.925     0.041     2.438     2.442
    70   1 H        0.925     0.043     2.407     2.426
    71   1 H        0.925     0.040     2.453     2.449
    72   1 H        0.923     0.005     2.975     2.697
    73   1 H        0.923     0.003     3.011     2.713
    74   1 H        0.923     0.029     2.607     2.525
    75   1 H        0.923     0.027     2.624     2.533
    76   1 H        0.925     0.031     2.575     2.509
    77   1 H        0.925     0.039     2.458     2.452
    78   1 H        0.925     0.037     2.493     2.469
    79   1 H        0.925     0.036     2.501     2.473
    80   1 H        0.925     0.033     2.546     2.495
    81   1 H        0.925     0.036     2.499     2.472
    82   1 H        0.925     0.032     2.558     2.501
    83   1 H        0.925     0.039     2.457     2.451
    84   1 H        0.925     0.038     2.473     2.459
    85   1 H        0.926     0.054     2.272     2.357
    86   1 H        0.925     0.037     2.488     2.467
    87   1 H        0.925     0.034     2.527     2.486
    88   1 H        0.926     0.036     2.498     2.472
    89   1 H        0.926     0.031     2.568     2.506
    90   1 H        0.926     0.033     2.544     2.494
    91   1 H        0.926     0.036     2.509     2.477
    92   1 H        0.926     0.033     2.550     2.497
    93   1 H        0.926     0.029     2.594     2.519
    94   1 H        0.926     0.037     2.490     2.467
    95   1 H        0.926     0.049     2.327     2.385
    96   1 H        0.926     0.055     2.258     2.350

 Mol. C6AA /au·bohr⁶  :     136088.174616
 Mol. C8AA /au·bohr⁸  :    3643424.601343
 Mol. α(0) /au        :        591.573451


Wiberg/Mayer (AO) data.
largest (>0.10) Wiberg bond orders for each atom

 ---------------------------------------------------------------------------
     #   Z sym  total        # sym  WBO       # sym  WBO       # sym  WBO
 ---------------------------------------------------------------------------
     1   6 C    3.983 --     2 C    1.514     6 C    1.309    94 H    0.966
                             4 C    0.106
     2   6 C    3.979 --     1 C    1.514     3 C    1.333    95 H    0.968
     3   6 C    3.929 --     4 C    1.485     2 C    1.333    26 Br   0.970
     4   6 C    3.988 --     3 C    1.485     5 C    1.310    96 H    0.961
                             1 C    0.106
     5   6 C    3.987 --     4 C    1.310     6 C    1.272     7 C    1.178
     6   6 C    3.986 --     1 C    1.309     5 C    1.272    36 C    1.218
     7   6 C    3.976 --     8 C    1.296     9 C    1.256     5 C    1.178
     8   6 C    3.984 --     7 C    1.296    12 C    1.283    35 C    1.217
     9   6 C    3.974 --    10 C    1.288     7 C    1.256    13 C    1.176
    10   6 C    3.948 --    11 C    1.303     9 C    1.288    37 N    1.141
    11   6 C    3.978 --    12 C    1.534    10 C    1.303    90 H    0.964
    12   6 C    3.961 --    11 C    1.534     8 C    1.283    91 H    0.968
    13   6 C    3.975 --    14 C    1.288    15 C    1.256     9 C    1.176
    14   6 C    3.947 --    18 C    1.305    13 C    1.288    37 N    1.138
    15   6 C    3.978 --    16 C    1.296    13 C    1.256    19 C    1.177
    16   6 C    3.984 --    15 C    1.296    17 C    1.285    22 C    1.217
    17   6 C    3.960 --    18 C    1.531    16 C    1.285    88 H    0.968
    18   6 C    3.978 --    17 C    1.531    14 C    1.305    89 H    0.964
    19   6 C    3.987 --    33 C    1.329    20 C    1.267    15 C    1.177
    20   6 C    3.983 --    24 C    1.305    19 C    1.267    21 C    1.221
    21   6 C    3.978 --    22 C    1.629    20 C    1.221    86 H    0.967
    22   6 C    3.979 --    21 C    1.629    16 C    1.217    87 H    0.967
    23   6 C    3.977 --    33 C    1.448    34 C    1.310    25 C    1.028
    24   6 C    3.982 --    34 C    1.531    20 C    1.305    69 H    0.967
                            33 C    0.102
    25   6 C    3.965 --    27 N    1.406    31 N    1.403    23 C    1.028
    26  35 Br   1.091 --     3 C    0.970
    27   7 N    2.892 --    25 C    1.406    28 N    1.108    31 N    0.123
    28   7 N    3.623 --    29 C    1.111    27 N    1.108    46 C    1.079
                            32 O    0.121
    29   6 C    3.960 --    32 O    1.608    28 N    1.111    30 N    1.110
    30   7 N    3.617 --    29 C    1.110    31 N    1.109    52 C    1.071
                            32 O    0.123
    31   7 N    2.888 --    25 C    1.403    30 N    1.109    27 N    0.123
    32   8 O    1.984 --    29 C    1.608    30 N    0.123    28 N    0.121
    33   6 C    3.984 --    23 C    1.448    19 C    1.329    85 H    0.956
                            24 C    0.102
    34   6 C    3.978 --    24 C    1.531    23 C    1.310    68 H    0.967
    35   6 C    3.981 --    36 C    1.629     8 C    1.217    92 H    0.967
    36   6 C    3.978 --    35 C    1.629     6 C    1.218    93 H    0.967
    37   7 N    3.548 --    10 C    1.141    14 C    1.138    45 C    1.012
    38  14 Si   3.618 --    44 C    0.903    43 C    0.901    42 C    0.896
                            39 C    0.844
    39   6 C    3.968 --    40 C    1.023    71 H    0.982    70 H    0.980
                            38 Si   0.844
    40   6 C    3.944 --    39 C    1.023    72 H    0.971    73 H    0.971
                            41 O    0.967
    41   8 O    2.068 --    45 C    0.977    40 C    0.967
    42   6 C    3.980 --    80 H    0.991    81 H    0.988    79 H    0.987
                            38 Si   0.896
    43   6 C    3.981 --    76 H    0.988    77 H    0.987    78 H    0.986
                            38 Si   0.901
    44   6 C    3.981 --    84 H    0.987    82 H    0.987    83 H    0.986
                            38 Si   0.903
    45   6 C    3.956 --    37 N    1.012    41 O    0.977    74 H    0.955
                            75 H    0.953
    46   6 C    3.951 --    51 C    1.353    47 C    1.339    28 N    1.079
    47   6 C    3.982 --    48 C    1.473    46 C    1.339    67 H    0.960
                            50 C    0.103
    48   6 C    3.990 --    47 C    1.473    49 C    1.418    66 H    0.970
                            51 C    0.100
    49   6 C    3.968 --    50 C    1.428    48 C    1.418    65 H    0.971
    50   6 C    3.990 --    51 C    1.458    49 C    1.428    64 H    0.970
                            47 C    0.103
    51   6 C    3.979 --    50 C    1.458    46 C    1.353    63 H    0.958
                            48 C    0.100
    52   6 C    3.952 --    53 C    1.355    57 C    1.347    30 N    1.071
    53   6 C    3.981 --    54 C    1.459    52 C    1.355    62 H    0.963
                            56 C    0.102
    54   6 C    3.990 --    53 C    1.459    55 C    1.428    61 H    0.970
                            57 C    0.103
    55   6 C    3.970 --    54 C    1.428    56 C    1.420    60 H    0.971
    56   6 C    3.990 --    57 C    1.469    55 C    1.420    59 H    0.970
                            53 C    0.102
    57   6 C    3.982 --    56 C    1.469    52 C    1.347    58 H    0.961
                            54 C    0.103
    58   1 H    0.996 --    57 C    0.961
    59   1 H    0.998 --    56 C    0.970
Note: The following floating-point exceptions are signalling: IEEE_UNDERFLOW_FLAG
normal termination of xtb
    60   1 H    0.998 --    55 C    0.971
    61   1 H    0.998 --    54 C    0.970
    62   1 H    0.995 --    53 C    0.963
    63   1 H    0.994 --    51 C    0.958
    64   1 H    0.998 --    50 C    0.970
    65   1 H    0.998 --    49 C    0.971
    66   1 H    0.998 --    48 C    0.970
    67   1 H    0.996 --    47 C    0.960
    68   1 H    0.997 --    34 C    0.967
    69   1 H    0.997 --    24 C    0.967
    70   1 H    0.998 --    39 C    0.980
    71   1 H    0.998 --    39 C    0.982
    72   1 H    1.000 --    40 C    0.971
    73   1 H    1.000 --    40 C    0.971
    74   1 H    0.998 --    45 C    0.955
    75   1 H    0.998 --    45 C    0.953
    76   1 H    0.999 --    43 C    0.988
    77   1 H    0.998 --    43 C    0.987
    78   1 H    0.999 --    43 C    0.986
    79   1 H    0.999 --    42 C    0.987
    80   1 H    0.999 --    42 C    0.991
    81   1 H    0.999 --    42 C    0.988
    82   1 H    0.999 --    44 C    0.987
    83   1 H    0.998 --    44 C    0.986
    84   1 H    0.998 --    44 C    0.987
    85   1 H    0.997 --    33 C    0.956
    86   1 H    0.997 --    21 C    0.967
    87   1 H    0.998 --    22 C    0.967
    88   1 H    0.998 --    17 C    0.968
    89   1 H    0.998 --    18 C    0.964
    90   1 H    0.997 --    11 C    0.964
    91   1 H    0.998 --    12 C    0.968
    92   1 H    0.998 --    35 C    0.967
    93   1 H    0.998 --    36 C    0.967
    94   1 H    0.998 --     1 C    0.966
    95   1 H    0.997 --     2 C    0.968
    96   1 H    0.997 --     4 C    0.961
 ---------------------------------------------------------------------------

Topologies differ in bond orders
Writing corrected topology to xtbtopo.mol

molecular dipole:
                 x           y           z       tot (Debye)
 q only:       -2.046       0.361       0.318
   full:       -2.526      -0.420       0.233       6.535
molecular quadrupole (traceless):
                xx          xy          yy          xz          yz          zz
 q only:       24.692     -22.472     -14.872     -15.016       3.460      -9.820
  q+dip:       32.507     -33.593     -13.018     -15.076      -0.213     -19.488
   full:       26.451     -31.658     -19.684      -8.700       4.815      -6.767


           -------------------------------------------------
          | TOTAL ENERGY             -151.278890149374 Eh   |
          | GRADIENT NORM               0.082040932320 Eh/α |
          | HOMO-LUMO GAP               1.980058474020 eV   |
           -------------------------------------------------
########################################################################
[WARNING] Runtime exception occurred
-2- restart_readRestart: Multiplicity missmatch in restart file.
-1- restart_readRestart: Number of electron missmatch in restart file.
########################################################################

------------------------------------------------------------------------
 * finished run on 2024/11/14 at 13:21:02.679     
------------------------------------------------------------------------
 total:
 * wall-time:     0 d,  0 h,  0 min,  0.826 sec
 *  cpu-time:     0 d,  0 h,  0 min,  2.869 sec
 * ratio c/w:     3.474 speedup
 SCF:
 * wall-time:     0 d,  0 h,  0 min,  0.813 sec
 *  cpu-time:     0 d,  0 h,  0 min,  2.845 sec
 * ratio c/w:     3.500 speedup

