      -----------------------------------------------------------      
     |                   =====================                   |     
     |                           x T B                           |     
     |                   =====================                   |     
     |                         S. Grimme                         |     
     |          Mulliken Center for Theoretical Chemistry        |     
     |                    University of Bonn                     |     
      -----------------------------------------------------------      

   * xtb version 6.6.1 (8d0f1dd) compiled by 'runner@Mac-1690902418499.local' on 2023-08-01

   xtb is free software: you can redistribute it and/or modify it under
   the terms of the GNU Lesser General Public License as published by
   the Free Software Foundation, either version 3 of the License, or
   (at your option) any later version.
   
   xtb is distributed in the hope that it will be useful,
   but WITHOUT ANY WARRANTY; without even the implied warranty of
   MERCHANTABILITY or FITNESS FOR A PARTICULAR PURPOSE.  See the
   GNU Lesser General Public License for more details.
   
   Cite this work as:
   * C. Bannwarth, E. Caldeweyher, S. Ehlert, A. Hansen, P. Pracht,
     J. Seibert, S. Spicher, S. Grimme, WIREs Comput. Mol. Sci., 2020, 11,
     e01493. DOI: 10.1002/wcms.1493
   
   for GFN2-xTB:
   * C. Bannwarth, S. Ehlert and S. Grimme., J. Chem. Theory Comput., 2019,
     15, 1652-1671. DOI: 10.1021/acs.jctc.8b01176
   for GFN1-xTB:
   * S. Grimme, C. Bannwarth, P. Shushkov, J. Chem. Theory Comput., 2017,
     13, 1989-2009. DOI: 10.1021/acs.jctc.7b00118
   for GFN0-xTB:
   * P. Pracht, E. Caldeweyher, S. Ehlert, S. Grimme, ChemRxiv, 2019, preprint.
     DOI: 10.26434/chemrxiv.8326202.v1
   for GFN-FF:
   * S. Spicher and S. Grimme, Angew. Chem. Int. Ed., 2020, 59, 15665-15673.
     DOI: 10.1002/anie.202004239
   
   for ALPB and GBSA implicit solvation:
   * S. Ehlert, M. Stahn, S. Spicher, S. Grimme, J. Chem. Theory Comput.,
     2021, 17, 4250-4261. DOI: 10.1021/acs.jctc.1c00471
   
   for DFT-D4:
   * E. Caldeweyher, C. Bannwarth and S. Grimme, J. Chem. Phys., 2017,
     147, 034112. DOI: 10.1063/1.4993215
   * E. Caldeweyher, S. Ehlert, A. Hansen, H. Neugebauer, S. Spicher,
     C. Bannwarth and S. Grimme, J. Chem. Phys., 2019, 150, 154122.
     DOI: 10.1063/1.5090222
   * E. Caldeweyher, J.-M. Mewes, S. Ehlert and S. Grimme, Phys. Chem. Chem. Phys.
     2020, 22, 8499-8512. DOI: 10.1039/D0CP00502A
   
   for sTDA-xTB:
   * S. Grimme and C. Bannwarth, J. Chem. Phys., 2016, 145, 054103.
     DOI: 10.1063/1.4959605
   
   in the mass-spec context:
   * V. Asgeirsson, C. Bauer and S. Grimme, Chem. Sci., 2017, 8, 4879.
     DOI: 10.1039/c7sc00601b
   * J. Koopman and S. Grimme, ACS Omega 2019, 4, 12, 15120-15133.
     DOI: 10.1021/acsomega.9b02011
   
   for metadynamics refer to:
   * S. Grimme, J. Chem. Theory Comput., 2019, 155, 2847-2862
     DOI: 10.1021/acs.jctc.9b00143
   
   for SPH calculations refer to:
   * S. Spicher and S. Grimme, J. Chem. Theory Comput., 2021, 17, 1701-1714
     DOI: 10.1021/acs.jctc.0c01306
   
   with help from (in alphabetical order)
   P. Atkinson, C. Bannwarth, F. Bohle, G. Brandenburg, E. Caldeweyher
   M. Checinski, S. Dohm, S. Ehlert, S. Ehrlich, I. Gerasimov, C. Hölzer
   A. Katbashev, J. Koopman, C. Lavigne, S. Lehtola, F. März, M. Müller,
   F. Musil, H. Neugebauer, J. Pisarek, C. Plett, P. Pracht, F. Pultar,
   J. Seibert, P. Shushkov, S. Spicher, M. Stahn, M. Steiner, T. Strunk,
   J. Stückrath, T. Rose, and J. Unsleber
   
 * started run on 2024/11/14 at 13:21:05.417     

           -------------------------------------------------
          |                Calculation Setup                |
           -------------------------------------------------

          program call               : xtb opt_cation_Verdazyl4.mol --gfn2 --sp --chrg 0 --uhf 1
          coordinate file            : opt_cation_Verdazyl4.mol
          omp threads                :                     8

   ID    Z sym.   atoms
    1    6 C      1-25, 29, 33-36, 39, 40, 42-57
    2   35 Br     26
    3    7 N      27, 28, 30, 31, 37
    4    8 O      32, 41
    5   14 Si     38
    6    1 H      58-96
########################################################################
[WARNING] Please study the warnings concerning your input carefully
-1- prog_main: Charge in sdf/mol input was overwritten
########################################################################

           -------------------------------------------------
          |                 G F N 2 - x T B                 |
           -------------------------------------------------

        Reference                      10.1021/acs.jctc.8b01176
      * Hamiltonian:
        H0-scaling (s, p, d)           1.850000    2.230000    2.230000
        zeta-weighting                 0.500000
      * Dispersion:
        s8                             2.700000
        a1                             0.520000
        a2                             5.000000
        s9                             5.000000
      * Repulsion:
        kExp                           1.500000    1.000000
        rExp                           1.000000
      * Coulomb:
        alpha                          2.000000
        third order                    shell-resolved
        anisotropic                    true
        a3                             3.000000
        a5                             4.000000
        cn-shift                       1.200000
        cn-exp                         4.000000
        max-rad                        5.000000

q/qsh data taken from xtbrestart
CAMM data taken from xtbrestart

          ...................................................
          :                      SETUP                      :
          :.................................................:
          :  # basis functions                 279          :
          :  # atomic orbitals                 277          :
          :  # shells                          155          :
          :  # electrons                       279          :
          :  max. iterations                   250          :
          :  Hamiltonian                  GFN2-xTB          :
          :  restarted?                       true          :
          :  GBSA solvation                  false          :
          :  PC potential                    false          :
          :  electronic temp.          300.0000000     K    :
          :  accuracy                    1.0000000          :
          :  -> integral cutoff          0.2500000E+02      :
          :  -> integral neglect         0.1000000E-07      :
          :  -> SCF convergence          0.1000000E-05 Eh   :
          :  -> wf. convergence          0.1000000E-03 e    :
          :  Broyden damping             0.4000000          :
          ...................................................

 iter      E             dE          RMSdq      gap      omega  full diag
   1   -153.7229142 -0.153723E+03  0.473E-01    1.96       0.0  T
   2   -153.7496930 -0.267789E-01  0.370E-01    1.14       1.0  T
   3   -153.7599345 -0.102415E-01  0.193E-01    1.41       1.0  T
   4   -153.7598169  0.117652E-03  0.165E-01    1.42       1.0  T
   5   -153.7605578 -0.740930E-03  0.906E-02    1.45       1.0  T
   6   -153.7605881 -0.303138E-04  0.556E-02    1.44       1.0  T
   7   -153.7606285 -0.404394E-04  0.402E-02    1.44       1.0  T
   8   -153.7606550 -0.264176E-04  0.206E-02    1.45       1.0  T
   9   -153.7606653 -0.103712E-04  0.107E-02    1.45       1.0  T
  10   -153.7606680 -0.272596E-05  0.728E-03    1.45       1.4  T
  11   -153.7606687 -0.624698E-06  0.446E-03    1.45       2.3  T
  12   -153.7606692 -0.553259E-06  0.244E-03    1.45       4.2  T
  13   -153.7606693 -0.643143E-07  0.111E-03    1.45       9.2  T
  14   -153.7606693 -0.542346E-07  0.640E-04    1.45      15.9  T
  15   -153.7606694 -0.623527E-08  0.367E-04    1.45      27.8  T

   *** convergence criteria satisfied after 15 iterations ***

         #    Occupation            Energy/Eh            Energy/eV
      -------------------------------------------------------------
         1        2.0000           -0.8256138             -22.4661
       ...           ...                  ...                  ...
       134        2.0000           -0.3920735             -10.6689
       135        2.0000           -0.3834102             -10.4331
       136        2.0000           -0.3812468             -10.3743
       137        2.0000           -0.3697667             -10.0619
       138        2.0000           -0.3661160              -9.9625
       139        2.0000           -0.3613749              -9.8335
       140        1.0000           -0.3251699              -8.8483 (HOMO)
       141                         -0.2718896              -7.3985 (LUMO)
       142                         -0.2688734              -7.3164
       143                         -0.2604137              -7.0862
       144                         -0.2483892              -6.7590
       145                         -0.2411370              -6.5617
       ...                                ...                  ...
       277                          0.7383638              20.0919
      -------------------------------------------------------------
                  HL-Gap            0.0532803 Eh            1.4498 eV
             Fermi-level           -0.3209094 Eh           -8.7324 eV

 SCC (total)                   0 d,  0 h,  0 min,  0.814 sec
 SCC setup                      ...        0 min,  0.000 sec (  0.032%)
 Dispersion                     ...        0 min,  0.001 sec (  0.117%)
 classical contributions        ...        0 min,  0.000 sec (  0.027%)
 integral evaluation            ...        0 min,  0.005 sec (  0.594%)
 iterations                     ...        0 min,  0.767 sec ( 94.178%)
 molecular gradient             ...        0 min,  0.026 sec (  3.222%)
 printout                       ...        0 min,  0.015 sec (  1.829%)

         :::::::::::::::::::::::::::::::::::::::::::::::::::::
         ::                     SUMMARY                     ::
         :::::::::::::::::::::::::::::::::::::::::::::::::::::
         :: total energy            -151.281471178230 Eh    ::
         :: gradient norm              0.065716744006 Eh/a0 ::
         :: HOMO-LUMO gap              1.449830541506 eV    ::
         ::.................................................::
         :: SCC energy              -153.760669352667 Eh    ::
         :: -> isotropic ES            0.097246590064 Eh    ::
         :: -> anisotropic ES          0.010090603969 Eh    ::
         :: -> anisotropic XC          0.074287036360 Eh    ::
         :: -> dispersion             -0.155309309130 Eh    ::
         :: repulsion energy           2.474932900209 Eh    ::
         :: add. restraining           0.000000000000 Eh    ::
         :: total charge              -0.000133045667 e     ::
         :::::::::::::::::::::::::::::::::::::::::::::::::::::

           -------------------------------------------------
          |                Property Printout                |
           -------------------------------------------------

    * Orbital Energies and Occupations

         #    Occupation            Energy/Eh            Energy/eV
      -------------------------------------------------------------
         1        2.0000           -0.8256138             -22.4661
       ...           ...                  ...                  ...
       128        2.0000           -0.4069464             -11.0736
       129        2.0000           -0.4058498             -11.0437
       130        2.0000           -0.4044908             -11.0068
       131        2.0000           -0.3991865             -10.8624
       132        2.0000           -0.3984467             -10.8423
       133        2.0000           -0.3932693             -10.7014
       134        2.0000           -0.3920735             -10.6689
       135        2.0000           -0.3834102             -10.4331
       136        2.0000           -0.3812468             -10.3743
       137        2.0000           -0.3697667             -10.0619
       138        2.0000           -0.3661160              -9.9625
       139        2.0000           -0.3613749              -9.8335
       140        1.0000           -0.3251699              -8.8483 (HOMO)
       141                         -0.2718896              -7.3985 (LUMO)
       142                         -0.2688734              -7.3164
       143                         -0.2604137              -7.0862
       144                         -0.2483892              -6.7590
       145                         -0.2411370              -6.5617
       146                         -0.2298944              -6.2557
       147                         -0.2287109              -6.2235
       148                         -0.2272844              -6.1847
       149                         -0.2199144              -5.9842
       150                         -0.2113636              -5.7515
       151                         -0.2049212              -5.5762
       ...                                ...                  ...
       277                          0.7383638              20.0919
      -------------------------------------------------------------
                  HL-Gap            0.0532803 Eh            1.4498 eV
             Fermi-level           -0.3209094 Eh           -8.7324 eV

     #   Z          covCN         q      C6AA      α(0)
     1   6 C        2.925    -0.036    28.905     8.817
     2   6 C        2.985    -0.037    28.901     8.819
     3   6 C        2.915     0.075    26.324     8.413
     4   6 C        3.001    -0.039    28.957     8.827
     5   6 C        2.984     0.010    27.776     8.645
     6   6 C        2.987     0.009    27.820     8.652
     7   6 C        2.976     0.008    27.843     8.655
     8   6 C        2.986     0.006    27.891     8.663
     9   6 C        3.054    -0.022    28.489     8.753
    10   6 C        3.093     0.050    26.779     8.482
    11   6 C        2.907    -0.046    29.153     8.853
    12   6 C        2.928    -0.037    28.927     8.820
    13   6 C        3.057    -0.023    28.510     8.756
    14   6 C        3.092     0.047    26.832     8.490
    15   6 C        2.979     0.005    27.895     8.664
    16   6 C        2.985     0.004    27.923     8.668
    17   6 C        2.926    -0.038    28.941     8.822
    18   6 C        2.907    -0.049    29.207     8.862
    19   6 C        2.983     0.010    27.796     8.648
    20   6 C        2.987     0.018    27.606     8.619
    21   6 C        2.913    -0.035    28.883     8.813
    22   6 C        2.917    -0.033    28.827     8.805
    23   6 C        2.984    -0.004    28.108     8.697
    24   6 C        2.921    -0.032    28.806     8.801
    25   6 C        2.886     0.158    24.585     8.129
    26  35 Br       1.074    -0.175   189.909    22.220
    27   7 N        1.937    -0.246    27.261     7.742
    28   7 N        2.846     0.042    20.507     6.726
    29   6 C        2.705     0.300    21.901     7.660
    30   7 N        2.855     0.040    20.543     6.732
    31   7 N        1.934    -0.244    27.203     7.734
    32   8 O        0.858    -0.425    22.193     6.316
    33   6 C        2.930    -0.034    28.845     8.808
    34   6 C        2.917    -0.031    28.764     8.795
    35   6 C        2.918    -0.032    28.788     8.798
    36   6 C        2.913    -0.040    28.983     8.828
    37   7 N        2.797    -0.046    22.122     6.986
    38  14 Si       3.503     0.483   100.878    19.428
    39   6 C        3.696    -0.172    24.048     7.015
    40   6 C        3.711     0.091    19.206     6.263
    41   8 O        1.702    -0.321    19.370     5.942
    42   6 C        3.649    -0.210    25.034     7.188
    43   6 C        3.649    -0.208    24.998     7.183
    44   6 C        3.649    -0.208    24.992     7.182
    45   6 C        3.641     0.156    18.400     6.168
    46   6 C        2.930     0.061    26.628     8.463
    47   6 C        2.923    -0.036    28.900     8.816
    48   6 C        2.919    -0.027    28.672     8.781
    49   6 C        2.918    -0.033    28.817     8.803
    50   6 C        2.920    -0.028    28.699     8.785
    51   6 C        2.917    -0.043    29.072     8.842
    52   6 C        2.935     0.063    26.588     8.457
    53   6 C        2.917    -0.035    28.865     8.810
    54   6 C        2.921    -0.026    28.650     8.778
    55   6 C        2.919    -0.031    28.766     8.795
    56   6 C        2.919    -0.026    28.663     8.779
    57   6 C        2.922    -0.035    28.862     8.810
    58   1 H        0.926     0.059     2.213     2.326
    59   1 H        0.926     0.042     2.425     2.435
    60   1 H        0.926     0.039     2.460     2.453
    61   1 H        0.926     0.042     2.422     2.434
    62   1 H        0.926     0.055     2.254     2.348
    63   1 H        0.926     0.069     2.099     2.266
    64   1 H        0.926     0.040     2.442     2.444
    65   1 H        0.926     0.036     2.505     2.475
    66   1 H        0.926     0.036     2.505     2.475
    67   1 H        0.926     0.058     2.227     2.334
    68   1 H        0.926     0.048     2.343     2.394
    69   1 H        0.926     0.041     2.439     2.442
    70   1 H        0.925     0.042     2.426     2.436
    71   1 H        0.925     0.038     2.469     2.457
    72   1 H        0.923     0.008     2.929     2.676
    73   1 H        0.923     0.006     2.955     2.688
    74   1 H        0.923     0.028     2.609     2.526
    75   1 H        0.923     0.026     2.638     2.540
    76   1 H        0.925     0.032     2.557     2.501
    77   1 H        0.925     0.038     2.469     2.457
    78   1 H        0.925     0.039     2.467     2.456
    79   1 H        0.925     0.038     2.476     2.460
    80   1 H        0.925     0.032     2.556     2.500
    81   1 H        0.925     0.038     2.470     2.458
    82   1 H        0.925     0.033     2.537     2.491
    83   1 H        0.925     0.041     2.440     2.443
    84   1 H        0.925     0.038     2.481     2.463
    85   1 H        0.926     0.054     2.269     2.355
    86   1 H        0.926     0.037     2.491     2.468
    87   1 H        0.926     0.034     2.535     2.490
    88   1 H        0.926     0.036     2.503     2.474
    89   1 H        0.926     0.030     2.588     2.516
    90   1 H        0.926     0.033     2.544     2.494
    91   1 H        0.926     0.036     2.509     2.477
    92   1 H        0.926     0.033     2.548     2.496
    93   1 H        0.926     0.033     2.543     2.494
    94   1 H        0.925     0.036     2.506     2.476
    95   1 H        0.926     0.048     2.348     2.396
    96   1 H        0.926     0.055     2.259     2.350

 Mol. C6AA /au·bohr⁶  :     136114.625739
 Mol. C8AA /au·bohr⁸  :    3644101.931878
 Mol. α(0) /au        :        591.668028


Wiberg/Mayer (AO) data.
largest (>0.10) Wiberg bond orders for each atom

 ---------------------------------------------------------------------------
     #   Z sym  total        # sym  WBO       # sym  WBO       # sym  WBO
 ---------------------------------------------------------------------------
     1   6 C    3.982 --     2 C    1.515     6 C    1.309    94 H    0.966
                             4 C    0.106
     2   6 C    3.980 --     1 C    1.515     3 C    1.334    95 H    0.969
     3   6 C    3.928 --     4 C    1.477     2 C    1.334    26 Br   0.973
     4   6 C    3.989 --     3 C    1.477     5 C    1.317    96 H    0.961
                             1 C    0.106
     5   6 C    3.987 --     4 C    1.317     6 C    1.270     7 C    1.175
     6   6 C    3.986 --     1 C    1.309     5 C    1.270    36 C    1.220
     7   6 C    3.976 --     8 C    1.292     9 C    1.262     5 C    1.175
     8   6 C    3.984 --     7 C    1.292    12 C    1.279    35 C    1.222
     9   6 C    3.973 --    10 C    1.283     7 C    1.262    13 C    1.173
    10   6 C    3.948 --    11 C    1.297     9 C    1.283    37 N    1.150
    11   6 C    3.978 --    12 C    1.541    10 C    1.297    90 H    0.964
    12   6 C    3.962 --    11 C    1.541     8 C    1.279    91 H    0.968
    13   6 C    3.974 --    14 C    1.284    15 C    1.262     9 C    1.173
    14   6 C    3.946 --    18 C    1.299    13 C    1.284    37 N    1.146
    15   6 C    3.977 --    16 C    1.292    13 C    1.262    19 C    1.175
    16   6 C    3.984 --    15 C    1.292    17 C    1.282    22 C    1.222
    17   6 C    3.960 --    18 C    1.537    16 C    1.282    88 H    0.968
    18   6 C    3.978 --    17 C    1.537    14 C    1.299    89 H    0.964
    19   6 C    3.987 --    33 C    1.337    20 C    1.264    15 C    1.175
    20   6 C    3.980 --    24 C    1.303    19 C    1.264    21 C    1.225
    21   6 C    3.977 --    22 C    1.622    20 C    1.225    86 H    0.967
    22   6 C    3.977 --    21 C    1.622    16 C    1.222    87 H    0.967
    23   6 C    3.979 --    33 C    1.433    34 C    1.306    25 C    1.059
    24   6 C    3.981 --    34 C    1.534    20 C    1.303    69 H    0.967
                            33 C    0.101
    25   6 C    3.964 --    27 N    1.367    31 N    1.366    23 C    1.059
    26  35 Br   1.094 --     3 C    0.973
    27   7 N    2.931 --    25 C    1.367    28 N    1.188    31 N    0.128
    28   7 N    3.631 --    27 N    1.188    29 C    1.066    46 C    1.048
                            32 O    0.119
    29   6 C    3.958 --    32 O    1.657    30 N    1.081    28 N    1.066
    30   7 N    3.624 --    31 N    1.183    29 C    1.081    52 C    1.031
                            32 O    0.125
    31   7 N    2.921 --    25 C    1.366    30 N    1.183    27 N    0.128
    32   8 O    2.019 --    29 C    1.657    30 N    0.125    28 N    0.119
    33   6 C    3.981 --    23 C    1.433    19 C    1.337    85 H    0.956
                            24 C    0.101
    34   6 C    3.977 --    24 C    1.534    23 C    1.306    68 H    0.967
    35   6 C    3.982 --    36 C    1.624     8 C    1.222    92 H    0.967
    36   6 C    3.977 --    35 C    1.624     6 C    1.220    93 H    0.967
    37   7 N    3.553 --    10 C    1.150    14 C    1.146    45 C    1.002
    38  14 Si   3.618 --    44 C    0.903    43 C    0.902    42 C    0.897
                            39 C    0.840
    39   6 C    3.966 --    40 C    1.026    71 H    0.983    70 H    0.981
                            38 Si   0.840
    40   6 C    3.942 --    39 C    1.026    72 H    0.973    73 H    0.972
                            41 O    0.959
    41   8 O    2.068 --    45 C    0.986    40 C    0.959
    42   6 C    3.980 --    80 H    0.991    81 H    0.987    79 H    0.987
                            38 Si   0.897
    43   6 C    3.981 --    77 H    0.987    76 H    0.987    78 H    0.986
                            38 Si   0.902
    44   6 C    3.982 --    84 H    0.987    82 H    0.986    83 H    0.985
                            38 Si   0.903
    45   6 C    3.956 --    37 N    1.002    41 O    0.986    74 H    0.955
                            75 H    0.954
    46   6 C    3.950 --    51 C    1.366    47 C    1.349    28 N    1.048
    47   6 C    3.984 --    48 C    1.468    46 C    1.349    67 H    0.962
                            50 C    0.104
    48   6 C    3.991 --    47 C    1.468    49 C    1.420    66 H    0.970
                            51 C    0.103
    49   6 C    3.971 --    50 C    1.432    48 C    1.420    65 H    0.971
    50   6 C    3.990 --    51 C    1.453    49 C    1.432    64 H    0.971
                            47 C    0.104
    51   6 C    3.983 --    50 C    1.453    46 C    1.366    63 H    0.961
                            48 C    0.103
    52   6 C    3.952 --    53 C    1.373    57 C    1.363    30 N    1.031
    53   6 C    3.986 --    54 C    1.452    52 C    1.373    62 H    0.966
                            56 C    0.105
    54   6 C    3.990 --    53 C    1.452    55 C    1.432    61 H    0.970
                            57 C    0.106
    55   6 C    3.975 --    54 C    1.432    56 C    1.425    60 H    0.971
    56   6 C    3.991 --    57 C    1.461    55 C    1.425    59 H    0.970
                            53 C    0.105
    57   6 C    3.984 --    56 C    1.461    52 C    1.363    58 H    0.964
                            54 C    0.106
    58   1 H    0.996 --    57 C    0.964
    59   1 H    0.998 --    56 C    0.970
Note: The following floating-point exceptions are signalling: IEEE_UNDERFLOW_FLAG
normal termination of xtb
    60   1 H    0.998 --    55 C    0.971
    61   1 H    0.998 --    54 C    0.970
    62   1 H    0.997 --    53 C    0.966
    63   1 H    0.995 --    51 C    0.961
    64   1 H    0.998 --    50 C    0.971
    65   1 H    0.999 --    49 C    0.971
    66   1 H    0.998 --    48 C    0.970
    67   1 H    0.997 --    47 C    0.962
    68   1 H    0.997 --    34 C    0.967
    69   1 H    0.997 --    24 C    0.967
    70   1 H    0.998 --    39 C    0.981
    71   1 H    0.999 --    39 C    0.983
    72   1 H    1.000 --    40 C    0.973
    73   1 H    1.000 --    40 C    0.972
    74   1 H    0.998 --    45 C    0.955
    75   1 H    0.998 --    45 C    0.954
    76   1 H    0.999 --    43 C    0.987
    77   1 H    0.998 --    43 C    0.987
    78   1 H    0.999 --    43 C    0.986
    79   1 H    0.999 --    42 C    0.987
    80   1 H    0.999 --    42 C    0.991
    81   1 H    0.999 --    42 C    0.987
    82   1 H    0.999 --    44 C    0.986
    83   1 H    0.998 --    44 C    0.985
    84   1 H    0.999 --    44 C    0.987
    85   1 H    0.997 --    33 C    0.956
    86   1 H    0.997 --    21 C    0.967
    87   1 H    0.998 --    22 C    0.967
    88   1 H    0.998 --    17 C    0.968
    89   1 H    0.998 --    18 C    0.964
    90   1 H    0.997 --    11 C    0.964
    91   1 H    0.998 --    12 C    0.968
    92   1 H    0.998 --    35 C    0.967
    93   1 H    0.997 --    36 C    0.967
    94   1 H    0.998 --     1 C    0.966
    95   1 H    0.997 --     2 C    0.969
    96   1 H    0.997 --     4 C    0.961
 ---------------------------------------------------------------------------

Topologies differ in bond orders
Writing corrected topology to xtbtopo.mol

molecular dipole:
                 x           y           z       tot (Debye)
 q only:       -2.197       0.416       0.300
   full:       -2.720      -0.311       0.283       6.996
molecular quadrupole (traceless):
                xx          xy          yy          xz          yz          zz
 q only:       23.267     -24.526     -13.904     -16.949       7.428      -9.364
  q+dip:       33.247     -35.731     -11.592     -16.367       3.933     -21.656
   full:       26.867     -34.051     -18.149     -10.630       9.076      -8.718


           -------------------------------------------------
          | TOTAL ENERGY             -151.281471178230 Eh   |
          | GRADIENT NORM               0.065716744006 Eh/α |
          | HOMO-LUMO GAP               1.449830541506 eV   |
           -------------------------------------------------
########################################################################
[WARNING] Runtime exception occurred
-2- restart_readRestart: Multiplicity missmatch in restart file.
-1- restart_readRestart: Number of electron missmatch in restart file.
########################################################################

------------------------------------------------------------------------
 * finished run on 2024/11/14 at 13:21:06.246     
------------------------------------------------------------------------
 total:
 * wall-time:     0 d,  0 h,  0 min,  0.828 sec
 *  cpu-time:     0 d,  0 h,  0 min,  2.837 sec
 * ratio c/w:     3.428 speedup
 SCF:
 * wall-time:     0 d,  0 h,  0 min,  0.815 sec
 *  cpu-time:     0 d,  0 h,  0 min,  2.810 sec
 * ratio c/w:     3.450 speedup

