      -----------------------------------------------------------      
     |                   =====================                   |     
     |                           x T B                           |     
     |                   =====================                   |     
     |                         S. Grimme                         |     
     |          Mulliken Center for Theoretical Chemistry        |     
     |                    University of Bonn                     |     
      -----------------------------------------------------------      

   * xtb version 6.6.1 (8d0f1dd) compiled by 'runner@Mac-1690902418499.local' on 2023-08-01

   xtb is free software: you can redistribute it and/or modify it under
   the terms of the GNU Lesser General Public License as published by
   the Free Software Foundation, either version 3 of the License, or
   (at your option) any later version.
   
   xtb is distributed in the hope that it will be useful,
   but WITHOUT ANY WARRANTY; without even the implied warranty of
   MERCHANTABILITY or FITNESS FOR A PARTICULAR PURPOSE.  See the
   GNU Lesser General Public License for more details.
   
   Cite this work as:
   * C. Bannwarth, E. Caldeweyher, S. Ehlert, A. Hansen, P. Pracht,
     J. Seibert, S. Spicher, S. Grimme, WIREs Comput. Mol. Sci., 2020, 11,
     e01493. DOI: 10.1002/wcms.1493
   
   for GFN2-xTB:
   * C. Bannwarth, S. Ehlert and S. Grimme., J. Chem. Theory Comput., 2019,
     15, 1652-1671. DOI: 10.1021/acs.jctc.8b01176
   for GFN1-xTB:
   * S. Grimme, C. Bannwarth, P. Shushkov, J. Chem. Theory Comput., 2017,
     13, 1989-2009. DOI: 10.1021/acs.jctc.7b00118
   for GFN0-xTB:
   * P. Pracht, E. Caldeweyher, S. Ehlert, S. Grimme, ChemRxiv, 2019, preprint.
     DOI: 10.26434/chemrxiv.8326202.v1
   for GFN-FF:
   * S. Spicher and S. Grimme, Angew. Chem. Int. Ed., 2020, 59, 15665-15673.
     DOI: 10.1002/anie.202004239
   
   for ALPB and GBSA implicit solvation:
   * S. Ehlert, M. Stahn, S. Spicher, S. Grimme, J. Chem. Theory Comput.,
     2021, 17, 4250-4261. DOI: 10.1021/acs.jctc.1c00471
   
   for DFT-D4:
   * E. Caldeweyher, C. Bannwarth and S. Grimme, J. Chem. Phys., 2017,
     147, 034112. DOI: 10.1063/1.4993215
   * E. Caldeweyher, S. Ehlert, A. Hansen, H. Neugebauer, S. Spicher,
     C. Bannwarth and S. Grimme, J. Chem. Phys., 2019, 150, 154122.
     DOI: 10.1063/1.5090222
   * E. Caldeweyher, J.-M. Mewes, S. Ehlert and S. Grimme, Phys. Chem. Chem. Phys.
     2020, 22, 8499-8512. DOI: 10.1039/D0CP00502A
   
   for sTDA-xTB:
   * S. Grimme and C. Bannwarth, J. Chem. Phys., 2016, 145, 054103.
     DOI: 10.1063/1.4959605
   
   in the mass-spec context:
   * V. Asgeirsson, C. Bauer and S. Grimme, Chem. Sci., 2017, 8, 4879.
     DOI: 10.1039/c7sc00601b
   * J. Koopman and S. Grimme, ACS Omega 2019, 4, 12, 15120-15133.
     DOI: 10.1021/acsomega.9b02011
   
   for metadynamics refer to:
   * S. Grimme, J. Chem. Theory Comput., 2019, 155, 2847-2862
     DOI: 10.1021/acs.jctc.9b00143
   
   for SPH calculations refer to:
   * S. Spicher and S. Grimme, J. Chem. Theory Comput., 2021, 17, 1701-1714
     DOI: 10.1021/acs.jctc.0c01306
   
   with help from (in alphabetical order)
   P. Atkinson, C. Bannwarth, F. Bohle, G. Brandenburg, E. Caldeweyher
   M. Checinski, S. Dohm, S. Ehlert, S. Ehrlich, I. Gerasimov, C. Hölzer
   A. Katbashev, J. Koopman, C. Lavigne, S. Lehtola, F. März, M. Müller,
   F. Musil, H. Neugebauer, J. Pisarek, C. Plett, P. Pracht, F. Pultar,
   J. Seibert, P. Shushkov, S. Spicher, M. Stahn, M. Steiner, T. Strunk,
   J. Stückrath, T. Rose, and J. Unsleber
   
 * started run on 2024/11/14 at 13:17:39.039     

           -------------------------------------------------
          |                Calculation Setup                |
           -------------------------------------------------

          program call               : xtb Verdazyl4.mol --opt --gfn2 --chrg 0 --uhf 1 --tight
          coordinate file            : Verdazyl4.mol
          omp threads                :                     8

   ID    Z sym.   atoms
    1    6 C      1-25, 29, 33-36, 39, 40, 42-57
    2   35 Br     26
    3    7 N      27, 28, 30, 31, 37
    4    8 O      32, 41
    5   14 Si     38
    6    1 H      58-96
########################################################################
[WARNING] Please study the warnings concerning your input carefully
-1- prog_main_parseArguments: Unknown option '--tight' provided
########################################################################

           -------------------------------------------------
          |                 G F N 2 - x T B                 |
           -------------------------------------------------

        Reference                      10.1021/acs.jctc.8b01176
      * Hamiltonian:
        H0-scaling (s, p, d)           1.850000    2.230000    2.230000
        zeta-weighting                 0.500000
      * Dispersion:
        s8                             2.700000
        a1                             0.520000
        a2                             5.000000
        s9                             5.000000
      * Repulsion:
        kExp                           1.500000    1.000000
        rExp                           1.000000
      * Coulomb:
        alpha                          2.000000
        third order                    shell-resolved
        anisotropic                    true
        a3                             3.000000
        a5                             4.000000
        cn-shift                       1.200000
        cn-exp                         4.000000
        max-rad                        5.000000


          ...................................................
          :                      SETUP                      :
          :.................................................:
          :  # basis functions                 279          :
          :  # atomic orbitals                 277          :
          :  # shells                          155          :
          :  # electrons                       279          :
          :  max. iterations                   250          :
          :  Hamiltonian                  GFN2-xTB          :
          :  restarted?                      false          :
          :  GBSA solvation                  false          :
          :  PC potential                    false          :
          :  electronic temp.          300.0000000     K    :
          :  accuracy                    1.0000000          :
          :  -> integral cutoff          0.2500000E+02      :
          :  -> integral neglect         0.1000000E-07      :
          :  -> SCF convergence          0.1000000E-05 Eh   :
          :  -> wf. convergence          0.1000000E-03 e    :
          :  Broyden damping             0.4000000          :
          ...................................................

 iter      E             dE          RMSdq      gap      omega  full diag
   1   -152.7599523 -0.152760E+03  0.485E+00    0.23       0.0  T
   2   -153.0144844 -0.254532E+00  0.363E+00    0.68       1.0  T
   3   -153.0276981 -0.132137E-01  0.174E+00    1.12       1.0  T
   4   -153.0288512 -0.115314E-02  0.895E-01    1.38       1.0  T
   5   -153.0907876 -0.619364E-01  0.381E-01    1.37       1.0  T
   6   -153.0957777 -0.499008E-02  0.191E-01    1.40       1.0  T
   7   -153.0969627 -0.118499E-02  0.111E-01    1.36       1.0  T
   8   -153.0970827 -0.120028E-03  0.836E-02    1.38       1.0  T
   9   -153.0972040 -0.121236E-03  0.431E-02    1.38       1.0  T
  10   -153.0972392 -0.352015E-04  0.301E-02    1.37       1.0  T
  11   -153.0972421 -0.293319E-05  0.241E-02    1.37       1.0  T
  12   -153.0972540 -0.119442E-04  0.161E-02    1.37       1.0  T
  13   -153.0972588 -0.479778E-05  0.476E-03    1.37       2.1  T
  14   -153.0972590 -0.120033E-06  0.184E-03    1.37       5.5  T
  15   -153.0972591 -0.930830E-07  0.134E-03    1.37       7.6  T
  16   -153.0972591 -0.342595E-07  0.624E-04    1.37      16.4  T
  17   -153.0972591 -0.677889E-08  0.439E-04    1.37      23.3  T

   *** convergence criteria satisfied after 17 iterations ***

         #    Occupation            Energy/Eh            Energy/eV
      -------------------------------------------------------------
         1        2.0000           -0.8258665             -22.4730
       ...           ...                  ...                  ...
       134        2.0000           -0.3845621             -10.4645
       135        2.0000           -0.3697076             -10.0603
       136        2.0000           -0.3630031              -9.8778
       137        2.0000           -0.3587692              -9.7626
       138        2.0000           -0.3571733              -9.7192
       139        1.9952           -0.3393553              -9.2343
       140        1.0048           -0.3292024              -8.9581 (HOMO)
       141                         -0.2789903              -7.5917 (LUMO)
       142                         -0.2741686              -7.4605
       143                         -0.2658118              -7.2331
       144                         -0.2617649              -7.1230
       145                         -0.2528935              -6.8816
       ...                                ...                  ...
       277                          0.9424270              25.6447
      -------------------------------------------------------------
                  HL-Gap            0.0502122 Eh            1.3663 eV
             Fermi-level           -0.3191896 Eh           -8.6856 eV

 SCC (total)                   0 d,  0 h,  0 min,  1.023 sec
 SCC setup                      ...        0 min,  0.001 sec (  0.104%)
 Dispersion                     ...        0 min,  0.002 sec (  0.240%)
 classical contributions        ...        0 min,  0.001 sec (  0.066%)
 integral evaluation            ...        0 min,  0.012 sec (  1.181%)
 iterations                     ...        0 min,  0.792 sec ( 77.395%)
 molecular gradient             ...        0 min,  0.060 sec (  5.873%)
 printout                       ...        0 min,  0.155 sec ( 15.137%)

         :::::::::::::::::::::::::::::::::::::::::::::::::::::
         ::                     SUMMARY                     ::
         :::::::::::::::::::::::::::::::::::::::::::::::::::::
         :: total energy            -150.937044865531 Eh    ::
         :: gradient norm              0.239402432279 Eh/a0 ::
         :: HOMO-LUMO gap              1.366342260921 eV    ::
         ::.................................................::
         :: SCC energy              -153.097259093481 Eh    ::
         :: -> isotropic ES            0.106609532499 Eh    ::
         :: -> anisotropic ES          0.011594588330 Eh    ::
         :: -> anisotropic XC          0.080002118753 Eh    ::
         :: -> dispersion             -0.141806421940 Eh    ::
         :: repulsion energy           2.157772862796 Eh    ::
         :: add. restraining           0.000000000000 Eh    ::
         :: total charge               0.000000000041 e     ::
         :::::::::::::::::::::::::::::::::::::::::::::::::::::

      ----------------------------------------------------------- 
     |                   =====================                   |
     |                        A N C O P T                        |
     |                   =====================                   |
     |               Approximate Normal Coordinate               |
     |                Rational Function Optimizer                |
      ----------------------------------------------------------- 

          ...................................................
          :                      SETUP                      :
          :.................................................:
          :   optimization level            normal          :
          :   max. optcycles                   288          :
          :   ANC micro-cycles                  20          :
          :   degrees of freedom               282          :
          :.................................................:
          :   RF solver                   davidson          :
          :   write xtbopt.log                true          :
          :   linear?                        false          :
          :   energy convergence         0.5000000E-05 Eh   :
          :   grad. convergence          0.1000000E-02 Eh/α :
          :   maxmium RF displ.          1.0000000          :
          :   Hlow (freq-cutoff)         0.1000000E-01      :
          :   Hmax (freq-cutoff)         5.0000000          :
          :   S6 in model hess.         20.0000000          :
          ...................................................

generating ANC from model Hessian ...
Using Lindh-Hessian (1995)
 Shifting diagonal of input Hessian by    1.0017250205747444E-002
 Lowest  eigenvalues of input Hessian
    0.010000    0.000000    0.000000    0.000000    0.000000    0.000000
    0.000000    0.010028    0.010043    0.010053    0.010134    0.010141
    0.010317    0.010531    0.010580    0.010662    0.010700    0.010797
 Highest eigenvalues
    1.994487    2.029146    2.074090    2.148978    2.205370    2.292589


........................................................................
.............................. CYCLE    1 ..............................
........................................................................

 iter      E             dE          RMSdq      gap      omega  full diag
   1   -153.0972591 -0.153097E+03  0.284E-04    1.37       0.0  T
   2   -153.0972591 -0.210093E-09  0.225E-04    1.37      45.3  T
   3   -153.0972591  0.792397E-10  0.198E-04    1.37      51.4  T
     SCC iter.                  ...        0 min,  0.284 sec
     gradient                   ...        0 min,  0.043 sec
 * total energy  :  -150.9370449 Eh     change       -0.3120732E-08 Eh
   gradient norm :     0.2394023 Eh/α   predicted     0.0000000E+00 (-100.00%)
   displ. norm   :     0.6414541 α      lambda       -0.9008396E-01
   maximum displ.:     0.2132537 α      in ANC's #38, #43, #73, ...

........................................................................
.............................. CYCLE    2 ..............................
........................................................................

 iter      E             dE          RMSdq      gap      omega  full diag
   1   -153.2286843 -0.153229E+03  0.282E-01    1.53       0.0  T
   2   -153.2292851 -0.600765E-03  0.188E-01    1.54       1.0  T
   3   -153.2291389  0.146225E-03  0.103E-01    1.55       1.0  T
   4   -153.2295011 -0.362229E-03  0.319E-02    1.55       1.0  T
   5   -153.2295493 -0.481892E-04  0.219E-02    1.54       1.0  T
   6   -153.2295612 -0.119141E-04  0.165E-02    1.55       1.0  T
   7   -153.2295655 -0.430702E-05  0.926E-03    1.55       1.1  T
   8   -153.2295668 -0.127842E-05  0.536E-03    1.55       1.9  T
   9   -153.2295669 -0.146036E-06  0.310E-03    1.55       3.3  T
  10   -153.2295673 -0.370751E-06  0.161E-03    1.55       6.3  T
  11   -153.2295674 -0.994582E-07  0.655E-04    1.55      15.6  T
  12   -153.2295674 -0.999859E-08  0.332E-04    1.55      30.8  T
     SCC iter.                  ...        0 min,  0.844 sec
     gradient                   ...        0 min,  0.027 sec
 * total energy  :  -151.0073676 Eh     change       -0.7032274E-01 Eh
   gradient norm :     0.1089666 Eh/α   predicted    -0.6362609E-01 (  -9.52%)
   displ. norm   :     0.7655873 α      lambda       -0.5374809E-01
   maximum displ.:     0.2969636 α      in ANC's #38, #43, #40, ...

........................................................................
.............................. CYCLE    3 ..............................
........................................................................

 iter      E             dE          RMSdq      gap      omega  full diag
   1   -153.3375456 -0.153338E+03  0.210E-01    1.66       0.0  T
   2   -153.3378049 -0.259281E-03  0.127E-01    1.68       1.0  T
   3   -153.3376911  0.113803E-03  0.739E-02    1.67       1.0  T
   4   -153.3379471 -0.256010E-03  0.154E-02    1.68       1.0  T
   5   -153.3379614 -0.143236E-04  0.892E-03    1.68       1.1  T
   6   -153.3379651 -0.366510E-05  0.599E-03    1.68       1.7  T
   7   -153.3379656 -0.532699E-06  0.338E-03    1.68       3.0  T
   8   -153.3379659 -0.308698E-06  0.250E-03    1.68       4.1  T
   9   -153.3379660 -0.943482E-07  0.162E-03    1.68       6.3  T
  10   -153.3379661 -0.757668E-07  0.895E-04    1.68      11.4  T
  11   -153.3379661 -0.189097E-07  0.441E-04    1.68      23.1  T
     SCC iter.                  ...        0 min,  0.402 sec
     gradient                   ...        0 min,  0.027 sec
 * total energy  :  -151.0504443 Eh     change       -0.4307667E-01 Eh
   gradient norm :     0.0481392 Eh/α   predicted    -0.4262735E-01 (  -1.04%)
   displ. norm   :     0.8332925 α      lambda       -0.3636986E-01
   maximum displ.:     0.3367848 α      in ANC's #38, #43, #40, ...

........................................................................
.............................. CYCLE    4 ..............................
........................................................................

 iter      E             dE          RMSdq      gap      omega  full diag
   1   -153.3980197 -0.153398E+03  0.171E-01    1.69       0.0  T
   2   -153.3981644 -0.144634E-03  0.103E-01    1.73       1.0  T
   3   -153.3980750  0.893233E-04  0.606E-02    1.71       1.0  T
   4   -153.3982264 -0.151408E-03  0.972E-03    1.72       1.0  T
   5   -153.3982306 -0.415702E-05  0.710E-03    1.72       1.4  T
   6   -153.3982320 -0.139216E-05  0.454E-03    1.72       2.2  T
   7   -153.3982323 -0.334521E-06  0.212E-03    1.72       4.8  T
   8   -153.3982324 -0.103347E-06  0.159E-03    1.72       6.4  T
   9   -153.3982325 -0.409552E-07  0.107E-03    1.72       9.6  T
  10   -153.3982325 -0.112591E-07  0.728E-04    1.72      14.0  T
  11   -153.3982325 -0.966449E-08  0.388E-04    1.72      26.3  T
     SCC iter.                  ...        0 min,  0.448 sec
     gradient                   ...        0 min,  0.025 sec
 * total energy  :  -151.0828035 Eh     change       -0.3235922E-01 Eh
   gradient norm :     0.0470809 Eh/α   predicted    -0.3081232E-01 (  -4.78%)
   displ. norm   :     0.8670832 α      lambda       -0.3086526E-01
   maximum displ.:     0.3396664 α      in ANC's #38, #43, #32, ...

........................................................................
.............................. CYCLE    5 ..............................
........................................................................

 iter      E             dE          RMSdq      gap      omega  full diag
   1   -153.4469020 -0.153447E+03  0.147E-01    1.70       0.0  T
   2   -153.4471665 -0.264476E-03  0.917E-02    1.74       1.0  T
   3   -153.4471575  0.897148E-05  0.488E-02    1.72       1.0  T
   4   -153.4472128 -0.552555E-04  0.149E-02    1.73       1.0  T
   5   -153.4472285 -0.157758E-04  0.686E-03    1.73       1.5  T
   6   -153.4472292 -0.709467E-06  0.493E-03    1.73       2.1  T
   7   -153.4472295 -0.225754E-06  0.303E-03    1.73       3.4  T
   8   -153.4472297 -0.179519E-06  0.215E-03    1.73       4.7  T
   9   -153.4472297 -0.122866E-07  0.132E-03    1.73       7.7  T
  10   -153.4472297 -0.362172E-07  0.767E-04    1.73      13.3  T
  11   -153.4472297 -0.154924E-07  0.391E-04    1.73      26.1  T
     SCC iter.                  ...        0 min,  0.635 sec
     gradient                   ...        0 min,  0.026 sec
 * total energy  :  -151.1102271 Eh     change       -0.2742358E-01 Eh
   gradient norm :     0.0353391 Eh/α   predicted    -0.2703562E-01 (  -1.41%)
   displ. norm   :     0.8640735 α      lambda       -0.2414965E-01
   maximum displ.:     0.3261085 α      in ANC's #32, #38, #43, ...

........................................................................
.............................. CYCLE    6 ..............................
........................................................................

 iter      E             dE          RMSdq      gap      omega  full diag
   1   -153.4911978 -0.153491E+03  0.136E-01    1.69       0.0  T
   2   -153.4914663 -0.268524E-03  0.861E-02    1.73       1.0  T
   3   -153.4914666 -0.315690E-06  0.421E-02    1.71       1.0  T
   4   -153.4914930 -0.264244E-04  0.171E-02    1.72       1.0  T
   5   -153.4915151 -0.220698E-04  0.608E-03    1.71       1.7  T
   6   -153.4915156 -0.468179E-06  0.464E-03    1.71       2.2  T
   7   -153.4915158 -0.221082E-06  0.295E-03    1.71       3.5  T
   8   -153.4915159 -0.159538E-06  0.203E-03    1.71       5.0  T
   9   -153.4915160 -0.189416E-07  0.117E-03    1.71       8.8  T
  10   -153.4915160 -0.408150E-07  0.585E-04    1.71      17.4  T
  11   -153.4915160 -0.105951E-07  0.292E-04    1.71      35.0  T
     SCC iter.                  ...        0 min,  0.495 sec
     gradient                   ...        0 min,  0.027 sec
 * total energy  :  -151.1311721 Eh     change       -0.2094500E-01 Eh
   gradient norm :     0.0236258 Eh/α   predicted    -0.2109020E-01 (   0.69%)
   displ. norm   :     0.8530426 α      lambda       -0.1784078E-01
   maximum displ.:     0.3694205 α      in ANC's #32, #38, #9, ...

........................................................................
.............................. CYCLE    7 ..............................
........................................................................

 iter      E             dE          RMSdq      gap      omega  full diag
   1   -153.5299404 -0.153530E+03  0.140E-01    1.67       0.0  T
   2   -153.5300860 -0.145564E-03  0.858E-02    1.70       1.0  T
   3   -153.5300518  0.341757E-04  0.336E-02    1.68       1.0  T
   4   -153.5300977 -0.458982E-04  0.133E-02    1.69       1.0  T
   5   -153.5301119 -0.142178E-04  0.453E-03    1.69       2.3  T
   6   -153.5301119  0.390963E-07  0.317E-03    1.69       3.2  T
   7   -153.5301123 -0.483273E-06  0.160E-03    1.69       6.4  T
   8   -153.5301124 -0.392446E-07  0.115E-03    1.69       8.9  T
   9   -153.5301124 -0.136775E-07  0.681E-04    1.69      15.0  T
  10   -153.5301124 -0.107676E-07  0.458E-04    1.69      22.3  T
     SCC iter.                  ...        0 min,  0.471 sec
     gradient                   ...        0 min,  0.027 sec
 * total energy  :  -151.1465177 Eh     change       -0.1534559E-01 Eh
   gradient norm :     0.0234543 Eh/α   predicted    -0.1541160E-01 (   0.43%)
   displ. norm   :     0.8606486 α      lambda       -0.1425523E-01
   maximum displ.:     0.4226385 α      in ANC's #32, #9, #38, ...

........................................................................
.............................. CYCLE    8 ..............................
........................................................................

 iter      E             dE          RMSdq      gap      omega  full diag
   1   -153.5610176 -0.153561E+03  0.152E-01    1.66       0.0  T
   2   -153.5610928 -0.751778E-04  0.916E-02    1.67       1.0  T
   3   -153.5610513  0.414979E-04  0.265E-02    1.66       1.0  T
   4   -153.5610989 -0.476003E-04  0.945E-03    1.67       1.1  T
   5   -153.5611067 -0.779618E-05  0.355E-03    1.67       2.9  T
   6   -153.5611068 -0.483928E-07  0.223E-03    1.67       4.6  T
   7   -153.5611070 -0.191106E-06  0.106E-03    1.67       9.6  T
   8   -153.5611070 -0.966449E-08  0.716E-04    1.67      14.3  T
   9   -153.5611070 -0.701246E-08  0.442E-04    1.67      23.1  T
     SCC iter.                  ...        0 min,  0.421 sec
     gradient                   ...        0 min,  0.029 sec
 * total energy  :  -151.1585712 Eh     change       -0.1205358E-01 Eh
   gradient norm :     0.0269389 Eh/α   predicted    -0.1240715E-01 (   2.93%)
   displ. norm   :     0.8515451 α      lambda       -0.1182743E-01
   maximum displ.:     0.4188188 α      in ANC's #32, #9, #14, ...

........................................................................
.............................. CYCLE    9 ..............................
........................................................................

 iter      E             dE          RMSdq      gap      omega  full diag
   1   -153.5853882 -0.153585E+03  0.156E-01    1.63       0.0  T
   2   -153.5854306 -0.423470E-04  0.928E-02    1.65       1.0  T
   3   -153.5853864  0.442127E-04  0.275E-02    1.64       1.0  T
   4   -153.5854401 -0.537137E-04  0.105E-02    1.65       1.0  T
   5   -153.5854436 -0.349189E-05  0.742E-03    1.65       1.4  T
   6   -153.5854449 -0.129893E-05  0.475E-03    1.65       2.2  T
   7   -153.5854451 -0.245155E-06  0.352E-03    1.65       2.9  T
   8   -153.5854451  0.394244E-07  0.208E-03    1.65       4.9  T
   9   -153.5854452 -0.123378E-06  0.106E-03    1.65       9.6  T
  10   -153.5854452 -0.111308E-07  0.606E-04    1.65      16.8  T
  11   -153.5854452 -0.266698E-08  0.230E-04    1.65      44.4  T
     SCC iter.                  ...        0 min,  0.509 sec
     gradient                   ...        0 min,  0.028 sec
 * total energy  :  -151.1685251 Eh     change       -0.9953886E-02 Eh
   gradient norm :     0.0255053 Eh/α   predicted    -0.1020195E-01 (   2.49%)
   displ. norm   :     0.8257936 α      lambda       -0.9002275E-02
   maximum displ.:     0.3688135 α      in ANC's #32, #14, #9, ...

........................................................................
.............................. CYCLE   10 ..............................
........................................................................

 iter      E             dE          RMSdq      gap      omega  full diag
   1   -153.6052951 -0.153605E+03  0.132E-01    1.63       0.0  T
   2   -153.6053245 -0.294005E-04  0.810E-02    1.63       1.0  T
   3   -153.6052651  0.593987E-04  0.303E-02    1.63       1.0  T
   4   -153.6053273 -0.622604E-04  0.140E-02    1.64       1.0  T
   5   -153.6053355 -0.820742E-05  0.110E-02    1.63       1.0  T
   6   -153.6053390 -0.343441E-05  0.743E-03    1.63       1.4  T
   7   -153.6053391 -0.130521E-06  0.521E-03    1.63       2.0  T
   8   -153.6053390  0.562108E-07  0.270E-03    1.63       3.8  T
   9   -153.6053392 -0.201553E-06  0.125E-03    1.63       8.2  T
  10   -153.6053392 -0.645619E-08  0.572E-04    1.63      17.8  T
  11   -153.6053392 -0.349567E-08  0.215E-04    1.63      47.5  T
     SCC iter.                  ...        0 min,  0.518 sec
     gradient                   ...        0 min,  0.028 sec
 * total energy  :  -151.1762463 Eh     change       -0.7721178E-02 Eh
   gradient norm :     0.0175907 Eh/α   predicted    -0.7570623E-02 (  -1.95%)
   displ. norm   :     0.8258055 α      lambda       -0.7211487E-02
   maximum displ.:     0.3817971 α      in ANC's #14, #9, #32, ...

........................................................................
.............................. CYCLE   11 ..............................
........................................................................

 iter      E             dE          RMSdq      gap      omega  full diag
   1   -153.6192836 -0.153619E+03  0.129E-01    1.63       0.0  T
   2   -153.6193118 -0.281882E-04  0.830E-02    1.64       1.0  T
   3   -153.6192279  0.838603E-04  0.359E-02    1.63       1.0  T
   4   -153.6193119 -0.839644E-04  0.181E-02    1.64       1.0  T
   5   -153.6193258 -0.139291E-04  0.148E-02    1.63       1.0  T
   6   -153.6193307 -0.487800E-05  0.959E-03    1.63       1.1  T
   7   -153.6193311 -0.390028E-06  0.465E-03    1.63       2.2  T
   8   -153.6193311 -0.595797E-07  0.262E-03    1.63       3.9  T
   9   -153.6193313 -0.137434E-06  0.143E-03    1.63       7.1  T
  10   -153.6193313 -0.177267E-07  0.535E-04    1.63      19.1  T
  11   -153.6193313 -0.447017E-08  0.234E-04    1.63      43.7  T
     SCC iter.                  ...        0 min,  0.583 sec
     gradient                   ...        0 min,  0.029 sec
 * total energy  :  -151.1822769 Eh     change       -0.6030585E-02 Eh
   gradient norm :     0.0189553 Eh/α   predicted    -0.6064701E-02 (   0.57%)
   displ. norm   :     0.8229952 α      lambda       -0.6206612E-02
   maximum displ.:     0.4249768 α      in ANC's #14, #9, #16, ...

........................................................................
.............................. CYCLE   12 ..............................
........................................................................

 iter      E             dE          RMSdq      gap      omega  full diag
   1   -153.6340710 -0.153634E+03  0.126E-01    1.63       0.0  T
   2   -153.6341872 -0.116249E-03  0.823E-02    1.62       1.0  T
   3   -153.6341401  0.471474E-04  0.404E-02    1.62       1.0  T
   4   -153.6341796 -0.395249E-04  0.228E-02    1.63       1.0  T
   5   -153.6342121 -0.324842E-04  0.157E-02    1.62       1.0  T
   6   -153.6342155 -0.339453E-05  0.114E-02    1.63       1.0  T
   7   -153.6342157 -0.156390E-06  0.544E-03    1.63       1.9  T
   8   -153.6342163 -0.693840E-06  0.283E-03    1.63       3.6  T
   9   -153.6342165 -0.183373E-06  0.136E-03    1.63       7.5  T
  10   -153.6342166 -0.368182E-07  0.636E-04    1.63      16.1  T
  11   -153.6342166 -0.680515E-08  0.318E-04    1.63      32.0  T
     SCC iter.                  ...        0 min,  0.399 sec
     gradient                   ...        0 min,  0.027 sec
 * total energy  :  -151.1871063 Eh     change       -0.4829400E-02 Eh
   gradient norm :     0.0225205 Eh/α   predicted    -0.5205246E-02 (   7.78%)
   displ. norm   :     0.7998425 α      lambda       -0.5193620E-02
   maximum displ.:     0.4195189 α      in ANC's #14, #16, #9, ...

........................................................................
.............................. CYCLE   13 ..............................
........................................................................

 iter      E             dE          RMSdq      gap      omega  full diag
   1   -153.6325279 -0.153633E+03  0.131E-01    1.63       0.0  T
   2   -153.6327816 -0.253731E-03  0.842E-02    1.65       1.0  T
   3   -153.6327705  0.111180E-04  0.461E-02    1.64       1.0  T
   4   -153.6328175 -0.469730E-04  0.208E-02    1.64       1.0  T
   5   -153.6328381 -0.206543E-04  0.142E-02    1.64       1.0  T
   6   -153.6328396 -0.142772E-05  0.110E-02    1.65       1.0  T
   7   -153.6328390  0.560428E-06  0.593E-03    1.64       1.7  T
   8   -153.6328405 -0.154826E-05  0.265E-03    1.64       3.9  T
   9   -153.6328408 -0.226384E-06  0.141E-03    1.64       7.2  T
  10   -153.6328408 -0.336195E-07  0.693E-04    1.64      14.7  T
  11   -153.6328408 -0.186801E-07  0.322E-04    1.64      31.7  T
     SCC iter.                  ...        0 min,  0.460 sec
     gradient                   ...        0 min,  0.031 sec
 * total energy  :  -151.1904904 Eh     change       -0.3384090E-02 Eh
   gradient norm :     0.0348690 Eh/α   predicted    -0.4258125E-02 (  25.83%)
   displ. norm   :     0.6808985 α      lambda       -0.4756819E-02
   maximum displ.:     0.3794598 α      in ANC's #14, #16, #9, ...

........................................................................
.............................. CYCLE   14 ..............................
........................................................................

 iter      E             dE          RMSdq      gap      omega  full diag
   1   -153.6431828 -0.153643E+03  0.110E-01    1.67       0.0  T
   2   -153.6433229 -0.140087E-03  0.726E-02    1.65       1.0  T
   3   -153.6433096  0.132501E-04  0.340E-02    1.66       1.0  T
   4   -153.6433163 -0.671262E-05  0.192E-02    1.66       1.0  T
   5   -153.6433406 -0.242827E-04  0.126E-02    1.66       1.0  T
   6   -153.6433416 -0.103535E-05  0.959E-03    1.66       1.1  T
   7   -153.6433417 -0.263915E-07  0.467E-03    1.66       2.2  T
   8   -153.6433425 -0.814291E-06  0.227E-03    1.66       4.5  T
   9   -153.6433426 -0.119008E-06  0.118E-03    1.66       8.6  T
  10   -153.6433426 -0.222042E-07  0.529E-04    1.66      19.3  T
  11   -153.6433426 -0.774179E-08  0.280E-04    1.66      36.4  T
     SCC iter.                  ...        0 min,  0.614 sec
     gradient                   ...        0 min,  0.028 sec
 * total energy  :  -151.1939703 Eh     change       -0.3479884E-02 Eh
   gradient norm :     0.0107505 Eh/α   predicted    -0.3481098E-02 (   0.03%)
   displ. norm   :     0.7606803 α      lambda       -0.3317395E-02
   maximum displ.:     0.4270844 α      in ANC's #14, #16, #9, ...

........................................................................
.............................. CYCLE   15 ..............................
........................................................................

 iter      E             dE          RMSdq      gap      omega  full diag
   1   -153.6494120 -0.153649E+03  0.101E-01    1.66       0.0  T
   2   -153.6494274 -0.154412E-04  0.662E-02    1.66       1.0  T
   3   -153.6493907  0.366917E-04  0.228E-02    1.66       1.0  T
   4   -153.6494281 -0.373763E-04  0.148E-02    1.67       1.0  T
   5   -153.6494332 -0.511236E-05  0.113E-02    1.66       1.0  T
   6   -153.6494358 -0.255231E-05  0.727E-03    1.67       1.4  T
   7   -153.6494361 -0.312232E-06  0.454E-03    1.66       2.2  T
   8   -153.6494360  0.502275E-07  0.266E-03    1.66       3.8  T
   9   -153.6494362 -0.138636E-06  0.146E-03    1.66       7.0  T
  10   -153.6494362 -0.130465E-07  0.686E-04    1.66      14.9  T
  11   -153.6494362 -0.847129E-08  0.211E-04    1.66      48.4  T
     SCC iter.                  ...        0 min,  0.441 sec
     gradient                   ...        0 min,  0.027 sec
 * total energy  :  -151.1970086 Eh     change       -0.3038354E-02 Eh
   gradient norm :     0.0143674 Eh/α   predicted    -0.2618480E-02 ( -13.82%)
   displ. norm   :     0.8576087 α      lambda       -0.3719139E-02
   maximum displ.:     0.4583763 α      in ANC's #14, #16, #5, ...

........................................................................
.............................. CYCLE   16 ..............................
........................................................................

 iter      E             dE          RMSdq      gap      omega  full diag
   1   -153.6552501 -0.153655E+03  0.135E-01    1.67       0.0  T
   2   -153.6552816 -0.315165E-04  0.964E-02    1.67       1.0  T
   3   -153.6551850  0.966394E-04  0.343E-02    1.67       1.0  T
   4   -153.6553022 -0.117204E-03  0.176E-02    1.67       1.0  T
   5   -153.6553065 -0.425978E-05  0.998E-03    1.67       1.0  T
   6   -153.6553074 -0.879235E-06  0.567E-03    1.67       1.8  T
   7   -153.6553078 -0.442931E-06  0.420E-03    1.67       2.4  T
   8   -153.6553079 -0.663767E-07  0.305E-03    1.67       3.3  T
   9   -153.6553080 -0.165883E-06  0.194E-03    1.67       5.3  T
  10   -153.6553080 -0.186367E-08  0.756E-04    1.67      13.5  T
  11   -153.6553081 -0.296511E-07  0.194E-04    1.67      52.7  T
     SCC iter.                  ...        0 min,  0.426 sec
     gradient                   ...        0 min,  0.026 sec
 * total energy  :  -151.2006512 Eh     change       -0.3642588E-02 Eh
   gradient norm :     0.0159857 Eh/α   predicted    -0.3227269E-02 ( -11.40%)
   displ. norm   :     0.9465042 α      lambda       -0.4494011E-02
   maximum displ.:     0.4787600 α      in ANC's #14, #5, #16, ...

........................................................................
.............................. CYCLE   17 ..............................
........................................................................

 iter      E             dE          RMSdq      gap      omega  full diag
   1   -153.6608397 -0.153661E+03  0.198E-01    1.67       0.0  T
   2   -153.6609063 -0.666508E-04  0.152E-01    1.67       1.0  T
   3   -153.6606486  0.257765E-03  0.550E-02    1.68       1.0  T
   4   -153.6609873 -0.338750E-03  0.238E-02    1.67       1.0  T
   5   -153.6609956 -0.832704E-05  0.882E-03    1.67       1.2  T
   6   -153.6609969 -0.126122E-05  0.418E-03    1.67       2.4  T
   7   -153.6609973 -0.347599E-06  0.263E-03    1.67       3.9  T
   8   -153.6609974 -0.159969E-06  0.180E-03    1.67       5.7  T
   9   -153.6609974 -0.887627E-08  0.132E-03    1.67       7.7  T
  10   -153.6609974  0.133988E-07  0.666E-04    1.67      15.3  T
  11   -153.6609974 -0.345353E-07  0.187E-04    1.67      54.5  T
     SCC iter.                  ...        0 min,  0.718 sec
     gradient                   ...        0 min,  0.037 sec
 * total energy  :  -151.2050916 Eh     change       -0.4440403E-02 Eh
   gradient norm :     0.0188148 Eh/α   predicted    -0.4260035E-02 (  -4.06%)
   displ. norm   :     0.9279336 α      lambda       -0.5118900E-02
   maximum displ.:     0.5143744 α      in ANC's #5, #14, #6, ...

........................................................................
.............................. CYCLE   18 ..............................
........................................................................

 iter      E             dE          RMSdq      gap      omega  full diag
   1   -153.6684738 -0.153668E+03  0.272E-01    1.66       0.0  T
   2   -153.6685833 -0.109430E-03  0.209E-01    1.67       1.0  T
   3   -153.6678893  0.693962E-03  0.795E-02    1.66       1.0  T
   4   -153.6687097 -0.820426E-03  0.312E-02    1.66       1.0  T
   5   -153.6687303 -0.205877E-04  0.144E-02    1.67       1.0  T
   6   -153.6687328 -0.247126E-05  0.549E-03    1.66       1.9  T
   7   -153.6687348 -0.200556E-05  0.249E-03    1.66       4.1  T
   8   -153.6687349 -0.136182E-06  0.132E-03    1.66       7.7  T
   9   -153.6687350 -0.533981E-07  0.819E-04    1.66      12.5  T
  10   -153.6687350 -0.451735E-08  0.640E-04    1.66      15.9  T
     SCC iter.                  ...        0 min,  0.426 sec
     gradient                   ...        0 min,  0.030 sec
 * total energy  :  -151.2097807 Eh     change       -0.4689097E-02 Eh
   gradient norm :     0.0280200 Eh/α   predicted    -0.4763290E-02 (   1.58%)
   displ. norm   :     0.8570599 α      lambda       -0.4993313E-02
   maximum displ.:     0.4574234 α      in ANC's #5, #14, #6, ...

........................................................................
.............................. CYCLE   19 ..............................
........................................................................

 iter      E             dE          RMSdq      gap      omega  full diag
   1   -153.6688428 -0.153669E+03  0.233E-01    1.65       0.0  T
   2   -153.6689062 -0.633979E-04  0.170E-01    1.65       1.0  T
   3   -153.6683538  0.552312E-03  0.663E-02    1.65       1.0  T
   4   -153.6689685 -0.614667E-03  0.250E-02    1.65       1.0  T
   5   -153.6689819 -0.133440E-04  0.111E-02    1.65       1.0  T
   6   -153.6689827 -0.845384E-06  0.468E-03    1.65       2.2  T
   7   -153.6689845 -0.179514E-05  0.215E-03    1.65       4.7  T
   8   -153.6689846 -0.122026E-06  0.113E-03    1.65       9.0  T
   9   -153.6689846 -0.225976E-07  0.720E-04    1.65      14.2  T
  10   -153.6689846 -0.776112E-09  0.511E-04    1.65      20.0  T
     SCC iter.                  ...        0 min,  0.515 sec
     gradient                   ...        0 min,  0.028 sec
 * total energy  :  -151.2145661 Eh     change       -0.4785351E-02 Eh
   gradient norm :     0.0375647 Eh/α   predicted    -0.4330580E-02 (  -9.50%)
   displ. norm   :     0.7792970 α      lambda       -0.7561743E-02
   maximum displ.:     0.4690382 α      in ANC's #5, #6, #3, ...

........................................................................
.............................. CYCLE   20 ..............................
........................................................................

 iter      E             dE          RMSdq      gap      omega  full diag
   1   -153.6800339 -0.153680E+03  0.281E-01    1.61       0.0  T
   2   -153.6802894 -0.255463E-03  0.175E-01    1.63       1.0  T
   3   -153.6801409  0.148496E-03  0.600E-02    1.62       1.0  T
   4   -153.6803051 -0.164173E-03  0.212E-02    1.62       1.0  T
   5   -153.6803309 -0.258504E-04  0.127E-02    1.63       1.0  T
   6   -153.6803337 -0.283885E-05  0.731E-03    1.63       1.4  T
   7   -153.6803363 -0.255004E-05  0.346E-03    1.63       3.0  T
   8   -153.6803366 -0.316183E-06  0.201E-03    1.63       5.1  T
   9   -153.6803367 -0.712354E-07  0.124E-03    1.63       8.3  T
  10   -153.6803367 -0.130420E-07  0.911E-04    1.63      11.2  T
  11   -153.6803367 -0.869429E-08  0.514E-04    1.63      19.9  T
     SCC iter.                  ...        0 min,  0.560 sec
     gradient                   ...        0 min,  0.036 sec
 * total energy  :  -151.2202073 Eh     change       -0.5641215E-02 Eh
   gradient norm :     0.0627391 Eh/α   predicted    -0.6077012E-02 (   7.73%)
   displ. norm   :     0.7827215 α      lambda       -0.7494632E-02
   maximum displ.:     0.4213980 α      in ANC's #5, #14, #6, ...
 * RMSD in coord.:     1.2658910 α      energy gain  -0.2831624E+00 Eh

generating ANC from model Hessian ...
Using Lindh-Hessian (1995)
 Shifting diagonal of input Hessian by    1.0079283409996989E-002
 Lowest  eigenvalues of input Hessian
    0.010000    0.000000    0.000000    0.000000    0.000000    0.000000
    0.000000    0.010087    0.010105    0.010194    0.010281    0.010445
    0.010576    0.010644    0.010859    0.010928    0.011154    0.011308
 Highest eigenvalues
    2.128214    2.138705    2.150026    2.170842    2.267037    2.466537


........................................................................
.............................. CYCLE   21 ..............................
........................................................................

 iter      E             dE          RMSdq      gap      omega  full diag
   1   -153.6742504 -0.153674E+03  0.165E-01    1.64       0.0  T
   2   -153.6742937 -0.433238E-04  0.114E-01    1.64       1.0  T
   3   -153.6741276  0.166097E-03  0.410E-02    1.64       1.0  T
   4   -153.6743125 -0.184853E-03  0.229E-02    1.64       1.0  T
   5   -153.6743260 -0.134990E-04  0.124E-02    1.64       1.0  T
   6   -153.6743266 -0.632100E-06  0.746E-03    1.64       1.4  T
   7   -153.6743274 -0.797193E-06  0.561E-03    1.64       1.8  T
   8   -153.6743277 -0.280599E-06  0.390E-03    1.64       2.6  T
   9   -153.6743279 -0.231208E-06  0.213E-03    1.64       4.8  T
  10   -153.6743279 -0.110293E-07  0.101E-03    1.64      10.1  T
  11   -153.6743279 -0.142169E-07  0.320E-04    1.64      31.9  T
  12   -153.6743279 -0.528263E-08  0.113E-04    1.64      90.6  T
     SCC iter.                  ...        0 min,  0.456 sec
     gradient                   ...        0 min,  0.026 sec
 * total energy  :  -151.2269695 Eh     change       -0.6762206E-02 Eh
   gradient norm :     0.0511398 Eh/α   predicted     0.0000000E+00 (-100.00%)
   displ. norm   :     0.5060196 α      lambda       -0.7145599E-02
   maximum displ.:     0.2637688 α      in ANC's #7, #14, #8, ...

........................................................................
.............................. CYCLE   22 ..............................
........................................................................

 iter      E             dE          RMSdq      gap      omega  full diag
   1   -153.6925469 -0.153693E+03  0.103E-01    1.66       0.0  T
   2   -153.6926378 -0.908772E-04  0.651E-02    1.65       1.0  T
   3   -153.6926095  0.282279E-04  0.274E-02    1.66       1.0  T
   4   -153.6926430 -0.335051E-04  0.114E-02    1.66       1.0  T
   5   -153.6926529 -0.984292E-05  0.495E-03    1.66       2.1  T
   6   -153.6926534 -0.533962E-06  0.320E-03    1.66       3.2  T
   7   -153.6926538 -0.362017E-06  0.152E-03    1.66       6.7  T
   8   -153.6926539 -0.921372E-07  0.630E-04    1.66      16.2  T
   9   -153.6926539 -0.114337E-07  0.247E-04    1.66      41.3  T
     SCC iter.                  ...        0 min,  0.423 sec
     gradient                   ...        0 min,  0.037 sec
 * total energy  :  -151.2331978 Eh     change       -0.6228304E-02 Eh
   gradient norm :     0.0214865 Eh/α   predicted    -0.4496458E-02 ( -27.81%)
   displ. norm   :     0.8295722 α      lambda       -0.8611566E-02
   maximum displ.:     0.4144911 α      in ANC's #7, #14, #8, ...

........................................................................
.............................. CYCLE   23 ..............................
........................................................................

 iter      E             dE          RMSdq      gap      omega  full diag
   1   -153.7097998 -0.153710E+03  0.191E-01    1.68       0.0  T
   2   -153.7098833 -0.834777E-04  0.126E-01    1.67       1.0  T
   3   -153.7097860  0.972913E-04  0.322E-02    1.68       1.0  T
   4   -153.7098836 -0.976494E-04  0.189E-02    1.68       1.0  T
   5   -153.7099022 -0.185514E-04  0.799E-03    1.68       1.3  T
   6   -153.7099014  0.817068E-06  0.461E-03    1.68       2.2  T
   7   -153.7099030 -0.163360E-05  0.190E-03    1.67       5.4  T
   8   -153.7099031 -0.108201E-06  0.989E-04    1.68      10.3  T
   9   -153.7099031 -0.245516E-07  0.400E-04    1.68      25.5  T
     SCC iter.                  ...        0 min,  0.465 sec
     gradient                   ...        0 min,  0.029 sec
 * total energy  :  -151.2409621 Eh     change       -0.7764310E-02 Eh
   gradient norm :     0.0242876 Eh/α   predicted    -0.7268979E-02 (  -6.38%)
   displ. norm   :     0.8899335 α      lambda       -0.8087819E-02
   maximum displ.:     0.4423125 α      in ANC's #7, #14, #8, ...

........................................................................
.............................. CYCLE   24 ..............................
........................................................................

 iter      E             dE          RMSdq      gap      omega  full diag
   1   -153.7181205 -0.153718E+03  0.186E-01    1.69       0.0  T
   2   -153.7181393 -0.188757E-04  0.123E-01    1.69       1.0  T
   3   -153.7180846  0.547105E-04  0.225E-02    1.69       1.0  T
   4   -153.7181416 -0.569980E-04  0.155E-02    1.69       1.0  T
   5   -153.7181493 -0.763841E-05  0.710E-03    1.69       1.4  T
   6   -153.7181494 -0.135001E-06  0.403E-03    1.69       2.5  T
   7   -153.7181504 -0.102196E-05  0.182E-03    1.69       5.6  T
   8   -153.7181504 -0.255935E-07  0.996E-04    1.69      10.2  T
   9   -153.7181505 -0.109772E-07  0.661E-04    1.69      15.4  T
     SCC iter.                  ...        0 min,  0.471 sec
     gradient                   ...        0 min,  0.030 sec
 * total energy  :  -151.2485739 Eh     change       -0.7611791E-02 Eh
   gradient norm :     0.0303454 Eh/α   predicted    -0.7246619E-02 (  -4.80%)
   displ. norm   :     0.8949456 α      lambda       -0.7944937E-02
   maximum displ.:     0.4399979 α      in ANC's #7, #14, #8, ...

........................................................................
.............................. CYCLE   25 ..............................
........................................................................

 iter      E             dE          RMSdq      gap      omega  full diag
   1   -153.7241728 -0.153724E+03  0.202E-01    1.69       0.0  T
   2   -153.7241952 -0.224268E-04  0.134E-01    1.69       1.0  T
   3   -153.7241461  0.490980E-04  0.263E-02    1.69       1.0  T
   4   -153.7242023 -0.562132E-04  0.127E-02    1.69       1.0  T
   5   -153.7242057 -0.341820E-05  0.654E-03    1.69       1.6  T
   6   -153.7242069 -0.120392E-05  0.289E-03    1.69       3.5  T
   7   -153.7242073 -0.379516E-06  0.150E-03    1.69       6.8  T
   8   -153.7242074 -0.500500E-07  0.864E-04    1.69      11.8  T
   9   -153.7242074 -0.329009E-07  0.484E-04    1.69      21.1  T
     SCC iter.                  ...        0 min,  0.393 sec
     gradient                   ...        0 min,  0.027 sec
 * total energy  :  -151.2559262 Eh     change       -0.7352319E-02 Eh
   gradient norm :     0.0243860 Eh/α   predicted    -0.7154145E-02 (  -2.70%)
   displ. norm   :     0.8790763 α      lambda       -0.7236756E-02
   maximum displ.:     0.4301478 α      in ANC's #7, #14, #8, ...

........................................................................
.............................. CYCLE   26 ..............................
........................................................................

 iter      E             dE          RMSdq      gap      omega  full diag
   1   -153.7299043 -0.153730E+03  0.184E-01    1.68       0.0  T
   2   -153.7299278 -0.235245E-04  0.122E-01    1.68       1.0  T
   3   -153.7298813  0.464906E-04  0.300E-02    1.68       1.0  T
   4   -153.7299369 -0.555279E-04  0.111E-02    1.68       1.0  T
   5   -153.7299372 -0.344449E-06  0.701E-03    1.68       1.5  T
   6   -153.7299385 -0.129368E-05  0.287E-03    1.68       3.6  T
   7   -153.7299388 -0.301844E-06  0.162E-03    1.68       6.3  T
   8   -153.7299389 -0.695964E-07  0.874E-04    1.68      11.7  T
   9   -153.7299389 -0.167490E-07  0.500E-04    1.68      20.4  T
     SCC iter.                  ...        0 min,  0.408 sec
     gradient                   ...        0 min,  0.032 sec
 * total energy  :  -151.2624482 Eh     change       -0.6522031E-02 Eh
   gradient norm :     0.0199786 Eh/α   predicted    -0.6414595E-02 (  -1.65%)
   displ. norm   :     0.8556023 α      lambda       -0.6113153E-02
   maximum displ.:     0.4147090 α      in ANC's #7, #8, #14, ...

........................................................................
.............................. CYCLE   27 ..............................
........................................................................

 iter      E             dE          RMSdq      gap      omega  full diag
   1   -153.7357177 -0.153736E+03  0.165E-01    1.67       0.0  T
   2   -153.7357311 -0.134450E-04  0.110E-01    1.67       1.0  T
   3   -153.7357160  0.151315E-04  0.232E-02    1.67       1.0  T
   4   -153.7357357 -0.196487E-04  0.104E-02    1.67       1.0  T
   5   -153.7357369 -0.124047E-05  0.666E-03    1.67       1.5  T
   6   -153.7357380 -0.111716E-05  0.248E-03    1.67       4.1  T
   7   -153.7357382 -0.194873E-06  0.167E-03    1.67       6.1  T
   8   -153.7357383 -0.432211E-07  0.906E-04    1.67      11.3  T
   9   -153.7357383 -0.215001E-07  0.565E-04    1.67      18.1  T
     SCC iter.                  ...        0 min,  0.381 sec
     gradient                   ...        0 min,  0.030 sec
 * total energy  :  -151.2678142 Eh     change       -0.5365931E-02 Eh
   gradient norm :     0.0185786 Eh/α   predicted    -0.5294160E-02 (  -1.34%)
   displ. norm   :     0.8197124 α      lambda       -0.4984693E-02
   maximum displ.:     0.4075891 α      in ANC's #7, #8, #14, ...

........................................................................
.............................. CYCLE   28 ..............................
........................................................................

 iter      E             dE          RMSdq      gap      omega  full diag
   1   -153.7427358 -0.153743E+03  0.133E-01    1.66       0.0  T
   2   -153.7427487 -0.128784E-04  0.885E-02    1.66       1.0  T
   3   -153.7427273  0.213890E-04  0.225E-02    1.66       1.0  T
   4   -153.7427504 -0.231081E-04  0.104E-02    1.66       1.0  T
   5   -153.7427527 -0.227900E-05  0.701E-03    1.66       1.5  T
   6   -153.7427540 -0.130078E-05  0.260E-03    1.66       3.9  T
   7   -153.7427544 -0.486120E-06  0.112E-03    1.66       9.1  T
   8   -153.7427545 -0.299119E-07  0.655E-04    1.66      15.6  T
   9   -153.7427545 -0.127656E-07  0.387E-04    1.66      26.4  T
     SCC iter.                  ...        0 min,  0.335 sec
     gradient                   ...        0 min,  0.029 sec
 * total energy  :  -151.2718616 Eh     change       -0.4047466E-02 Eh
   gradient norm :     0.0187000 Eh/α   predicted    -0.4167027E-02 (   2.95%)
   displ. norm   :     0.7821245 α      lambda       -0.4042507E-02
   maximum displ.:     0.3638433 α      in ANC's #7, #8, #14, ...

........................................................................
.............................. CYCLE   29 ..............................
........................................................................

 iter      E             dE          RMSdq      gap      omega  full diag
   1   -153.7436876 -0.153744E+03  0.126E-01    1.65       0.0  T
   2   -153.7437015 -0.138985E-04  0.877E-02    1.65       1.0  T
   3   -153.7436810  0.205308E-04  0.279E-02    1.65       1.0  T
   4   -153.7436901 -0.911438E-05  0.218E-02    1.65       1.0  T
   5   -153.7437065 -0.163811E-04  0.122E-02    1.65       1.0  T
   6   -153.7437095 -0.301639E-05  0.436E-03    1.65       2.3  T
   7   -153.7437098 -0.332636E-06  0.250E-03    1.65       4.1  T
   8   -153.7437099 -0.933520E-07  0.133E-03    1.65       7.7  T
   9   -153.7437099 -0.490809E-07  0.697E-04    1.65      14.6  T
  10   -153.7437100 -0.782794E-08  0.317E-04    1.65      32.1  T
     SCC iter.                  ...        0 min,  0.583 sec
     gradient                   ...        0 min,  0.028 sec
 * total energy  :  -151.2744480 Eh     change       -0.2586389E-02 Eh
   gradient norm :     0.0216417 Eh/α   predicted    -0.3257708E-02 (  25.96%)
   displ. norm   :     0.6248980 α      lambda       -0.2986037E-02
   maximum displ.:     0.3066288 α      in ANC's #7, #8, #14, ...

........................................................................
.............................. CYCLE   30 ..............................
........................................................................

 iter      E             dE          RMSdq      gap      omega  full diag
   1   -153.7510661 -0.153751E+03  0.126E-01    1.65       0.0  T
   2   -153.7510862 -0.200912E-04  0.812E-02    1.65       1.0  T
   3   -153.7510661  0.200774E-04  0.344E-02    1.65       1.0  T
   4   -153.7510902 -0.241298E-04  0.173E-02    1.65       1.0  T
   5   -153.7510896  0.640214E-06  0.122E-02    1.65       1.0  T
   6   -153.7510923 -0.271387E-05  0.403E-03    1.65       2.5  T
   7   -153.7510936 -0.127630E-05  0.188E-03    1.65       5.4  T
   8   -153.7510936 -0.648615E-07  0.990E-04    1.65      10.3  T
   9   -153.7510936 -0.186252E-07  0.524E-04    1.65      19.5  T
     SCC iter.                  ...        0 min,  0.400 sec
     gradient                   ...        0 min,  0.046 sec
 * total energy  :  -151.2759776 Eh     change       -0.1529579E-02 Eh
   gradient norm :     0.0225059 Eh/α   predicted    -0.2076041E-02 (  35.73%)
   displ. norm   :     0.4915617 α      lambda       -0.2238984E-02
   maximum displ.:     0.2654218 α      in ANC's #7, #8, #14, ...

........................................................................
.............................. CYCLE   31 ..............................
........................................................................

 iter      E             dE          RMSdq      gap      omega  full diag
   1   -153.7511593 -0.153751E+03  0.973E-02    1.66       0.0  T
   2   -153.7511934 -0.341193E-04  0.593E-02    1.66       1.0  T
   3   -153.7511902  0.324948E-05  0.262E-02    1.66       1.0  T
   4   -153.7511962 -0.599534E-05  0.103E-02    1.66       1.0  T
   5   -153.7511971 -0.899717E-06  0.794E-03    1.66       1.3  T
   6   -153.7511983 -0.128648E-05  0.313E-03    1.66       3.3  T
   7   -153.7511987 -0.343282E-06  0.141E-03    1.66       7.2  T
   8   -153.7511987 -0.214390E-07  0.650E-04    1.66      15.7  T
   9   -153.7511987 -0.203445E-07  0.267E-04    1.66      38.3  T
     SCC iter.                  ...        0 min,  0.637 sec
     gradient                   ...        0 min,  0.027 sec
 * total energy  :  -151.2768476 Eh     change       -0.8700248E-03 Eh
   gradient norm :     0.0204092 Eh/α   predicted    -0.1389997E-02 (  59.77%)
   displ. norm   :     0.3232242 α      lambda       -0.1407918E-02
   maximum displ.:     0.1286159 α      in ANC's #8, #18, #7, ...

........................................................................
.............................. CYCLE   32 ..............................
........................................................................

 iter      E             dE          RMSdq      gap      omega  full diag
   1   -153.7541881 -0.153754E+03  0.841E-02    1.66       0.0  T
   2   -153.7542001 -0.120608E-04  0.523E-02    1.66       1.0  T
   3   -153.7541964  0.370597E-05  0.291E-02    1.66       1.0  T
   4   -153.7542035 -0.703470E-05  0.159E-02    1.66       1.0  T
   5   -153.7541992  0.430373E-05  0.101E-02    1.66       1.0  T
   6   -153.7542036 -0.440995E-05  0.243E-03    1.66       4.2  T
   7   -153.7542042 -0.593692E-06  0.106E-03    1.66       9.6  T
   8   -153.7542042 -0.147241E-07  0.422E-04    1.66      24.2  T
   9   -153.7542042 -0.898996E-08  0.181E-04    1.66      56.4  T
     SCC iter.                  ...        0 min,  0.473 sec
     gradient                   ...        0 min,  0.025 sec
 * total energy  :  -151.2774482 Eh     change       -0.6005768E-03 Eh
   gradient norm :     0.0174107 Eh/α   predicted    -0.7775093E-03 (  29.46%)
   displ. norm   :     0.3204744 α      lambda       -0.1261910E-02
   maximum displ.:     0.1573970 α      in ANC's #18, #7, #8, ...

........................................................................
.............................. CYCLE   33 ..............................
........................................................................

 iter      E             dE          RMSdq      gap      omega  full diag
   1   -153.7507549 -0.153751E+03  0.901E-02    1.67       0.0  T
   2   -153.7507803 -0.253620E-04  0.545E-02    1.67       1.0  T
   3   -153.7507804 -0.109868E-06  0.263E-02    1.67       1.0  T
   4   -153.7507829 -0.249875E-05  0.103E-02    1.67       1.0  T
   5   -153.7507812  0.166923E-05  0.740E-03    1.67       1.4  T
   6   -153.7507832 -0.199144E-05  0.215E-03    1.67       4.7  T
   7   -153.7507833 -0.946336E-07  0.864E-04    1.67      11.8  T
   8   -153.7507833 -0.229957E-08  0.480E-04    1.67      21.2  T
     SCC iter.                  ...        0 min,  0.374 sec
     gradient                   ...        0 min,  0.042 sec
 * total energy  :  -151.2778550 Eh     change       -0.4068056E-03 Eh
   gradient norm :     0.0182354 Eh/α   predicted    -0.6957638E-03 (  71.03%)
   displ. norm   :     0.2270101 α      lambda       -0.9871633E-03
   maximum displ.:     0.0949951 α      in ANC's #7, #9, #8, ...

........................................................................
.............................. CYCLE   34 ..............................
........................................................................

 iter      E             dE          RMSdq      gap      omega  full diag
   1   -153.7620066 -0.153762E+03  0.502E-02    1.67       0.0  T
   2   -153.7620156 -0.900013E-05  0.305E-02    1.67       1.0  T
   3   -153.7620138  0.175814E-05  0.144E-02    1.67       1.0  T
   4   -153.7620169 -0.304029E-05  0.685E-03    1.67       1.5  T
   5   -153.7620165  0.409568E-06  0.452E-03    1.67       2.3  T
   6   -153.7620171 -0.620157E-06  0.181E-03    1.67       5.6  T
   7   -153.7620172 -0.909074E-07  0.967E-04    1.67      10.6  T
   8   -153.7620172 -0.660611E-07  0.456E-04    1.67      22.4  T
     SCC iter.                  ...        0 min,  0.362 sec
     gradient                   ...        0 min,  0.025 sec
 * total energy  :  -151.2782933 Eh     change       -0.4382746E-03 Eh
   gradient norm :     0.0142874 Eh/α   predicted    -0.5190206E-03 (  18.42%)
   displ. norm   :     0.3796824 α      lambda       -0.1219342E-02
   maximum displ.:     0.1766718 α      in ANC's #7, #8, #18, ...

........................................................................
.............................. CYCLE   35 ..............................
........................................................................

 iter      E             dE          RMSdq      gap      omega  full diag
   1   -153.7547535 -0.153755E+03  0.101E-01    1.68       0.0  T
   2   -153.7547815 -0.279966E-04  0.698E-02    1.68       1.0  T
   3   -153.7547744  0.702472E-05  0.277E-02    1.68       1.0  T
   4   -153.7547821 -0.768766E-05  0.119E-02    1.68       1.0  T
   5   -153.7547860 -0.381995E-05  0.852E-03    1.68       1.2  T
   6   -153.7547867 -0.747821E-06  0.330E-03    1.68       3.1  T
   7   -153.7547876 -0.943000E-06  0.141E-03    1.68       7.2  T
   8   -153.7547877 -0.734043E-07  0.673E-04    1.68      15.2  T
   9   -153.7547877 -0.182126E-08  0.374E-04    1.68      27.3  T
     SCC iter.                  ...        0 min,  0.475 sec
     gradient                   ...        0 min,  0.037 sec
 * total energy  :  -151.2786059 Eh     change       -0.3126164E-03 Eh
   gradient norm :     0.0182556 Eh/α   predicted    -0.6975602E-03 ( 123.14%)
   displ. norm   :     0.2342815 α      lambda       -0.8793692E-03
   maximum displ.:     0.0977315 α      in ANC's #9, #18, #6, ...

........................................................................
.............................. CYCLE   36 ..............................
........................................................................

 iter      E             dE          RMSdq      gap      omega  full diag
   1   -153.7578724 -0.153758E+03  0.595E-02    1.68       0.0  T
   2   -153.7578783 -0.593952E-05  0.439E-02    1.68       1.0  T
   3   -153.7578741  0.427995E-05  0.158E-02    1.68       1.0  T
   4   -153.7578783 -0.425586E-05  0.907E-03    1.68       1.1  T
   5   -153.7578791 -0.804562E-06  0.621E-03    1.68       1.6  T
   6   -153.7578801 -0.933030E-06  0.176E-03    1.68       5.8  T
   7   -153.7578803 -0.256916E-06  0.811E-04    1.68      12.6  T
   8   -153.7578803 -0.279821E-07  0.411E-04    1.68      24.8  T
     SCC iter.                  ...        0 min,  0.577 sec
     gradient                   ...        0 min,  0.029 sec
 * total energy  :  -151.2791550 Eh     change       -0.5491068E-03 Eh
   gradient norm :     0.0119242 Eh/α   predicted    -0.4638186E-03 ( -15.53%)
   displ. norm   :     0.3993328 α      lambda       -0.7925347E-03
   maximum displ.:     0.1707698 α      in ANC's #6, #9, #7, ...

........................................................................
.............................. CYCLE   37 ..............................
........................................................................

 iter      E             dE          RMSdq      gap      omega  full diag
   1   -153.7576983 -0.153758E+03  0.649E-02    1.68       0.0  T
   2   -153.7577046 -0.626207E-05  0.416E-02    1.68       1.0  T
   3   -153.7577016  0.303710E-05  0.102E-02    1.68       1.0  T
   4   -153.7577033 -0.169741E-05  0.703E-03    1.68       1.5  T
   5   -153.7577058 -0.251555E-05  0.461E-03    1.68       2.2  T
   6   -153.7577061 -0.311814E-06  0.214E-03    1.68       4.8  T
   7   -153.7577062 -0.136436E-06  0.877E-04    1.68      11.6  T
   8   -153.7577062 -0.560880E-08  0.378E-04    1.68      27.0  T
     SCC iter.                  ...        0 min,  0.459 sec
     gradient                   ...        0 min,  0.027 sec
 * total energy  :  -151.2795827 Eh     change       -0.4276984E-03 Eh
   gradient norm :     0.0115584 Eh/α   predicted    -0.4594601E-03 (   7.43%)
   displ. norm   :     0.4666684 α      lambda       -0.6786411E-03
   maximum displ.:     0.2050866 α      in ANC's #6, #9, #18, ...

........................................................................
.............................. CYCLE   38 ..............................
........................................................................

 iter      E             dE          RMSdq      gap      omega  full diag
   1   -153.7590897 -0.153759E+03  0.586E-02    1.68       0.0  T
   2   -153.7590930 -0.329230E-05  0.347E-02    1.68       1.0  T
   3   -153.7590891  0.394137E-05  0.109E-02    1.68       1.0  T
   4   -153.7590937 -0.462311E-05  0.592E-03    1.68       1.7  T
   5   -153.7590937 -0.219367E-07  0.444E-03    1.68       2.3  T
   6   -153.7590939 -0.146300E-06  0.196E-03    1.68       5.2  T
   7   -153.7590942 -0.293912E-06  0.732E-04    1.68      13.9  T
   8   -153.7590942 -0.508408E-08  0.319E-04    1.68      32.0  T
     SCC iter.                  ...        0 min,  0.433 sec
     gradient                   ...        0 min,  0.028 sec
 * total energy  :  -151.2800567 Eh     change       -0.4740171E-03 Eh
   gradient norm :     0.0133028 Eh/α   predicted    -0.4132212E-03 ( -12.83%)
   displ. norm   :     0.6260941 α      lambda       -0.1096087E-02
   maximum displ.:     0.2686763 α      in ANC's #6, #7, #9, ...

........................................................................
.............................. CYCLE   39 ..............................
........................................................................

 iter      E             dE          RMSdq      gap      omega  full diag
   1   -153.7564085 -0.153756E+03  0.844E-02    1.67       0.0  T
   2   -153.7564198 -0.113493E-04  0.490E-02    1.67       1.0  T
   3   -153.7564120  0.782111E-05  0.187E-02    1.67       1.0  T
   4   -153.7564221 -0.101332E-04  0.885E-03    1.67       1.2  T
   5   -153.7564223 -0.192549E-06  0.662E-03    1.67       1.5  T
   6   -153.7564224 -0.187259E-07  0.292E-03    1.67       3.5  T
   7   -153.7564232 -0.814916E-06  0.112E-03    1.67       9.1  T
   8   -153.7564232 -0.180167E-07  0.491E-04    1.67      20.8  T
   9   -153.7564232 -0.451757E-08  0.234E-04    1.67      43.5  T
     SCC iter.                  ...        0 min,  0.387 sec
     gradient                   ...        0 min,  0.026 sec
 * total energy  :  -151.2805524 Eh     change       -0.4957099E-03 Eh
   gradient norm :     0.0149337 Eh/α   predicted    -0.7628743E-03 (  53.90%)
   displ. norm   :     0.4203337 α      lambda       -0.7480415E-03
   maximum displ.:     0.1967741 α      in ANC's #6, #9, #18, ...

........................................................................
.............................. CYCLE   40 ..............................
........................................................................

 iter      E             dE          RMSdq      gap      omega  full diag
   1   -153.7553652 -0.153755E+03  0.618E-02    1.67       0.0  T
   2   -153.7553709 -0.574152E-05  0.370E-02    1.67       1.0  T
   3   -153.7553697  0.121027E-05  0.130E-02    1.67       1.0  T
   4   -153.7553717 -0.197891E-05  0.669E-03    1.67       1.5  T
   5   -153.7553712  0.472890E-06  0.510E-03    1.67       2.0  T
   6   -153.7553719 -0.712514E-06  0.119E-03    1.67       8.6  T
   7   -153.7553720 -0.445972E-07  0.680E-04    1.67      15.0  T
   8   -153.7553720 -0.568713E-08  0.317E-04    1.67      32.2  T
     SCC iter.                  ...        0 min,  0.700 sec
     gradient                   ...        0 min,  0.044 sec
 * total energy  :  -151.2809831 Eh     change       -0.4306245E-03 Eh
   gradient norm :     0.0117641 Eh/α   predicted    -0.4401037E-03 (   2.20%)
   displ. norm   :     0.3500967 α      lambda       -0.5374674E-03
   maximum displ.:     0.1699213 α      in ANC's #6, #9, #14, ...

........................................................................
.............................. CYCLE   41 ..............................
........................................................................

 iter      E             dE          RMSdq      gap      omega  full diag
   1   -153.7603137 -0.153760E+03  0.531E-02    1.67       0.0  T
   2   -153.7603158 -0.213290E-05  0.327E-02    1.67       1.0  T
   3   -153.7603085  0.731753E-05  0.107E-02    1.67       1.0  T
   4   -153.7603170 -0.856766E-05  0.523E-03    1.67       2.0  T
   5   -153.7603168  0.208971E-06  0.291E-03    1.67       3.5  T
   6   -153.7603171 -0.303463E-06  0.116E-03    1.67       8.8  T
   7   -153.7603172 -0.964170E-07  0.584E-04    1.67      17.5  T
   8   -153.7603172 -0.781660E-08  0.306E-04    1.67      33.4  T
     SCC iter.                  ...        0 min,  0.451 sec
     gradient                   ...        0 min,  0.029 sec
 * total energy  :  -151.2812464 Eh     change       -0.2633749E-03 Eh
   gradient norm :     0.0112166 Eh/α   predicted    -0.3016726E-03 (  14.54%)
   displ. norm   :     0.4735124 α      lambda       -0.4594936E-03
   maximum displ.:     0.2214217 α      in ANC's #6, #18, #7, ...

........................................................................
.............................. CYCLE   42 ..............................
........................................................................

 iter      E             dE          RMSdq      gap      omega  full diag
   1   -153.7574039 -0.153757E+03  0.597E-02    1.67       0.0  T
   2   -153.7574069 -0.301756E-05  0.358E-02    1.67       1.0  T
   3   -153.7574013  0.561333E-05  0.932E-03    1.67       1.1  T
   4   -153.7574074 -0.608455E-05  0.384E-03    1.67       2.7  T
   5   -153.7574081 -0.731982E-06  0.228E-03    1.67       4.5  T
   6   -153.7574081  0.380519E-07  0.115E-03    1.67       8.9  T
   7   -153.7574082 -0.100282E-06  0.514E-04    1.67      19.8  T
   8   -153.7574082 -0.319284E-08  0.290E-04    1.67      35.2  T
     SCC iter.                  ...        0 min,  0.569 sec
     gradient                   ...        0 min,  0.051 sec
 * total energy  :  -151.2814742 Eh     change       -0.2278023E-03 Eh
   gradient norm :     0.0107863 Eh/α   predicted    -0.2812617E-03 (  23.47%)
   displ. norm   :     0.2964276 α      lambda       -0.4122416E-03
   maximum displ.:     0.1530294 α      in ANC's #6, #5, #4, ...
 * RMSD in coord.:     0.9857972 α      energy gain  -0.6126696E-01 Eh

generating ANC from model Hessian ...
Using Lindh-Hessian (1995)
 Shifting diagonal of input Hessian by    9.9705677532546892E-003
 Lowest  eigenvalues of input Hessian
    0.000000    0.000000    0.000000    0.000000    0.000000    0.000000
    0.010000    0.010026    0.010051    0.010115    0.010246    0.010443
    0.010720    0.010826    0.010900    0.010947    0.011073    0.011331
 Highest eigenvalues
    2.134243    2.149400    2.161263    2.174731    2.296211    2.530422


........................................................................
.............................. CYCLE   43 ..............................
........................................................................

 iter      E             dE          RMSdq      gap      omega  full diag
   1   -153.7612119 -0.153761E+03  0.497E-02    1.68       0.0  T
   2   -153.7612148 -0.291305E-05  0.305E-02    1.67       1.0  T
   3   -153.7612117  0.310553E-05  0.983E-03    1.68       1.0  T
   4   -153.7612154 -0.373625E-05  0.514E-03    1.67       2.0  T
   5   -153.7612155 -0.842888E-07  0.385E-03    1.68       2.7  T
   6   -153.7612156 -0.831758E-07  0.144E-03    1.67       7.1  T
   7   -153.7612158 -0.157005E-06  0.617E-04    1.68      16.5  T
   8   -153.7612158 -0.607022E-08  0.321E-04    1.67      31.8  T
     SCC iter.                  ...        0 min,  0.361 sec
     gradient                   ...        0 min,  0.027 sec
 * total energy  :  -151.2816120 Eh     change       -0.1378197E-03 Eh
   gradient norm :     0.0098855 Eh/α   predicted     0.0000000E+00 (-100.00%)
   displ. norm   :     0.0863166 α      lambda       -0.2789267E-03
   maximum displ.:     0.0296821 α      in ANC's #5, #32, #11, ...

........................................................................
.............................. CYCLE   44 ..............................
........................................................................

 iter      E             dE          RMSdq      gap      omega  full diag
   1   -153.7614351 -0.153761E+03  0.255E-02    1.67       0.0  T
   2   -153.7614364 -0.128319E-05  0.163E-02    1.68       1.0  T
   3   -153.7614359  0.487298E-06  0.672E-03    1.68       1.5  T
   4   -153.7614366 -0.680761E-06  0.388E-03    1.68       2.6  T
   5   -153.7614365  0.882420E-07  0.296E-03    1.68       3.4  T
   6   -153.7614366 -0.158628E-06  0.728E-04    1.68      14.0  T
   7   -153.7614367 -0.403363E-07  0.379E-04    1.68      26.9  T
     SCC iter.                  ...        0 min,  0.347 sec
     gradient                   ...        0 min,  0.027 sec
 * total energy  :  -151.2818053 Eh     change       -0.1932605E-03 Eh
   gradient norm :     0.0032269 Eh/α   predicted    -0.1405061E-03 ( -27.30%)
   displ. norm   :     0.1394271 α      lambda       -0.1554788E-03
   maximum displ.:     0.0564647 α      in ANC's #5, #11, #19, ...

........................................................................
.............................. CYCLE   45 ..............................
........................................................................

 iter      E             dE          RMSdq      gap      omega  full diag
   1   -153.7616589 -0.153762E+03  0.213E-02    1.68       0.0  T
   2   -153.7616596 -0.738621E-06  0.132E-02    1.68       1.0  T
   3   -153.7616588  0.804642E-06  0.444E-03    1.68       2.3  T
   4   -153.7616596 -0.767368E-06  0.224E-03    1.68       4.6  T
   5   -153.7616599 -0.266128E-06  0.140E-03    1.68       7.3  T
   6   -153.7616599  0.331985E-08  0.622E-04    1.68      16.4  T
   7   -153.7616599 -0.288219E-07  0.256E-04    1.68      39.9  T
     SCC iter.                  ...        0 min,  0.342 sec
     gradient                   ...        0 min,  0.026 sec
 * total energy  :  -151.2819161 Eh     change       -0.1108107E-03 Eh
   gradient norm :     0.0030391 Eh/α   predicted    -0.7926627E-04 ( -28.47%)
   displ. norm   :     0.1964840 α      lambda       -0.1328014E-03
   maximum displ.:     0.0837364 α      in ANC's #5, #11, #19, ...

........................................................................
.............................. CYCLE   46 ..............................
........................................................................

 iter      E             dE          RMSdq      gap      omega  full diag
   1   -153.7615464 -0.153762E+03  0.276E-02    1.68       0.0  T
   2   -153.7615471 -0.711811E-06  0.165E-02    1.68       1.0  T
   3   -153.7615457  0.140060E-05  0.434E-03    1.68       2.3  T
   4   -153.7615471 -0.142818E-05  0.175E-03    1.68       5.8  T
   5   -153.7615474 -0.257385E-06  0.991E-04    1.68      10.3  T
   6   -153.7615474 -0.605644E-08  0.572E-04    1.68      17.9  T
     SCC iter.                  ...        0 min,  0.251 sec
     gradient                   ...        0 min,  0.028 sec
 * total energy  :  -151.2820208 Eh     change       -0.1047011E-03 Eh
   gradient norm :     0.0051722 Eh/α   predicted    -0.6902579E-04 ( -34.07%)
   displ. norm   :     0.3111906 α      lambda       -0.1823640E-03
   maximum displ.:     0.1367511 α      in ANC's #5, #6, #11, ...

........................................................................
.............................. CYCLE   47 ..............................
........................................................................

 iter      E             dE          RMSdq      gap      omega  full diag
   1   -153.7607531 -0.153761E+03  0.449E-02    1.68       0.0  T
   2   -153.7607543 -0.121541E-05  0.266E-02    1.68       1.0  T
   3   -153.7607513  0.297892E-05  0.580E-03    1.68       1.8  T
   4   -153.7607545 -0.320991E-05  0.198E-03    1.68       5.2  T
   5   -153.7607548 -0.313030E-06  0.107E-03    1.68       9.5  T
   6   -153.7607549 -0.153592E-07  0.614E-04    1.68      16.6  T
   7   -153.7607549 -0.196580E-07  0.307E-04    1.68      33.3  T
     SCC iter.                  ...        0 min,  0.378 sec
     gradient                   ...        0 min,  0.034 sec
 * total energy  :  -151.2821630 Eh     change       -0.1421671E-03 Eh
   gradient norm :     0.0053452 Eh/α   predicted    -0.1001054E-03 ( -29.59%)
   displ. norm   :     0.3566996 α      lambda       -0.1879672E-03
   maximum displ.:     0.1641937 α      in ANC's #5, #6, #11, ...

........................................................................
.............................. CYCLE   48 ..............................
........................................................................

 iter      E             dE          RMSdq      gap      omega  full diag
   1   -153.7597804 -0.153760E+03  0.526E-02    1.68       0.0  T
   2   -153.7597816 -0.119613E-05  0.311E-02    1.68       1.0  T
   3   -153.7597788  0.280990E-05  0.563E-03    1.68       1.8  T
   4   -153.7597821 -0.325970E-05  0.195E-03    1.68       5.2  T
   5   -153.7597822 -0.108475E-06  0.121E-03    1.68       8.5  T
   6   -153.7597822 -0.153355E-08  0.707E-04    1.68      14.4  T
   7   -153.7597822 -0.343387E-07  0.361E-04    1.68      28.3  T
     SCC iter.                  ...        0 min,  0.335 sec
     gradient                   ...        0 min,  0.039 sec
 * total energy  :  -151.2823108 Eh     change       -0.1477940E-03 Eh
   gradient norm :     0.0040051 Eh/α   predicted    -0.1059421E-03 ( -28.32%)
   displ. norm   :     0.3782248 α      lambda       -0.1905720E-03
   maximum displ.:     0.1812326 α      in ANC's #5, #6, #11, ...

........................................................................
.............................. CYCLE   49 ..............................
........................................................................

 iter      E             dE          RMSdq      gap      omega  full diag
   1   -153.7593281 -0.153759E+03  0.558E-02    1.68       0.0  T
   2   -153.7593292 -0.112935E-05  0.330E-02    1.68       1.0  T
   3   -153.7593270  0.222564E-05  0.493E-03    1.68       2.1  T
   4   -153.7593297 -0.267087E-05  0.196E-03    1.68       5.2  T
   5   -153.7593297 -0.783041E-07  0.121E-03    1.68       8.4  T
   6   -153.7593297 -0.106887E-07  0.676E-04    1.68      15.1  T
   7   -153.7593298 -0.106909E-07  0.412E-04    1.68      24.8  T
     SCC iter.                  ...        0 min,  0.328 sec
     gradient                   ...        0 min,  0.028 sec
 * total energy  :  -151.2824634 Eh     change       -0.1525720E-03 Eh
   gradient norm :     0.0036112 Eh/α   predicted    -0.1089176E-03 ( -28.61%)
   displ. norm   :     0.4147427 α      lambda       -0.1943066E-03
   maximum displ.:     0.2030577 α      in ANC's #5, #6, #24, ...

........................................................................
.............................. CYCLE   50 ..............................
........................................................................

 iter      E             dE          RMSdq      gap      omega  full diag
   1   -153.7591121 -0.153759E+03  0.602E-02    1.68       0.0  T
   2   -153.7591134 -0.122750E-05  0.355E-02    1.68       1.0  T
   3   -153.7591113  0.201791E-05  0.474E-03    1.68       2.2  T
   4   -153.7591138 -0.241485E-05  0.194E-03    1.68       5.3  T
   5   -153.7591139 -0.138659E-06  0.120E-03    1.68       8.5  T
   6   -153.7591139 -0.649405E-08  0.651E-04    1.68      15.7  T
   7   -153.7591139 -0.567880E-08  0.409E-04    1.68      24.9  T
     SCC iter.                  ...        0 min,  1.097 sec
     gradient                   ...        0 min,  0.052 sec
 * total energy  :  -151.2826190 Eh     change       -0.1556642E-03 Eh
   gradient norm :     0.0044259 Eh/α   predicted    -0.1138804E-03 ( -26.84%)
   displ. norm   :     0.4245963 α      lambda       -0.1788239E-03
   maximum displ.:     0.2121255 α      in ANC's #5, #6, #4, ...

........................................................................
.............................. CYCLE   51 ..............................
........................................................................

 iter      E             dE          RMSdq      gap      omega  full diag
[...]
    62   1 H        0.926     0.060     2.203     2.321
    63   1 H        0.926     0.070     2.090     2.261
    64   1 H        0.926     0.041     2.430     2.438
    65   1 H        0.926     0.037     2.489     2.467
    66   1 H        0.926     0.036     2.498     2.472
    67   1 H        0.926     0.059     2.214     2.327
    68   1 H        0.926     0.048     2.343     2.394
    69   1 H        0.926     0.041     2.439     2.442
    70   1 H        0.925     0.043     2.413     2.429
    71   1 H        0.925     0.039     2.460     2.453
    72   1 H        0.923     0.006     2.950     2.686
    73   1 H        0.923     0.005     2.978     2.699
    74   1 H        0.923     0.028     2.609     2.526
    75   1 H        0.922     0.026     2.638     2.540
    76   1 H        0.925     0.031     2.571     2.508
    77   1 H        0.925     0.039     2.463     2.454
    78   1 H        0.925     0.037     2.482     2.464
    79   1 H        0.925     0.037     2.492     2.468
    80   1 H        0.925     0.033     2.546     2.495
    81   1 H        0.925     0.037     2.488     2.467
    82   1 H        0.925     0.033     2.549     2.497
    83   1 H        0.925     0.040     2.453     2.449
    84   1 H        0.925     0.038     2.475     2.460
    85   1 H        0.926     0.053     2.278     2.360
    86   1 H        0.926     0.037     2.487     2.466
    87   1 H        0.926     0.034     2.531     2.488
    88   1 H        0.926     0.036     2.501     2.473
    89   1 H        0.926     0.030     2.584     2.514
    90   1 H        0.926     0.033     2.543     2.494
    91   1 H        0.926     0.036     2.507     2.476
    92   1 H        0.926     0.033     2.544     2.494
    93   1 H        0.926     0.030     2.581     2.512
    94   1 H        0.925     0.037     2.495     2.470
    95   1 H        0.926     0.048     2.340     2.392
    96   1 H        0.926     0.055     2.258     2.350

 Mol. C6AA /au·bohr⁶  :     136105.817647
 Mol. C8AA /au·bohr⁸  :    3643691.336588
 Mol. α(0) /au        :        591.625641


Wiberg/Mayer (AO) data.
largest (>0.10) Wiberg bond orders for each atom

 ---------------------------------------------------------------------------
     #   Z sym  total        # sym  WBO       # sym  WBO       # sym  WBO
 ---------------------------------------------------------------------------
     1   6 C    3.983 --     2 C    1.517     6 C    1.308    94 H    0.966
                             4 C    0.106
     2   6 C    3.980 --     1 C    1.517     3 C    1.331    95 H    0.968
     3   6 C    3.928 --     4 C    1.483     2 C    1.331    26 Br   0.971
     4   6 C    3.989 --     3 C    1.483     5 C    1.312    96 H    0.961
                             1 C    0.106
     5   6 C    3.987 --     4 C    1.312     6 C    1.272     7 C    1.176
     6   6 C    3.987 --     1 C    1.308     5 C    1.272    36 C    1.218
     7   6 C    3.976 --     8 C    1.297     9 C    1.256     5 C    1.176
     8   6 C    3.984 --     7 C    1.297    12 C    1.279    35 C    1.218
     9   6 C    3.974 --    10 C    1.287     7 C    1.256    13 C    1.177
    10   6 C    3.948 --    11 C    1.298     9 C    1.287    37 N    1.146
    11   6 C    3.978 --    12 C    1.540    10 C    1.298    90 H    0.964
    12   6 C    3.961 --    11 C    1.540     8 C    1.279    91 H    0.968
    13   6 C    3.974 --    14 C    1.288    15 C    1.256     9 C    1.177
    14   6 C    3.947 --    18 C    1.299    13 C    1.288    37 N    1.143
    15   6 C    3.978 --    16 C    1.298    13 C    1.256    19 C    1.176
    16   6 C    3.984 --    15 C    1.298    17 C    1.281    22 C    1.218
    17   6 C    3.960 --    18 C    1.538    16 C    1.281    88 H    0.968
    18   6 C    3.978 --    17 C    1.538    14 C    1.299    89 H    0.964
    19   6 C    3.987 --    33 C    1.330    20 C    1.268    15 C    1.176
    20   6 C    3.982 --    24 C    1.302    19 C    1.268    21 C    1.222
    21   6 C    3.978 --    22 C    1.627    20 C    1.222    86 H    0.967
    22   6 C    3.978 --    21 C    1.627    16 C    1.218    87 H    0.967
    23   6 C    3.978 --    33 C    1.444    34 C    1.306    25 C    1.043
    24   6 C    3.982 --    34 C    1.535    20 C    1.302    69 H    0.967
                            33 C    0.102
    25   6 C    3.965 --    27 N    1.384    31 N    1.383    23 C    1.043
    26  35 Br   1.093 --     3 C    0.971
    27   7 N    2.910 --    25 C    1.384    28 N    1.156    31 N    0.126
    28   7 N    3.625 --    27 N    1.156    29 C    1.089    46 C    1.052
                            32 O    0.121
    29   6 C    3.959 --    32 O    1.636    30 N    1.095    28 N    1.089
    30   7 N    3.618 --    31 N    1.156    29 C    1.095    52 C    1.038
                            32 O    0.125
    31   7 N    2.905 --    25 C    1.383    30 N    1.156    27 N    0.126
    32   8 O    2.001 --    29 C    1.636    30 N    0.125    28 N    0.121
    33   6 C    3.983 --    23 C    1.444    19 C    1.330    85 H    0.956
                            24 C    0.102
    34   6 C    3.977 --    24 C    1.535    23 C    1.306    68 H    0.967
    35   6 C    3.981 --    36 C    1.628     8 C    1.218    92 H    0.967
    36   6 C    3.978 --    35 C    1.628     6 C    1.218    93 H    0.967
    37   7 N    3.551 --    10 C    1.146    14 C    1.143    45 C    1.006
    38  14 Si   3.618 --    44 C    0.903    43 C    0.901    42 C    0.896
                            39 C    0.843
    39   6 C    3.967 --    40 C    1.024    71 H    0.983    70 H    0.981
                            38 Si   0.843
    40   6 C    3.943 --    39 C    1.024    72 H    0.972    73 H    0.971
                            41 O    0.963
    41   8 O    2.068 --    45 C    0.982    40 C    0.963
    42   6 C    3.980 --    80 H    0.991    81 H    0.987    79 H    0.987
                            38 Si   0.896
    43   6 C    3.981 --    76 H    0.987    77 H    0.987    78 H    0.986
                            38 Si   0.901
    44   6 C    3.981 --    84 H    0.987    82 H    0.987    83 H    0.985
                            38 Si   0.903
    45   6 C    3.956 --    37 N    1.006    41 O    0.982    74 H    0.955
                            75 H    0.953
    46   6 C    3.952 --    51 C    1.365    47 C    1.352    28 N    1.052
    47   6 C    3.984 --    48 C    1.465    46 C    1.352    67 H    0.961
                            50 C    0.105
    48   6 C    3.991 --    47 C    1.465    49 C    1.422    66 H    0.970
                            51 C    0.103
    49   6 C    3.972 --    50 C    1.431    48 C    1.422    65 H    0.971
    50   6 C    3.990 --    51 C    1.453    49 C    1.431    64 H    0.970
                            47 C    0.105
    51   6 C    3.982 --    50 C    1.453    46 C    1.365    63 H    0.961
                            48 C    0.103
    52   6 C    3.952 --    53 C    1.372    57 C    1.363    30 N    1.038
    53   6 C    3.984 --    54 C    1.452    52 C    1.372    62 H    0.965
                            56 C    0.105
    54   6 C    3.990 --    53 C    1.452    55 C    1.433    61 H    0.970
                            57 C    0.106
    55   6 C    3.975 --    54 C    1.433    56 C    1.426    60 H    0.971
    56   6 C    3.991 --    57 C    1.461    55 C    1.426    59 H    0.970
                            53 C    0.105
    57   6 C    3.984 --    56 C    1.461    52 C    1.363    58 H    0.963
                            54 C    0.106
    58   1 H    0.996 --    57 C    0.963
    59   1 H    0.998 --    56 C    0.970
    60   1 H    0.998 --    55 C    0.971
    61   1 H    0.998 --    54 C    0.970
    62   1 H    0.996 --    53 C    0.965
    63   1 H    0.995 --    51 C    0.961
    64   1 H    0.998 --    50 C    0.970
    65   1 H    0.998 --    49 C    0.971
    66   1 H    0.998 --    48 C    0.970
    67   1 H    0.997 --    47 C    0.961
    68   1 H    0.997 --    34 C    0.967
    69   1 H    0.997 --    24 C    0.967
    70   1 H    0.998 --    39 C    0.981
    71   1 H    0.998 --    39 C    0.983
    72   1 H    1.000 --    40 C    0.972
    73   1 H    1.000 --    40 C    0.971
    74   1 H    0.998 --    45 C    0.955
    75   1 H    0.998 --    45 C    0.953
    76   1 H    0.999 --    43 C    0.987
    77   1 H    0.998 --    43 C    0.987
    78   1 H    0.999 --    43 C    0.986
    79   1 H    0.999 --    42 C    0.987
    80   1 H    0.999 --    42 C    0.991
    81   1 H    0.999 --    42 C    0.987
    82   1 H    0.999 --    44 C    0.987
    83   1 H    0.998 --    44 C    0.985
    84   1 H    0.999 --    44 C    0.987
    85   1 H    0.997 --    33 C    0.956
    86   1 H    0.997 --    21 C    0.967
    87   1 H    0.998 --    22 C    0.967
    88   1 H    0.998 --    17 C    0.968
    89   1 H    0.998 --    18 C    0.964
    90   1 H    0.997 --    11 C    0.964
    91   1 H    0.998 --    12 C    0.968
    92   1 H    0.998 --    35 C    0.967
    93   1 H    0.998 --    36 C    0.967
    94   1 H    0.998 --     1 C    0.966
    95   1 H    0.997 --     2 C    0.968
    96   1 H    0.997 --     4 C    0.961
 ---------------------------------------------------------------------------

Topologies differ in bond orders
Writing corrected topology to xtbtopo.mol

molecular dipole:
                 x           y           z       tot (Debye)
 q only:       -2.093       0.396       0.352
   full:       -2.579      -0.355       0.308       6.662
molecular quadrupole (traceless):
                xx          xy          yy          xz          yz          zz
 q only:       24.626     -23.155     -14.908     -15.409       5.819      -9.719
  q+dip:       33.290     -34.168     -12.921     -15.108       3.124     -20.369
   full:       27.159     -32.390     -19.549      -9.067       7.578      -7.610

           -------------------------------------------------
          |                Geometry Summary                 |
           -------------------------------------------------

      molecular mass/u    :      825.8463648
   center of mass at/Å    :        0.1637581       1.0296055      -1.4627583
  moments of inertia/u·Å² :        0.7418809E+04   0.1988868E+05   0.2418091E+05
rotational constants/cm⁻¹ :        0.2272283E-02   0.8475995E-03   0.6971463E-03

 * 103 selected distances

     #   Z          #   Z                                           value/Å
     1   6 C        2   6 C                                       1.3700341
     2   6 C        3   6 C                                       1.3951114
     3   6 C        4   6 C                                       1.3700527
     4   6 C        5   6 C                                       1.4041027
     1   6 C        6   6 C                                       1.4053832
     5   6 C        6   6 C                                       1.4162862
     7   6 C        8   6 C                                       1.4152247
     7   6 C        9   6 C                                       1.4204733
     9   6 C       10   6 C                                       1.4138766
    10   6 C       11   6 C                                       1.3961027
     8   6 C       12   6 C                                       1.4103215
    11   6 C       12   6 C                                       1.3672555
     9   6 C       13   6 C                                       1.4446174
    13   6 C       14   6 C                                       1.4130816
    13   6 C       15   6 C                                       1.4193901
    15   6 C       16   6 C                                       1.4139787
    16   6 C       17   6 C                                       1.4103478
    14   6 C       18   6 C                                       1.3962641
    17   6 C       18   6 C                                       1.3680323
    15   6 C       19   6 C                                       1.4356238
    19   6 C       20   6 C                                       1.4156151
    20   6 C       21   6 C                                       1.4199652
    16   6 C       22   6 C                                       1.4231928
    21   6 C       22   6 C                                       1.3552013
    20   6 C       24   6 C                                       1.4067496
     3   6 C       26  35 Br                                      1.9034025
    25   6 C       27   7 N                                       1.3188418
    27   7 N       28   7 N                                       1.3514255
    28   7 N       29   6 C                                       1.3913384
    29   6 C       30   7 N                                       1.3891516
    25   6 C       31   7 N                                       1.3186889
    30   7 N       31   7 N                                       1.3510617
    29   6 C       32   8 O                                       1.2102557
    19   6 C       33   6 C                                       1.3982296
    23   6 C       33   6 C                                       1.3791145
    23   6 C       34   6 C                                       1.4035444
    24   6 C       34   6 C                                       1.3693758
     8   6 C       35   6 C                                       1.4224982
     6   6 C       36   6 C                                       1.4209057
    35   6 C       36   6 C                                       1.3540405
    10   6 C       37   7 N                                       1.3727307
    14   6 C       37   7 N                                       1.3734928
    38  14 Si      39   6 C                                       1.9159397 (max)
    39   6 C       40   6 C                                       1.5157086
    40   6 C       41   8 O                                       1.4135258
    38  14 Si      42   6 C                                       1.9058681
    38  14 Si      43   6 C                                       1.9094711
    38  14 Si      44   6 C                                       1.9091365
    37   7 N       45   6 C                                       1.4241741
    41   8 O       45   6 C                                       1.4029474
    28   7 N       46   6 C                                       1.4060447
    46   6 C       47   6 C                                       1.3968165
    47   6 C       48   6 C                                       1.3787727
    48   6 C       49   6 C                                       1.3859367
    49   6 C       50   6 C                                       1.3846322
    46   6 C       51   6 C                                       1.3936234
    50   6 C       51   6 C                                       1.3826523
    30   7 N       52   6 C                                       1.4078580
    52   6 C       53   6 C                                       1.3917305
    53   6 C       54   6 C                                       1.3825480
    54   6 C       55   6 C                                       1.3850238
    55   6 C       56   6 C                                       1.3860931
    52   6 C       57   6 C                                       1.3942657
    56   6 C       57   6 C                                       1.3799831
    57   6 C       58   1 H                                       1.0784839
    56   6 C       59   1 H                                       1.0797498
    55   6 C       60   1 H                                       1.0795157
    54   6 C       61   1 H                                       1.0796266
    53   6 C       62   1 H                                       1.0770050
    51   6 C       63   1 H                                       1.0760237
    50   6 C       64   1 H                                       1.0797417
    49   6 C       65   1 H                                       1.0796531
    48   6 C       66   1 H                                       1.0798743
    47   6 C       67   1 H                                       1.0765241
    34   6 C       68   1 H                                       1.0784943
    24   6 C       69   1 H                                       1.0804781
    39   6 C       70   1 H                                       1.0896878
    39   6 C       71   1 H                                       1.0895513
    40   6 C       72   1 H                                       1.1005554
    40   6 C       73   1 H                                       1.1012167
    45   6 C       74   1 H                                       1.1033310
    45   6 C       75   1 H                                       1.1048374
    43   6 C       76   1 H                                       1.0861732
    43   6 C       77   1 H                                       1.0857811
    43   6 C       78   1 H                                       1.0860823
    42   6 C       79   1 H                                       1.0855741
    42   6 C       80   1 H                                       1.0852265
    42   6 C       81   1 H                                       1.0855142
    44   6 C       82   1 H                                       1.0861049
    44   6 C       83   1 H                                       1.0860757
    44   6 C       84   1 H                                       1.0857907
    33   6 C       85   1 H                                       1.0756226 (min)
    21   6 C       86   1 H                                       1.0798082
    22   6 C       87   1 H                                       1.0806238
    17   6 C       88   1 H                                       1.0799150
    18   6 C       89   1 H                                       1.0788345
    11   6 C       90   1 H                                       1.0785612
    12   6 C       91   1 H                                       1.0797804
    35   6 C       92   1 H                                       1.0804184
    36   6 C       93   1 H                                       1.0809852
     1   6 C       94   1 H                                       1.0812316
     2   6 C       95   1 H                                       1.0790114
     4   6 C       96   1 H                                       1.0773878

 * 7 distinct bonds (by element types)

   Z      Z             #   av. dist./Å        max./Å        min./Å
   1 H    6 C          39     1.0835603     1.1048374     1.0756226
   6 C    6 C          45     1.4002618     1.5157086     1.3540405
   6 C    7 N           9     1.3780357     1.4241741     1.3186889
   7 N    7 N           2     1.3512436     1.3514255     1.3510617
   6 C    8 O           3     1.3422430     1.4135258     1.2102557
   6 C   14 Si          4     1.9101039     1.9159397     1.9058681
   6 C   35 Br          1     1.9034025     1.9034025     1.9034025


optimized geometry written to: xtbopt.mol


           -------------------------------------------------
          | TOTAL ENERGY             -151.284626879764 Eh   |
          | GRADIENT NORM               0.000362061700 Eh/α |
          | HOMO-LUMO GAP               1.683143981617 eV   |
           -------------------------------------------------
Note: The following floating-point exceptions are signalling: IEEE_UNDERFLOW_FLAG
normal termination of xtb

------------------------------------------------------------------------
 * finished run on 2024/11/14 at 13:18:23.805     
------------------------------------------------------------------------
 total:
 * wall-time:     0 d,  0 h,  0 min, 44.765 sec
 *  cpu-time:     0 d,  0 h,  2 min, 29.079 sec
 * ratio c/w:     3.330 speedup
 SCF:
 * wall-time:     0 d,  0 h,  0 min,  1.023 sec
 *  cpu-time:     0 d,  0 h,  0 min,  2.503 sec
 * ratio c/w:     2.446 speedup
 ANC optimizer:
 * wall-time:     0 d,  0 h,  0 min, 43.708 sec
 *  cpu-time:     0 d,  0 h,  2 min, 26.541 sec
 * ratio c/w:     3.353 speedup

