192
 energy: -288.074959570633 gnorm: 15.287115168301 xtb: 6.6.1 (8d0f1dd)
C            3.49800000000000        0.02270000000000       -0.98980000000000
C            3.98020000000000        1.26850000000000       -1.29400000000000
C            3.10410000000000        2.35290000000000       -1.24020000000000
C            1.76820000000000        2.19370000000000       -0.98090000000000
C            1.23850000000000        0.90960000000000       -0.77610000000000
C            2.13980000000000       -0.17960000000000       -0.69110000000000
C           -0.16750000000000        0.68790000000000       -0.57740000000000
C           -0.55730000000000       -0.52630000000000        0.03630000000000
C           -1.19420000000000        1.61220000000000       -0.90790000000000
C           -2.45780000000000        1.44360000000000       -0.29640000000000
C           -2.79930000000000        0.29930000000000        0.42680000000000
C           -1.87070000000000       -0.70000000000000        0.51990000000000
C           -1.30000000000000        2.81410000000000       -1.70240000000000
C           -2.54480000000000        3.39260000000000       -1.36700000000000
C           -0.52890000000000        3.44600000000000       -2.71270000000000
C           -0.84920000000000        4.78310000000000       -3.04280000000000
C           -2.03350000000000        5.37620000000000       -2.55820000000000
C           -2.91730000000000        4.67060000000000       -1.78840000000000
C            0.52670000000000        2.80980000000000       -3.44900000000000
C            1.42880000000000        3.59230000000000       -4.20910000000000
C            1.17400000000000        4.98020000000000       -4.36760000000000
C            0.04210000000000        5.52940000000000       -3.86380000000000
C            1.77370000000000        0.82530000000000       -4.05450000000000
C            2.53540000000000        2.96720000000000       -4.81220000000000
C            1.97010000000000       -0.61060000000000       -3.86480000000000
Br           3.78800000000000        4.10390000000000       -1.53880000000000
N            0.92510000000000       -1.32000000000000       -3.48530000000000
N            1.13240000000000       -2.60880000000000       -3.13530000000000
C            2.40850000000000       -3.15990000000000       -3.07530000000000
N            3.38690000000000       -2.37440000000000       -3.67150000000000
N            3.18750000000000       -1.08840000000000       -4.03440000000000
O            2.66180000000000       -4.21540000000000       -2.54000000000000
C            0.67350000000000        1.41950000000000       -3.47270000000000
C            2.73610000000000        1.61730000000000       -4.69970000000000
C            0.38440000000000       -1.58500000000000        0.16200000000000
C            1.66530000000000       -1.44570000000000       -0.25430000000000
N           -3.25660000000000        2.52440000000000       -0.57580000000000
Si          -7.06170000000000        4.91450000000000        4.00440000000000
C           -5.47490000000000        4.22230000000000        3.18360000000000
C           -5.70380000000000        3.68540000000000        1.78480000000000
O           -4.45860000000000        3.30360000000000        1.23560000000000
C           -6.66580000000000        5.28280000000000        5.83200000000000
C           -8.46890000000000        3.62910000000000        3.88870000000000
C           -7.58900000000000        6.51950000000000        3.11510000000000
C           -4.56060000000000        2.75060000000000       -0.04970000000000
C           -0.02090000000000       -3.29340000000000       -2.71330000000000
C           -1.16970000000000       -2.54230000000000       -2.45430000000000
C           -2.32800000000000       -3.16360000000000       -2.03790000000000
C           -2.36710000000000       -4.54010000000000       -1.88150000000000
C           -1.23560000000000       -5.28830000000000       -2.15940000000000
C           -0.06640000000000       -4.67960000000000       -2.57660000000000
C            4.71560000000000       -2.82170000000000       -3.80030000000000
C            5.02320000000000       -4.16090000000000       -4.02150000000000
C            6.34510000000000       -4.53990000000000       -4.16400000000000
C            7.36110000000000       -3.60090000000000       -4.09880000000000
C            7.05040000000000       -2.26590000000000       -3.89260000000000
C            5.73590000000000       -1.87310000000000       -3.74420000000000
H            5.47410000000000       -0.83930000000000       -3.58350000000000
H            7.83700000000000       -1.52780000000000       -3.84290000000000
H            8.39020000000000       -3.90720000000000       -4.21100000000000
H            6.58050000000000       -5.57960000000000       -4.33470000000000
H            4.24160000000000       -4.89950000000000       -4.08150000000000
H            0.80080000000000       -5.28200000000000       -2.78380000000000
H           -1.25900000000000       -6.36260000000000       -2.05340000000000
H           -3.27270000000000       -5.02600000000000       -1.55080000000000
H           -3.20330000000000       -2.56630000000000       -1.82990000000000
H           -1.13360000000000       -1.47390000000000       -2.58150000000000
H            3.60480000000000        1.14030000000000       -5.12510000000000
H            3.23740000000000        3.58000000000000       -5.35920000000000
H           -4.71410000000000        4.99990000000000        3.12050000000000
H           -5.04620000000000        3.42280000000000        3.78690000000000
H           -6.37880000000000        2.81640000000000        1.80870000000000
H           -6.16630000000000        4.45150000000000        1.14300000000000
H           -5.10920000000000        3.43370000000000       -0.72030000000000
H           -5.11460000000000        1.79540000000000       -0.01370000000000
H           -8.75840000000000        3.44800000000000        2.85760000000000
H           -9.35380000000000        3.96580000000000        4.42010000000000
H           -8.17350000000000        2.67680000000000        4.31940000000000
H           -6.38860000000000        4.38140000000000        6.36970000000000
H           -7.52360000000000        5.71430000000000        6.33770000000000
H           -5.84340000000000        5.98520000000000        5.92590000000000
H           -7.88310000000000        6.33070000000000        2.08680000000000
H           -6.78070000000000        7.24460000000000        3.09700000000000
H           -8.43350000000000        6.98600000000000        3.61340000000000
H           -0.07800000000000        0.79180000000000       -3.02750000000000
H            1.87610000000000        5.57320000000000       -4.93440000000000
H           -0.19560000000000        6.56670000000000       -4.05180000000000
H           -2.25120000000000        6.39610000000000       -2.83840000000000
H           -3.85400000000000        5.10690000000000       -1.47860000000000
H           -3.77250000000000        0.20010000000000        0.88100000000000
H           -2.11810000000000       -1.63240000000000        1.00500000000000
H            0.04000000000000       -2.52310000000000        0.57270000000000
H            2.35880000000000       -2.27380000000000       -0.20940000000000
H            4.16990000000000       -0.82380000000000       -0.95950000000000
H            5.02120000000000        1.42390000000000       -1.53130000000000
H            1.12550000000000        3.05500000000000       -0.90400000000000
C            3.49800000000000        0.02270000000000        3.01020000000000
C            3.98020000000000        1.26850000000000        2.70600000000000
C            3.10410000000000        2.35290000000000        2.75980000000000
C            1.76820000000000        2.19370000000000        3.01910000000000
C            1.23850000000000        0.90960000000000        3.22390000000000
C            2.13980000000000       -0.17960000000000        3.30890000000000
C           -0.16750000000000        0.68790000000000        3.42260000000000
C           -0.55730000000000       -0.52630000000000        4.03630000000000
C           -1.19420000000000        1.61220000000000        3.09210000000000
C           -2.45780000000000        1.44360000000000        3.70360000000000
C           -2.79930000000000        0.29930000000000        4.42680000000000
C           -1.87070000000000       -0.70000000000000        4.51990000000000
C           -1.30000000000000        2.81410000000000        2.29760000000000
C           -2.54480000000000        3.39260000000000        2.63300000000000
C           -0.52890000000000        3.44600000000000        1.28730000000000
C           -0.84920000000000        4.78310000000000        0.95720000000000
C           -2.03350000000000        5.37620000000000        1.44180000000000
C           -2.91730000000000        4.67060000000000        2.21160000000000
C            0.52670000000000        2.80980000000000        0.55100000000000
C            1.42880000000000        3.59230000000000       -0.20910000000000
C            1.17400000000000        4.98020000000000       -0.36760000000000
C            0.04210000000000        5.52940000000000        0.13620000000000
C            1.77370000000000        0.82530000000000       -0.05450000000000
C            2.53540000000000        2.96720000000000       -0.81220000000000
C            1.97010000000000       -0.61060000000000        0.13520000000000
Br           3.78800000000000        4.10390000000000        2.46120000000000
N            0.92510000000000       -1.32000000000000        0.51470000000000
N            1.13240000000000       -2.60880000000000        0.86470000000000
C            2.40850000000000       -3.15990000000000        0.92470000000000
N            3.38690000000000       -2.37440000000000        0.32850000000000
N            3.18750000000000       -1.08840000000000       -0.03440000000000
O            2.66180000000000       -4.21540000000000        1.46000000000000
C            0.67350000000000        1.41950000000000        0.52730000000000
C            2.73610000000000        1.61730000000000       -0.69970000000000
C            0.38440000000000       -1.58500000000000        4.16200000000000
C            1.66530000000000       -1.44570000000000        3.74570000000000
N           -3.25660000000000        2.52440000000000        3.42420000000000
Si          -7.06170000000000        4.91450000000000        8.00440000000000
C           -5.47490000000000        4.22230000000000        7.18360000000000
C           -5.70380000000000        3.68540000000000        5.78480000000000
O           -4.45860000000000        3.30360000000000        5.23560000000000
C           -6.66580000000000        5.28280000000000        9.83200000000000
C           -8.46890000000000        3.62910000000000        7.88870000000000
C           -7.58900000000000        6.51950000000000        7.11510000000000
C           -4.56060000000000        2.75060000000000        3.95030000000000
C           -0.02090000000000       -3.29340000000000        1.28670000000000
C           -1.16970000000000       -2.54230000000000        1.54570000000000
C           -2.32800000000000       -3.16360000000000        1.96210000000000
C           -2.36710000000000       -4.54010000000000        2.11850000000000
C           -1.23560000000000       -5.28830000000000        1.84060000000000
C           -0.06640000000000       -4.67960000000000        1.42340000000000
C            4.71560000000000       -2.82170000000000        0.19970000000000
C            5.02320000000000       -4.16090000000000       -0.02150000000000
C            6.34510000000000       -4.53990000000000       -0.16400000000000
C            7.36110000000000       -3.60090000000000       -0.09880000000000
C            7.05040000000000       -2.26590000000000        0.10740000000000
C            5.73590000000000       -1.87310000000000        0.25580000000000
H            5.47410000000000       -0.83930000000000        0.41650000000000
H            7.83700000000000       -1.52780000000000        0.15710000000000
H            8.39020000000000       -3.90720000000000       -0.21100000000000
H            6.58050000000000       -5.57960000000000       -0.33470000000000
H            4.24160000000000       -4.89950000000000       -0.08150000000000
H            0.80080000000000       -5.28200000000000        1.21620000000000
H           -1.25900000000000       -6.36260000000000        1.94660000000000
H           -3.27270000000000       -5.02600000000000        2.44920000000000
H           -3.20330000000000       -2.56630000000000        2.17010000000000
H           -1.13360000000000       -1.47390000000000        1.41850000000000
H            3.60480000000000        1.14030000000000       -1.12510000000000
H            3.23740000000000        3.58000000000000       -1.35920000000000
H           -4.71410000000000        4.99990000000000        7.12050000000000
H           -5.04620000000000        3.42280000000000        7.78690000000000
H           -6.37880000000000        2.81640000000000        5.80870000000000
H           -6.16630000000000        4.45150000000000        5.14300000000000
H           -5.10920000000000        3.43370000000000        3.27970000000000
H           -5.11460000000000        1.79540000000000        3.98630000000000
H           -8.75840000000000        3.44800000000000        6.85760000000000
H           -9.35380000000000        3.96580000000000        8.42010000000000
H           -8.17350000000000        2.67680000000000        8.31940000000000
H           -6.38860000000000        4.38140000000000       10.36970000000000
H           -7.52360000000000        5.71430000000000       10.33770000000000
H           -5.84340000000000        5.98520000000000        9.92590000000000
H           -7.88310000000000        6.33070000000000        6.08680000000000
H           -6.78070000000000        7.24460000000000        7.09700000000000
H           -8.43350000000000        6.98600000000000        7.61340000000000
H           -0.07800000000000        0.79180000000000        0.97250000000000
H            1.87610000000000        5.57320000000000       -0.93440000000000
H           -0.19560000000000        6.56670000000000       -0.05180000000000
H           -2.25120000000000        6.39610000000000        1.16160000000000
H           -3.85400000000000        5.10690000000000        2.52140000000000
H           -3.77250000000000        0.20010000000000        4.88100000000000
H           -2.11810000000000       -1.63240000000000        5.00500000000000
H            0.04000000000000       -2.52310000000000        4.57270000000000
H            2.35880000000000       -2.27380000000000        3.79060000000000
H            4.16990000000000       -0.82380000000000        3.04050000000000
H            5.02120000000000        1.42390000000000        2.46870000000000
H            1.12550000000000        3.05500000000000        3.09600000000000
192
 energy: -294.346809289347 gnorm: 4.242774101191 xtb: 6.6.1 (8d0f1dd)
C            3.50529818199155        0.01565637099986       -0.99536022348955
C            4.13789566028380        1.31669515306878       -1.36356303413018
C            3.14767576828232        2.35024672920543       -1.28350501101474
C            1.73930078465738        2.18649406885113       -0.99710368676185
C            1.19548396764069        0.91384356363231       -0.83336778335568
C            2.15321860078840       -0.16061904187445       -0.74700712482086
C           -0.17231363377930        0.68851849478187       -0.58120494645211
C           -0.56579724901037       -0.52355156016279        0.03205743215214
C           -1.19652745349183        1.61299850218883       -0.90946489260775
C           -2.45770136821401        1.44399025400390       -0.29657974734632
C           -2.79980750878764        0.29999673371726        0.42699980167728
C           -1.87329101921012       -0.69798347523211        0.51800612605830
C           -1.30014660208542        2.81377942236678       -1.70231606635930
C           -2.54490582221438        3.39287815456742       -1.36713730849314
C           -0.52879101862034        3.44606986415693       -2.71268142782013
C           -0.84925651430979        4.78317823535621       -3.04275420901827
C           -2.03342529579021        5.37625665563044       -2.55825535208273
C           -2.91725651339937        4.67045728419078       -1.78829094680347
C            0.52659703776475        2.80991740300884       -3.44893197615748
C            1.42884470846857        3.59237597388433       -4.20914158077362
C            1.17404064192772        4.98028841284352       -4.36760415861451
C            0.04209702468142        5.52943501916807       -3.86378571845746
C            1.77378350378866        0.82521586897269       -4.05444645780000
C            2.53548306798618        2.96728923907256       -4.81221995032519
C            1.97019977263220       -0.61100100546746       -3.86505362444059
Br           3.88739246058883        4.20204924981875       -1.57327412283131
N            0.92478667843087       -1.31872820028936       -3.48506032781794
N            1.13257305011770       -2.60988302535275       -3.13494126164550
C            2.40857217639800       -3.15956966364916       -3.07606002690364
N            3.38686064398010       -2.37527724638072       -3.67117442291798
N            3.18749068048942       -1.08735799618650       -4.03435592983554
O            2.66182532103125       -4.21552139743348       -2.53945207081414
C            0.67358690440321        1.41945221082006       -3.47256357431580
C            2.73618939399356        1.61727085948462       -4.69969903054938
C            0.22417880184319       -1.64818414752805        0.06287381099822
C            1.66481432402953       -1.49131831069740       -0.29596575141968
N           -3.25660576284678        2.52438863345293       -0.57568141523558
Si          -7.06305089290591        4.91581529918412        4.00126043530034
C           -5.48666363512693        4.23946449864481        3.17770494934149
C           -5.70430020309860        3.68591936593095        1.78363077489538
O           -4.45964457829378        3.30324831003431        1.23534679890630
C           -6.66703290820576        5.28491092668019        5.82627467839835
C           -8.46863258287711        3.62913398779858        3.88893417960132
C           -7.58925400305729        6.51964893785709        3.11535143682426
C           -4.56057092712981        2.75031311941063       -0.05035156481665
C           -0.02075464605548       -3.29340422249896       -2.71337975226369
C           -1.16969451028407       -2.54228326161438       -2.45417065973475
C           -2.32803198770933       -3.16363840571944       -2.03783128310855
C           -2.36714487554314       -4.54008391568935       -1.88144617418626
C           -1.23554581458134       -5.28830389548372       -2.15937291317377
C           -0.06642972243185       -4.67969133015655       -2.57652039510236
C            4.71565130169451       -2.82175585215625       -3.80029422088675
C            5.02322018381392       -4.16089092296017       -4.02148269531367
C            6.34509517299247       -4.53989791564050       -4.16397441117986
C            7.36111029372869       -3.60088681582242       -4.09877585306057
C            7.05043032469453       -2.26591827720613       -3.89257816746564
C            5.73589830811316       -1.87316762548546       -3.74412948817166
H            5.47412258104005       -0.83927434586314       -3.58353751608863
H            7.83698825855987       -1.52780218327196       -3.84291311363598
H            8.39017676216657       -3.90718605413620       -4.21100883193417
H            6.58049342456895       -5.57958169149038       -4.33470741524754
H            4.24160736443517       -4.89948681723869       -4.08151139826408
H            0.80078722329322       -5.28198751795350       -2.78383084009517
H           -1.25900205372331       -6.36257268302617       -2.05341985245361
H           -3.27268784943077       -5.02598613052273       -1.55082385558235
H           -3.20329787434670       -2.56629218562250       -1.82991991140905
H           -1.13365251050112       -1.47388094850718       -2.58158247110304
H            3.60475885780046        1.14027872067881       -5.12509998155746
H            3.23736585339807        3.57998326767815       -5.35917491640514
H           -4.71550040222927        5.00013843645240        3.12138157743109
H           -5.04846382940872        3.42768984822301        3.80160671034742
H           -6.37889896303159        2.81637718926093        1.80870039391864
H           -6.16633286268357        4.45141302583323        1.14276775426419
H           -5.10914063155944        3.43368418704159       -0.72026454578499
H           -5.11456312868143        1.79541680574125       -0.01368987533483
H           -8.75840194878176        3.44805486816279        2.85769709722835
H           -9.35387820806318        3.96577064552025        4.42002064332432
H           -8.17359877831424        2.67663779342054        4.31936554543090
H           -6.39182423801014        4.38354037173523        6.37072424118007
H           -7.52194344473759        5.70942039274080        6.33710824258221
H           -5.84365704750496        5.98515717685164        5.92560848495155
H           -7.88307187446114        6.33070321200889        2.08695025834500
H           -6.78076392946801        7.24465710661925        3.09693949402601
H           -8.43353846240406        6.98611305432528        3.61325244283162
H           -0.07810926112920        0.79175342305753       -3.02757747403762
H            1.87608771765531        5.57315496910118       -4.93437497287173
H           -0.19558735487506        6.56664368284219       -4.05180795639398
H           -2.25118476083507        6.39605815126479       -2.83841323824586
H           -3.85398722788057        5.10688232888520       -1.47862363981660
H           -3.77244709915759        0.20007987080371        0.88098400259782
H           -2.12159117474934       -1.63033398244931        1.00181179580225
H            0.03218132396755       -2.52439948339777        0.56779731341931
H            2.35669076326132       -2.27730103647882       -0.21339794668694
H            4.17266343737542       -0.82276118389363       -0.96340158657983
H            5.02724822267710        1.42559331360189       -1.53310241678564
H            1.11698893625819        3.05581723049308       -0.91025836130366
C            3.49788374028972        0.02234442764375        3.01017508876370
C            3.98030681316068        1.26863529239671        2.70581387130352
C            3.10427419376907        2.35282860072780        2.75984019952312
C            1.76789931114958        2.19388561460190        3.01893357187641
C            1.23808364556870        0.90951476624430        3.22394766941174
C            2.13999547748220       -0.17961974669728        3.30884142807309
C           -0.16723471078732        0.68797326230086        3.42231893243641
C           -0.55765696662790       -0.52655431323552        4.03648104393678
C           -1.19439278625555        1.61260819650848        3.09187059852964
C           -2.45746706504075        1.44294023945219        3.70385888105133
C           -2.79941990487544        0.29972705962005        4.42661818260594
C           -1.87029097464107       -0.70026604034754        4.51988170070283
C           -1.30009052206723        2.81374486468259        2.29794212035535
C           -2.54448039637767        3.39349498200982        2.63286172508727
C           -0.52832557690707        3.44559005476404        1.28734093277476
C           -0.85007425418812        4.78348520291013        0.95755027166537
C           -2.03248454094456        5.37622399408630        1.44126672316593
C           -2.91638381514736        4.67053906041711        2.21218725750624
C            0.52435712671670        2.81077451749922        0.55627120948556
C            1.42801603140373        3.60173281044379       -0.20186906185166
C            1.17343617005016        4.98246483481672       -0.36727784064688
C            0.04256273565925        5.52955528854817        0.13580828228797
C            1.80948388028860        0.82887089991880        0.00441575441657
C            2.51838506828345        3.01392233050296       -0.78560197226113
C            1.98307780375818       -0.59638313039474        0.20237058047022
Br           3.78813021587095        4.10425715144360        2.46096195542911
N            1.04783532743698       -1.25493513886354        0.63259543045837
N            1.14234504303536       -2.62079526766600        0.87558347429554
C            2.41062490959042       -3.16192742140943        0.92725736258079
N            3.39060324750652       -2.37792065577745        0.33091585864583
N            3.20097005393711       -1.09215215673319       -0.02518435243647
O            2.66234157252488       -4.21644727232794        1.46023520907742
C            0.66976946371006        1.42181300580435        0.53754352614496
C            2.72967074143514        1.58471515502854       -0.66942387796961
C            0.38435677254586       -1.58507529380773        4.16197913074193
C            1.66527467640440       -1.44588417673554        3.74563302198571
N           -3.25661555629504        2.52407217418923        3.42460124658358
Si          -7.06203413672353        4.91398008272714        8.00675870850162
C           -5.47197204235548        4.22049112494217        7.18652124865265
C           -5.69981224229862        3.67965095916679        5.78438037587410
O           -4.45694363586606        3.30236673642099        5.23663155646304
C           -6.66578855270899        5.28283209376092        9.83177236918945
C           -8.46868443584817        3.62928595025077        7.88842245844795
C           -7.59142390225246        6.52391150821260        7.11931515221456
C           -4.54728725299302        2.73192662313656        3.95862106788975
C           -0.02061741703194       -3.29784949899215        1.29094939465866
C           -1.16836757121856       -2.54415834174128        1.54937201948495
C           -2.32810468430324       -3.16409525702261        1.96248455039727
C           -2.36750026595324       -4.54010318592085        2.11852092258683
C           -1.23533255032214       -5.28846028941732        1.84041473824477
C           -0.06651027919242       -4.68074597914665        1.42328550630782
C            4.71635056846733       -2.82231647083778        0.19977776191851
C            5.02321308304560       -4.16100491246463       -0.02157712164083
C            6.34510083838568       -4.53990007710616       -0.16403990109909
C            7.36111290677187       -3.60086575925882       -0.09880512319035
C            7.05051531323017       -2.26588730098333        0.10735975123866
C            5.73592237954342       -1.87318917681858        0.25577463247433
H            5.47440874466401       -0.83920749663814        0.41672411969190
H            7.83695984705749       -1.52780854703773        0.15709324755096
H            8.39015129172632       -3.90716426773360       -0.21098921582914
H            6.58047095768093       -5.57955159251098       -0.33469082668763
H            4.24161354556595       -4.89945998284476       -0.08151269055851
H            0.80081757240863       -5.28203119877920        1.21622856657411
H           -1.25896299716147       -6.36251442003899        1.94660914422322
H           -3.27265107505106       -5.02596353972236        2.44918867841743
H           -3.20337900215171       -2.56632052870256        2.17018138631330
H           -1.13107906945579       -1.47549377949467        1.42204389231448
H            3.45719280019424        1.08581463039632       -1.05830943304655
H            3.15122200852720        3.50271911251175       -1.33203331020731
H           -4.71390095637196        4.99969495594541        7.12070187810192
H           -5.04567737763276        3.42255740416668        7.78722617925281
H           -6.37877196424107        2.81613893471155        5.80872453751608
H           -6.16393122645645        4.44987560176089        5.14223007789462
H           -5.10997951005386        3.42974016220815        3.26276654838732
H           -5.11445347389956        1.79460429889217        3.98669091485270
H           -8.75856152601261        3.44789096668110        6.85757120015864
H           -9.35373475921856        3.96576825370730        8.42011592908383
H           -8.17353408741498        2.67685136772447        8.31944357815136
H           -6.38862717898164        4.38146007023336       10.36967100351784
H           -7.52354392372684        5.71426710482682       10.33768118105085
H           -5.84337590542036        5.98522659323350        9.92600299766620
H           -7.88690117153856        6.33650681952535        6.08604755788718
H           -6.78094163652730        7.24481587574278        7.09716080632645
H           -8.43382623304154        6.98659902259744        7.61411980384498
H           -0.07731388616596        0.79251500932741        0.97591746403213
H            1.87595500780582        5.57335315309650       -0.93437646396791
H           -0.19546685117121        6.56660093011396       -0.05179643193211
H           -2.25115834540961        6.39604572638236        1.16156896059803
H           -3.85177335629442        5.10748449413901        2.52020485974999
H           -3.77251717159919        0.20008251636346        4.88100867635216
H           -2.11807902412661       -1.63237643903947        5.00499216941199
H            0.04003576584982       -2.52306925820097        4.57270334062534
H            2.35880271371769       -2.27378732938141        3.79063565722177
H            4.16990732440695       -0.82381092457959        3.04053597577758