116
 energy: -22.928061455056 gnorm: 0.329736929581 xtb: 6.6.1 (8d0f1dd)
C           -3.31122850772930        0.79849766164622       -0.92477639677520
C           -2.44380812530352       -0.12270372891954       -0.27661132624697
C           -1.41337090092821        0.39579727573559        0.56335275196199
C           -0.89266158675590        1.65801491088749        0.27377586709581
C           -1.72665675402493        2.51431363229076       -0.49448366572522
C           -2.95444148494349        2.13954154133227       -1.01494489940871
C           -0.74098268209890       -0.43411532818871        1.49825021926784
C            0.56872586496315        0.03782116815119        1.86248088067890
C            1.03782416582094        1.29402317993033        1.50887470833621
N            0.31238977034758        2.07067427098208        0.65193736800696
C           -1.29695700510141       -1.39996043042223        2.41574187746061
C           -0.38243517664656       -2.18060797534842        3.13232615520648
N            0.91308504082021       -1.90366887689689        3.30325166013478
C            1.37712470144904       -0.74872102533751        2.81811050966982
C            2.52149331701875       -0.17739833758153        3.39379298866852
C            2.95849061756259        1.02681208890480        2.95105897606587
C            2.24288949469137        1.78498308775960        2.03503020483770
C           -2.74860936222260       -1.74497937691422        2.38401158947411
C           -3.09416315450955       -2.91614440870436        3.00571134491758
C           -2.16786021984049       -3.77788778654213        3.63251872101904
C           -0.85708937311598       -3.40495313382985        3.68547234358092
O           -3.71994433332149       -0.94984598373544        1.67726658385724
O           -2.55702603277562       -1.47241711578389       -0.57241635275616
C           -3.84297843593025        3.13357444054366       -1.60938954875544
C           -2.68769581069131       -5.03867041417370        4.30484659386931
H           -1.39666850744143        3.51251503834900       -0.76806311868865
H           -4.27662633836220        0.55105838579656       -1.33106614114542
H            2.66329581305412        2.73912661909249        1.72562431984580
H            3.05775395548473       -0.69369546277216        4.16536137542516
H           -0.24710966264510       -4.12034095424229        4.22946223699121
H           -4.11477991332403       -3.04712728052358        3.03244694615357
O           -4.21824883374556        4.03433712717988       -0.87713382485991
O           -4.44510595673734        2.90643496899600       -2.81853501752979
C           -5.44216520282800        3.83300025693726       -3.02488532025093
C            4.23586651889298        1.50004220933226        3.59165660008449
O            5.05927614697201        0.66079890002952        3.91714215179376
O            4.47001334453535        2.86385149488593        3.72605651435371
C            5.79457498613219        3.08584475587818        4.15829123132174
O           -3.82227255313510       -5.27347675879771        4.16636005494405
O           -1.85023202017753       -5.79767454267276        5.06656077253571
C           -2.55119635829503       -6.86252441382958        5.62930343183426
C           -5.07197156564436       -1.42399175670916        1.58830531863830
C           -1.33089900128490       -2.23622472573986       -0.99264499351172
H           -2.54510546830388       -7.76426885143998        4.99136022291012
H           -3.57194749219491       -6.44405511486021        5.74196173723541
H           -2.09133598235598       -7.02043774843818        6.64022264233588
H            5.72707967266424        3.46798026205549        5.10135971236643
H            6.34060091246885        3.78468702308830        3.50069950143490
H            6.17933064298187        2.03010500085905        4.19342358084693
H           -0.91862729772622       -2.57650129080332       -0.01361370304871
H           -0.49769766914251       -1.60651221708571       -1.34094446550576
H           -1.52632419730509       -2.94569707152159       -1.75361447637286
H           -5.11788846557077       -2.41810833635233        1.17520213188926
H           -5.67929807973498       -0.69619639428435        1.04301666067831
H           -5.57598832326623       -1.42383358739762        2.57928294206544
H           -6.13050215934830        3.76035386975488       -2.23272855695873
H           -5.86615610071888        3.45938329385866       -4.02668959924245
H           -5.13479557532099        4.87790991548477       -2.98314551356402
C           -1.38192942069774        3.73616555005018        2.91232598411686
C           -1.84821468128685        2.59982427735607        3.49755545445181
C           -1.05946531454833        2.05730632010638        4.60922730982276
C            0.19893954712228        2.69376791964407        4.86302140881997
C            0.50425395911860        3.94630308659851        4.28768785650746
C           -0.26031777722226        4.46998310053134        3.25072669343212
C           -1.20488993561782        0.74454293276906        5.14851520323437
C           -0.06287609782692        0.02744069315890        5.60930570802864
C            1.19208754369866        0.71421540266195        5.78882868583885
N            1.19428660993148        2.06344359410476        5.62744624321596
C           -2.41361422770794        0.07928500213936        5.25249410304426
C           -2.45851584031083       -1.32662100968547        5.60237876023992
N           -1.29466212405906       -1.98318595734370        5.89916817085159
C           -0.14475655767527       -1.32117560077092        5.98824682881008
C            0.97209270935794       -1.98958449505532        6.53157704134458
C            2.21982707914082       -1.36973967291181        6.68703967237737
C            2.30561929262884       -0.09745313075593        6.26436900324455
C           -3.73018485967715        0.71367583494582        5.25810242262992
C           -4.89964478833448       -0.06184623426677        5.21204641615509
C           -4.82617965800088       -1.39228978090841        5.46901303780036
C           -3.67144193418464       -1.98914944386360        5.67265433266067
O           -3.75568638935321        2.07705011038914        5.52067969627343
O           -2.94192434743730        1.91263938797883        3.01658762327703
C            0.21273512614467        5.50086066357994        2.34765104514621
C           -6.06660304520411       -2.17604633098929        5.80641622556876
H            1.41756699010566        4.38133362238595        4.66974005703471
H           -1.82880610647429        4.11982501512100        2.06992133318584
H            3.26888037378556        0.32655662585251        6.31721410015598
H            0.87146188387207       -3.08471526305024        6.57830423410869
H           -3.67716811065157       -3.05999292755990        5.83019634570050
H           -5.77379677507622        0.43595144608221        4.71017130754348
O            1.34459852619901        5.82615848916894        2.44941456579099
O           -0.74718748219123        6.07961784856304        1.59848183464284
C           -0.21473095568964        7.24015934882472        1.05753806029483
C            3.53228080814219       -2.00967610361154        7.02506769044485
O            3.64093082622715       -3.14437803815732        7.50071391725347
O            4.56565258381079       -1.22937033368332        6.69086985080897
C            5.72579357310716       -1.80692399125161        7.22246151275881
O           -7.04801223588612       -1.95726935745904        5.14194115322235
O           -6.01514389321278       -2.93743591896022        6.94765316328794
C           -7.21292732384718       -3.62681918543340        7.15115816329978
C           -4.95459780685163        2.65960679932188        5.86868674392943
C           -3.68284113682406        2.59129188358641        2.05479246020704
H           -7.43119628931628       -4.22607794725959        6.20622607140901
H           -8.06548455146707       -2.91765848248592        7.29781126410398
H           -7.07314693247270       -4.33087306029711        7.91223421050944
H            6.57332189837178       -1.29353136199234        6.78341268688262
H            5.74663761932316       -2.84282155125561        6.88089468184451
H            5.69426191474290       -1.72781984964892        8.29460302186842
H           -4.10481209541493        3.44288266176275        2.60483747673152
H           -4.49244774344916        1.87419893016926        1.82433103764650
H           -3.18901540870812        2.85154642679373        1.06781919454921
H           -5.55414326821421        2.76698137191684        4.93950725322359
H           -4.78658370641210        3.62090640967288        6.25983200635257
H           -5.43485580473958        1.97242995129449        6.65265772412460
H            0.89164886030839        7.38838561720231        1.13776105146914
H           -0.62894889903848        8.04195665205089        1.64837664327952
H           -0.59282546386754        7.45699159724320        0.03719083132488
116
 energy: -22.466028352412 gnorm: 0.573876802137 xtb: 6.6.1 (8d0f1dd)
C           -2.70947904845856        0.12927912244340       -1.97140851349450
C           -2.20091532900113       -0.62697029250232       -0.98586081625289
C           -1.71077948254489        0.00539994214154        0.10333079546942
C           -1.88295514455570        1.48392822679072        0.21925715990049
C           -2.49075123301392        2.22250025536215       -0.85383470442248
C           -2.84723983378238        1.59625720131785       -2.01013659825046
C           -0.81053232478630       -0.77484927087936        1.02539274134420
C            0.28967208185896       -0.02589619798393        1.36132558257785
C            0.13673590949119        1.29987070456144        1.27453338352476
N           -0.97853899862538        2.11969938074622        0.95531927627411
C           -1.02688290186352       -2.02339685679914        1.58078253458153
C            0.16360415559143       -2.69790795849175        2.02072409585351
N            1.20934984421631       -2.00815084523761        2.33726296179596
C            1.25693852609713       -0.67185873211022        2.11680593292487
C            2.29455216053952        0.03819195248036        2.83248131538049
C            2.23434339930602        1.36709583705970        2.47601065696134
C            1.21115511756953        1.99569629629779        1.81985440620558
C           -2.32454725191031       -2.51946939455150        1.89552888989399
C           -2.44100531212424       -3.83816684501202        2.56028918760203
C           -1.24682788233652       -4.48756769372337        2.96828732577829
C           -0.03711733949835       -3.88814098396100        2.65918435192582
O           -3.43512175195145       -1.63746920380243        1.69748432065313
O           -2.01218594947736       -2.04738085646465       -1.30392931122054
C           -3.62555168617948        2.46160267735521       -2.92417141694721
C           -1.26856295507260       -5.79073506698227        3.73421851706784
H           -2.82519849910610        3.30582363510586       -0.85250416037166
H           -3.03615424294075       -0.59627593901519       -2.78131736786452
H            1.17354271290194        3.03677659533855        1.64417757208446
H            2.96484984465369       -0.47774487750102        3.58409099870471
H            0.96330759912293       -4.09771734275580        3.08648956924552
H           -3.41560355791145       -4.30612303731602        2.63024301351821
O           -3.54282319424827        3.66011488345272       -2.86849670726655
O           -4.37069061642186        1.72234857258681       -3.83331656247104
C           -4.98103810391113        2.82030619144866       -4.55393295728984
C            3.34441634189516        2.05529837845134        3.18217808239559
O            4.18010796785923        1.33503119424190        3.89077123624670
O            3.40633240284854        3.37308829726241        2.70705883939589
C            4.75284025131533        3.87744851807166        3.37603940406359
O           -2.36775871765567       -6.31675968802798        4.12324671796395
O           -0.02963941017074       -6.30476985180126        3.86787955286287
C            0.00106139378896       -7.31370187337117        5.01090967969117
C           -4.65283860500233       -2.06064552873785        2.24266639281217
C           -3.04209641272848       -3.06859525530762       -1.04961521923290
H           -0.49054083246844       -8.17945373529009        4.65442852114488
H           -0.11060862933187       -6.39429439423542        5.83125537018500
H            1.14467473036638       -7.54647314880861        5.12198361816487
H            5.13289695659525        3.13707746613660        4.11032253091667
H            4.43997679552033        4.72091804181653        3.98068036908205
H            5.37728794662966        4.15806407444319        2.44949851684372
H           -2.58338511266179       -3.88611181065806       -0.61902121072895
H           -3.77745367072985       -3.46273454375688       -1.82664946650793
H           -3.87726954860497       -2.58075669396876       -0.59321883517531
H           -5.00097995058664       -3.08507201469837        2.00400283620893
H           -5.35306449074233       -1.27945612832313        1.93221152990355
H           -4.64169821297480       -2.39322674554445        3.24300770107396
H           -5.21461709644534        3.70561302546536       -3.77283599884410
H           -6.04162218108740        2.66760389191540       -4.73950507496613
H           -4.25630012168855        2.97996206074637       -5.38074620304460
C           -1.29250424606097        4.88895048876202        4.66059554140467
C           -1.76540917994709        3.61834902265785        5.16123334420282
C           -0.91139067836473        2.52138627666950        5.51380277614643
C            0.42365198770375        2.82233239217918        5.56881428152116
C            0.95164852901954        4.05136987617992        5.06037209724554
C            0.07413523152424        4.97649246773078        4.55366524217721
C           -1.26659798428216        1.15868727983093        5.96164387069328
C           -0.17015338171319        0.23850162076857        5.97480456763355
C            1.16107272536734        0.56948557350896        5.90153920552035
N            1.40589477583704        1.82135038708515        5.89312450953006
C           -2.51757932370449        0.45280753011580        6.28703095476332
C           -2.46233120553055       -0.93297604798385        6.07739366177780
N           -1.50159377179977       -1.76749718969376        5.76260248608061
C           -0.37788400787543       -1.11684970126008        6.06993050307169
C            0.75568794827936       -2.03663099900881        6.30972341463047
C            2.09805009200607       -1.65334920186307        6.36993268220402
C            2.27236334526424       -0.27703028543487        6.21091007192360
C           -3.71352904232000        1.23695204062198        6.88808403652263
C           -4.95709691997461        0.60791116477760        6.61381459992646
C           -5.07979279904727       -0.71088127622086        6.28849277077156
C           -3.82883742992036       -1.43145349477711        6.15680604471635
O           -3.82257314958437        2.34809889658063        7.68249593347529
O           -3.09778993247342        3.25615669701006        4.98608668117516
C            0.15999305950019        6.14184069877261        3.57263287149018
C           -6.55034224183069       -1.09862184208524        5.81880807699680
H            1.91992504979828        4.16269322099922        5.31930706833065
H           -1.97386850023787        5.57932907906432        3.88520735310516
H            3.24633154891261        0.31178224833476        6.44330252189790
H            0.67935095003297       -3.10189325744921        6.26362321095378
H           -3.76846570489881       -2.49135014503236        5.85483055992018
H           -5.81470481836408        1.21784096737292        6.41043781318247
O           -0.73562139283811        6.89298793700331        3.24904102676226
O            1.40908647654122        6.10037967975894        2.87309305482879
C            1.33357418647070        6.81808909224627        1.65242660367247
C            3.16835249597378       -2.49863370996625        6.93598334216137
O            2.87681129569717       -3.60307659388426        7.31665031570969
O            4.45805873857661       -2.03084723034716        6.66289224156491
C            5.36448249627125       -3.08772353859536        6.97556705408789
O           -6.66273623110404       -2.18884878918712        5.39241470039514
O           -7.59146379377655       -0.09854276998682        5.85462709101304
C           -8.85041882147719       -0.72276263065812        5.55623257544476
C           -5.03975641812781        2.85956389614563        7.88289826336557
C           -3.17053425314655        2.42764944657829        3.93732041798640
H           -9.03221997506961       -1.36206473118387        6.52364353323366
H           -8.74413548087495       -1.11245599200752        4.54382527325691
H           -9.96472609910566       -0.11250790472575        5.63895044105097
H            6.41791384427150       -2.75028362744300        7.08900714382191
H            5.45670980818080       -3.62190336813505        6.08825117255496
H            4.83643366840138       -3.88793745171037        7.83790522570746
H           -2.86056007612405        3.18453813425769        3.08692639319788
H           -3.44564395505225        1.42886204255817        4.45319822592499
H           -2.09329739996618        2.15979953908953        3.47648354085981
H           -5.09688811259684        3.56665217338767        8.69440441831969
H           -5.90801098560413        2.13571935810388        7.94006643588386
H           -5.33673276622117        3.31884731815211        6.93167817536162
H            1.60460356035452        7.95425658142566        1.53350589311726
H            0.29221947031830        6.54901722532798        1.37419310351368
H            2.11929566007443        6.28765125679549        1.09116866109825
116
 energy: -22.479245786815 gnorm: 0.635928043355 xtb: 6.6.1 (8d0f1dd)
C           -3.14927717413248       -0.99745240837551       -1.33386774011522
C           -2.35497726792532       -1.41188567708276       -0.19746018079894
C           -1.74248395962239       -0.38060760685515        0.60933890657548
C           -1.53507735586993        0.86770285450670        0.03824099748947
C           -2.48545677713442        1.29741242943587       -1.02208864396394
C           -3.28468562516783        0.40863107624262       -1.70368069529319
C           -0.82442127433073       -0.73216847947867        1.60613946617626
C            0.46286931503105       -0.03707912364516        1.55304756686210
C            0.51493430986615        1.29446549126500        0.98148432736698
N           -0.51202758680063        1.86031361983608        0.30094913855240
C           -0.88878679902139       -1.82132657031081        2.41366878798288
C            0.33911609511791       -2.46693786594001        2.85181183536669
N            1.46681132836470       -1.94534820102311        2.79217970098206
C            1.54960064170476       -0.59068529962902        2.20403803052117
C            2.65739225382777        0.28520119206374        2.42688332987919
C            2.74847603096574        1.63344914054954        1.96525900226235
C            1.60648154005293        2.10701402971973        1.19867290976577
C           -2.13082726293412       -2.29686870475376        2.90735750256678
C           -2.37786790304357       -3.61145187811178        3.32423650530606
C           -1.18921479379155       -4.39668248138957        3.17569346503281
C            0.11866504001139       -3.77215973400925        3.25381785443857
O           -3.11231641812622       -1.32933120701464        2.66690450018244
O           -2.30941959595330       -2.84294972067808        0.15098883500538
C           -4.02499317451478        0.98683471678230       -2.95242878694046
C           -1.06887911120797       -5.90951133466327        2.90163225254845
H           -2.69046456034893        2.37733946566746       -1.01989985777548
H           -3.53198359198315       -1.87129489062383       -1.97068654240759
H            1.85408791173879        3.02908353341376        0.70531334652660
H            3.59340704415137       -0.08231041775456        2.98413786834235
H            0.88410719350586       -4.56991238821585        3.36247062494164
H           -3.17825315921101       -3.90755349429667        4.05100923069262
O           -4.25681177311717        2.18753255331666       -3.15533407585054
O           -4.63114803419770       -0.13309252383699       -3.61627172172212
C           -5.40608706057428        0.33513373523642       -4.58163467092266
C            4.06690470872868        2.45192518648339        2.39146815178407
O            4.85349553249578        1.75978387945050        2.95364341260224
O            4.34147293807042        3.68650663886605        2.04172725084851
C            5.65886705098808        3.90937074992028        2.74729118748710
O           -2.12067557909034       -6.35069358614840        2.64205160576157
O            0.13057592577323       -6.49344679051261        3.21959278534308
C            0.21949051241206       -7.88872637552357        3.49759108118240
C           -4.41823534481799       -1.65029720706028        2.70942460811457
C           -1.24617508492015       -3.48169853169316       -0.53304194452604
H            0.94882630652112       -8.26225540341665        4.07790289269830
H            0.32416335106755       -8.53176090991265        2.52177574412300
H           -0.68768749926977       -8.14685055620618        3.91637702966137
H            5.51067296062971        3.85870804121601        3.73701572851923
H            5.91510227613517        5.00469961892781        2.41399923345729
H            6.44095724820654        3.29175983872015        2.39223251582218
H           -1.13449121646488       -4.37708449085942       -0.00715248955425
H           -0.46779512724018       -2.72065337988098       -0.80256584056659
H           -1.51107798224448       -3.56445321446239       -1.60420222390504
H           -4.64316265947334       -1.86688697763022        1.62915196876108
H           -5.11961648434694       -0.81454919972995        3.00524623526582
H           -4.75277535111465       -2.25554787878845        3.66262297915302
H           -6.09933170010686       -0.33656119759680       -4.84217224707251
H           -4.83142843565264        0.76185012914940       -5.54645366631148
H           -6.03244754104072        1.26764977621381       -4.17907221472973
C           -1.06247729984671        4.99918494195323        4.17253863048225
C           -1.54001356817728        3.70319622758964        4.23663798295211
C           -0.87587953531221        2.49080903880898        4.83380081616662
C            0.46015397351570        2.70223718945724        5.16300832954061
C            0.99608192479992        4.12975489121733        5.18386233646730
C            0.04601220387966        5.19260667896011        4.95118610836706
C           -1.42136930701498        1.16058398085743        5.09666726166242
C           -0.56369064989821        0.09736314228330        5.22678551630159
C            0.90813432557867        0.45141387456095        5.03390385871148
N            1.35431050556333        1.72906568975668        5.18825478232804
C           -2.71678888479809        0.92906391704148        5.55814729716331
C           -3.09711100761401       -0.46878683454638        5.87432740408466
N           -2.12878005723229       -1.57095304216111        5.74361931759525
C           -0.90622705189350       -1.22084034961785        5.64946317131102
C           -0.03610939171330       -2.21412850318728        6.08659743142893
C            1.35958458200082       -1.86090061499461        5.73379594510874
C            1.82770012584489       -0.51469281360525        5.42507057572547
C           -3.75129785337782        1.93383078381623        5.83345183301698
C           -5.13306941594778        1.70546966974495        5.58625169367145
C           -5.37525337714882        0.42068624602746        5.86976497619486
C           -4.48152305202829       -0.57798383350283        6.12840554149296
O           -3.41282822824960        3.28981479109241        6.05199393864602
O           -2.87725660835885        3.84064567920602        3.60163152718652
C            0.40534274958514        6.62114208807699        5.43756309451608
C           -6.80080828698118       -0.02475122360726        5.97663164481444
H            2.01206585598649        4.38504082784156        5.50247314637290
H           -1.81517423753009        5.88807940777467        3.90423087340252
H            2.78382729603783       -0.22266028505195        6.04774094494925
H           -0.26963589704620       -3.32575082483063        6.02678358201696
H           -4.77447685272032       -1.33135099459342        6.84270670332608
H           -6.05237192447330        2.30141751766551        5.53701694100811
O            0.51814395519291        7.75623981299292        4.91980410564840
O            0.08125551073350        6.76192323875315        6.83986667737986
C           -0.18464617846673        8.13466618840278        7.18190346190382
C            2.30163536045886       -2.99238946161673        6.08118402091189
O            1.97405176645328       -4.08867709310959        6.56851556136048
O            3.53102666473510       -2.72969277776371        5.57584467888578
C            4.54257896817928       -3.38386846954439        6.35016263820693
O           -7.61204240456380        0.50704275878137        5.15605066601781
O           -6.96515093165379       -0.93232330284430        6.96872384633615
C           -8.28689420511374       -1.00801057280420        7.14866831240142
C           -4.23209470755969        4.03643943305675        6.99448950893023
C           -3.02480759683022        2.78631496321840        2.60595199043345
H           -8.74911814194547       -1.72670913248651        6.41088772034564
H           -9.14031049068143       -0.22219741696189        7.16448095038646
H           -8.15855569120640       -1.48986547032543        8.16599466724323
H            4.01904591904457       -3.76410103679439        7.09642286865108
H            5.52400087411816       -2.70739913940657        6.51579600895573
H            4.86871016519307       -4.24564931658922        5.63249215852045
H           -3.42664901128966        1.71054736958576        2.78215941266004
H           -2.13844159880031        2.48447814275996        2.39636102098127
H           -3.41255273674424        3.04369404618870        1.64000423780968
H           -3.70898447622177        4.56411389757901        7.73953290399415
H           -5.18189251510492        3.65824909939731        7.36304809855429
H           -4.48682628880530        4.73828024905742        6.09856486913588
H           -0.79351225947187        8.46066591575241        6.30689145045597
H            0.76643126218269        8.90386334434689        7.06050507726140
H           -0.52034144528005        8.15042452014714        8.20809163569957
116
 energy: -22.506748193767 gnorm: 0.598644030955 xtb: 6.6.1 (8d0f1dd)
C           -2.84770166935803       -0.87297679578879       -2.07202199201588
C           -1.98493210293278       -1.44133764808230       -1.11263230957984
C           -1.30043928902433       -0.51381834211810       -0.26458383073202
C           -1.36697282995353        0.94550465808383       -0.45672891599893
C           -2.31805969033839        1.34070115584036       -1.56784181672741
C           -3.08245106284229        0.44699624888767       -2.40384917446737
C           -0.46413427348145       -0.99394048558457        0.82043945487319
C            0.52769459103881       -0.10539578161070        1.13935758339882
C            0.54214822024548        1.27548704282008        0.65247756952056
N           -0.57644286361398        1.89796838315798        0.17932919024989
C           -0.36586497443626       -2.32036803427516        1.39642417909181
C            0.93875291578630       -2.75507154293358        2.06219141849942
N            1.89552173419289       -1.86459448527605        2.27213637025199
C            1.63621281405259       -0.61209181248679        1.80479184758521
C            2.76854534958932        0.23380601207717        2.05127377354599
C            2.73020053157469        1.51989006534571        1.73716944895631
C            1.60073512095283        2.06208011153132        0.99822909469769
C           -1.50075480020517       -3.10081362733015        1.79797885486318
C           -1.44226590206971       -4.30756298876503        2.68753604326683
C           -0.26266334967092       -4.77760729659554        3.06828393986042
C            0.97260183198931       -4.06059477270052        2.67884608838367
O           -2.82372952931227       -2.70987958017260        1.51648375040042
O           -1.60513337419801       -2.82854711106416       -0.95403358604715
C           -4.16795370835455        1.13525035017950       -3.17806955132655
C           -0.30366701667629       -5.95370991017036        3.95178494402124
H           -2.30983336291387        2.37598869070699       -1.64455461915641
H           -3.15469629312019       -1.59017548341864       -2.76915487811161
H            1.31672764162434        3.10921020008780        1.20865448521900
H            3.61386141297977       -0.22457655412213        2.55893015685796
H            1.82514269912015       -4.37128614131772        3.19762241369398
H           -2.19045584050599       -5.05276329493472        2.49996786596107
O           -3.96715657441995        1.79247891193282       -4.12031785423966