116
 energy: -22.928061455056 gnorm: 0.329736929581 xtb: 6.6.1 (8d0f1dd)
C           -3.31122850772930        0.79849766164622       -0.92477639677520
C           -2.44380812530352       -0.12270372891954       -0.27661132624697
C           -1.41337090092821        0.39579727573559        0.56335275196199
C           -0.89266158675590        1.65801491088749        0.27377586709581
C           -1.72665675402493        2.51431363229076       -0.49448366572522
C           -2.95444148494349        2.13954154133227       -1.01494489940871
C           -0.74098268209890       -0.43411532818871        1.49825021926784
C            0.56872586496315        0.03782116815119        1.86248088067890
C            1.03782416582094        1.29402317993033        1.50887470833621
N            0.31238977034758        2.07067427098208        0.65193736800696
C           -1.29695700510141       -1.39996043042223        2.41574187746061
C           -0.38243517664656       -2.18060797534842        3.13232615520648
N            0.91308504082021       -1.90366887689689        3.30325166013478
C            1.37712470144904       -0.74872102533751        2.81811050966982
C            2.52149331701875       -0.17739833758153        3.39379298866852
C            2.95849061756259        1.02681208890480        2.95105897606587
C            2.24288949469137        1.78498308775960        2.03503020483770
C           -2.74860936222260       -1.74497937691422        2.38401158947411
C           -3.09416315450955       -2.91614440870436        3.00571134491758
C           -2.16786021984049       -3.77788778654213        3.63251872101904
C           -0.85708937311598       -3.40495313382985        3.68547234358092
O           -3.71994433332149       -0.94984598373544        1.67726658385724
O           -2.55702603277562       -1.47241711578389       -0.57241635275616
C           -3.84297843593025        3.13357444054366       -1.60938954875544
C           -2.68769581069131       -5.03867041417370        4.30484659386931
H           -1.39666850744143        3.51251503834900       -0.76806311868865
H           -4.27662633836220        0.55105838579656       -1.33106614114542
H            2.66329581305412        2.73912661909249        1.72562431984580
H            3.05775395548473       -0.69369546277216        4.16536137542516
H           -0.24710966264510       -4.12034095424229        4.22946223699121
H           -4.11477991332403       -3.04712728052358        3.03244694615357
O           -4.21824883374556        4.03433712717988       -0.87713382485991
O           -4.44510595673734        2.90643496899600       -2.81853501752979
C           -5.44216520282800        3.83300025693726       -3.02488532025093
C            4.23586651889298        1.50004220933226        3.59165660008449
O            5.05927614697201        0.66079890002952        3.91714215179376
O            4.47001334453535        2.86385149488593        3.72605651435371
C            5.79457498613219        3.08584475587818        4.15829123132174
O           -3.82227255313510       -5.27347675879771        4.16636005494405
O           -1.85023202017753       -5.79767454267276        5.06656077253571
C           -2.55119635829503       -6.86252441382958        5.62930343183426
C           -5.07197156564436       -1.42399175670916        1.58830531863830
C           -1.33089900128490       -2.23622472573986       -0.99264499351172
H           -2.54510546830388       -7.76426885143998        4.99136022291012
H           -3.57194749219491       -6.44405511486021        5.74196173723541
H           -2.09133598235598       -7.02043774843818        6.64022264233588
H            5.72707967266424        3.46798026205549        5.10135971236643
H            6.34060091246885        3.78468702308830        3.50069950143490
H            6.17933064298187        2.03010500085905        4.19342358084693
H           -0.91862729772622       -2.57650129080332       -0.01361370304871
H           -0.49769766914251       -1.60651221708571       -1.34094446550576
H           -1.52632419730509       -2.94569707152159       -1.75361447637286
H           -5.11788846557077       -2.41810833635233        1.17520213188926
H           -5.67929807973498       -0.69619639428435        1.04301666067831
H           -5.57598832326623       -1.42383358739762        2.57928294206544
H           -6.13050215934830        3.76035386975488       -2.23272855695873
H           -5.86615610071888        3.45938329385866       -4.02668959924245
H           -5.13479557532099        4.87790991548477       -2.98314551356402
C           -1.38192942069774        3.73616555005018        2.91232598411686
C           -1.84821468128685        2.59982427735607        3.49755545445181
C           -1.05946531454833        2.05730632010638        4.60922730982276
C            0.19893954712228        2.69376791964407        4.86302140881997
C            0.50425395911860        3.94630308659851        4.28768785650746
C           -0.26031777722226        4.46998310053134        3.25072669343212
C           -1.20488993561782        0.74454293276906        5.14851520323437
C           -0.06287609782692        0.02744069315890        5.60930570802864
C            1.19208754369866        0.71421540266195        5.78882868583885
N            1.19428660993148        2.06344359410476        5.62744624321596
C           -2.41361422770794        0.07928500213936        5.25249410304426
C           -2.45851584031083       -1.32662100968547        5.60237876023992
N           -1.29466212405906       -1.98318595734370        5.89916817085159
C           -0.14475655767527       -1.32117560077092        5.98824682881008
C            0.97209270935794       -1.98958449505532        6.53157704134458
C            2.21982707914082       -1.36973967291181        6.68703967237737
C            2.30561929262884       -0.09745313075593        6.26436900324455
C           -3.73018485967715        0.71367583494582        5.25810242262992
C           -4.89964478833448       -0.06184623426677        5.21204641615509
C           -4.82617965800088       -1.39228978090841        5.46901303780036
C           -3.67144193418464       -1.98914944386360        5.67265433266067
O           -3.75568638935321        2.07705011038914        5.52067969627343
O           -2.94192434743730        1.91263938797883        3.01658762327703
C            0.21273512614467        5.50086066357994        2.34765104514621
C           -6.06660304520411       -2.17604633098929        5.80641622556876
H            1.41756699010566        4.38133362238595        4.66974005703471
H           -1.82880610647429        4.11982501512100        2.06992133318584
H            3.26888037378556        0.32655662585251        6.31721410015598
H            0.87146188387207       -3.08471526305024        6.57830423410869
H           -3.67716811065157       -3.05999292755990        5.83019634570050
H           -5.77379677507622        0.43595144608221        4.71017130754348
O            1.34459852619901        5.82615848916894        2.44941456579099
O           -0.74718748219123        6.07961784856304        1.59848183464284
C           -0.21473095568964        7.24015934882472        1.05753806029483
C            3.53228080814219       -2.00967610361154        7.02506769044485
O            3.64093082622715       -3.14437803815732        7.50071391725347
O            4.56565258381079       -1.22937033368332        6.69086985080897
C            5.72579357310716       -1.80692399125161        7.22246151275881
O           -7.04801223588612       -1.95726935745904        5.14194115322235
O           -6.01514389321278       -2.93743591896022        6.94765316328794
C           -7.21292732384718       -3.62681918543340        7.15115816329978
C           -4.95459780685163        2.65960679932188        5.86868674392943
C           -3.68284113682406        2.59129188358641        2.05479246020704
H           -7.43119628931628       -4.22607794725959        6.20622607140901
H           -8.06548455146707       -2.91765848248592        7.29781126410398
H           -7.07314693247270       -4.33087306029711        7.91223421050944
H            6.57332189837178       -1.29353136199234        6.78341268688262
H            5.74663761932316       -2.84282155125561        6.88089468184451
H            5.69426191474290       -1.72781984964892        8.29460302186842
H           -4.10481209541493        3.44288266176275        2.60483747673152
H           -4.49244774344916        1.87419893016926        1.82433103764650
H           -3.18901540870812        2.85154642679373        1.06781919454921
H           -5.55414326821421        2.76698137191684        4.93950725322359
H           -4.78658370641210        3.62090640967288        6.25983200635257
H           -5.43485580473958        1.97242995129449        6.65265772412460
H            0.89164886030839        7.38838561720231        1.13776105146914
H           -0.62894889903848        8.04195665205089        1.64837664327952
H           -0.59282546386754        7.45699159724320        0.03719083132488
116
 energy: -22.725018549111 gnorm: 0.487791169550 xtb: 6.6.1 (8d0f1dd)
C           -3.19933203683767        0.28589983572229       -1.49328823036313
C           -2.43018498873893       -0.59321090921116       -0.63768882848463
C           -1.52890320084878       -0.09859754452748        0.35547043390522
C           -1.22004454217274        1.27373380243610        0.30357763804938
C           -1.85613615410674        2.04367557951558       -0.68878199398596
C           -3.05515481209397        1.66574265019725       -1.30175846251742
C           -0.79063771686396       -1.02845367807691        1.19689774839512
C            0.44309329331651       -0.52972075379045        1.66343736967453
C            0.68570689658959        0.88409809260615        1.57914069572285
N           -0.17429494296802        1.80207712825025        0.96320241566750
C           -1.19429538115287       -2.22205816759009        1.97807407164757
C           -0.27822568651532       -2.91103501680104        2.80297820912264
N            1.02937326362501       -2.46828975260958        2.97070504902054
C            1.38224576475637       -1.31915139924657        2.44485367964944
C            2.69074434173491       -0.86620068680445        2.76959619547999
C            2.99750430957363        0.46014475063562        2.50122596036167
C            1.91607140249837        1.33768179013774        2.11250204682544
C           -2.55681985617286       -2.37169728375818        2.08144757159243
C           -2.94728044502289       -3.50969885278219        2.79287339688243
C           -2.02600813211735       -4.42250282399666        3.50343910436597
C           -0.81129948620016       -3.81317043413952        3.66270747776375
O           -3.47699156345688       -1.41084996712464        1.64618761433034
O           -2.68667381254381       -1.92620016417219       -0.89945884862212
C           -3.89115249096240        2.85307268297917       -1.80259198430462
C           -2.46184916375134       -5.67439115022495        4.07398437605379
H           -1.59055364409016        3.09127131818733       -0.72590117907369
H           -3.88734196384388       -0.41023628172529       -2.07258587402566
H            2.07766283135232        2.33798498976381        1.84221037430679
H            3.31867595824493       -1.53369872763370        3.27791755551355
H           -0.37864113450764       -4.21740992565783        4.63645442898707
H           -3.93225413211815       -3.76433193401321        2.63481301622664
O           -3.23921018247614        3.71916658769779       -2.32971337818323
O           -5.15175161407145        2.99432418868121       -1.29979824413687
C           -5.61882689373174        4.32011779525521       -1.64826787359266
C            4.28661421037262        1.05915821166111        3.04602619665616
O            4.82885927834069        0.54555945040132        4.01707631300683
O            4.59154182225991        2.30084378960198        2.57838910138735
C            5.41191039084319        3.04315609000146        3.50747989595626
O           -3.57263569982325       -5.79092394617861        4.64304158426643
O           -1.62445666845223       -6.75566668641443        3.90942334575632
C           -2.22370439109630       -7.71406721192362        4.67403704969933
C           -4.36901206380064       -0.94954605034061        2.66338261218145
C           -1.53564135081420       -2.42481897978430       -1.50596256642691
H           -2.39725520464666       -7.29889428549625        5.58712390804482
H           -1.59220657704463       -8.56084488318722        4.70490168974804
H           -2.99796725714423       -8.18760800623095        4.18980398372475
H            5.94772193730992        2.44820935448575        4.20043176630661
H            4.77911451013859        3.80990246129551        3.89980935362131
H            6.11213521128694        3.59430045356154        2.83799701549496
H           -1.53452836698628       -2.52873638169658       -2.54341275454366
H           -1.27594888930323       -3.38358984123103       -0.91135198240357
H           -0.67003385894499       -1.85077185494603       -1.58346793489184
H           -4.97509264417784       -1.93602215782496        2.52519519274280
H           -4.88074974214096       -0.01217060125650        2.37957594558636
H           -3.93835437573571       -0.76341256300831        3.67210595123105
H           -6.56954409006430        4.20664432666723       -2.21961225905878
H           -4.89504339533238        4.89050450208590       -2.18591100343411
H           -5.92117488299308        4.89008450932457       -0.88997015483931
C           -1.64667390885641        3.76734526905783        2.98831227482825
C           -1.97593973221139        2.59768330067235        3.68744186564291
C           -0.94451272011925        2.18714741792973        4.71519803832613
C            0.36834009652871        2.73227101492899        4.66818262419004
C            0.56930973824845        3.89997352947864        3.95066765042650
C           -0.48182196227949        4.51938620548433        3.30691325060708
C           -1.05599752372044        1.13384795132500        5.65521630081638
C            0.13195401557965        0.29774036691496        5.87993868868966
C            1.40219171731530        0.84582252284111        5.56337553586141
N            1.52205423884875        2.09419039124439        5.20264057327713
C           -2.38903542865276        0.59432351299781        5.88769261607564
C           -2.43324181035497       -0.68471856686019        6.43066935619200
N           -1.34314545614678       -1.30804529845346        6.91055599740795
C           -0.07127615122890       -0.88128090771703        6.56566373075115
C            1.03582061561004       -1.62960030674823        7.07108879472306
C            2.24911691694645       -1.04178653767621        6.85313102969967
C            2.47273230037700        0.09084125365430        6.10311690074014
C           -3.53620079491847        1.38699636027225        5.76212402505692
C           -4.80975810153475        0.75651690618446        5.71146055803396
C           -4.84658505192166       -0.61302550256756        5.90415288480370
C           -3.74696192373992       -1.39396037257411        6.34632555663708
O           -3.36123069517906        2.81824791758629        5.98200840520890
O           -3.03979571122512        1.77860311615857        3.16043922098360
C           -0.24371405832164        5.83782448078176        2.63621075040258
C           -6.05820990330681       -1.43007112524665        5.41555629446286
H            1.45510750172475        4.55475824779835        4.16827578986990
H           -2.25740257788563        4.06020468604084        2.20922153677152
H            3.62461439107318        0.39898500781335        5.90606764282554
H            0.93557534234835       -2.41884276323737        7.68841107223190
H           -3.82655055158739       -2.46868728097185        6.25925155875058
H           -5.69296123842873        1.27125229564363        5.34027526464283
O            0.88691056393970        6.25563784126665        2.77355344012867
O           -1.22911034197706        6.42619879769726        1.87246847693953
C           -0.75436769643577        7.73968234050250        1.73485110947264
C            3.42167572741234       -1.61108466042383        7.58257181530905
O            3.34146138352325       -2.61998850723952        8.26054571384651
O            4.55223414926270       -0.77345681204788        7.55498580545500
C            5.41166796631154       -1.11248383342778        8.63469722508324
O           -6.97167435365200       -0.72772238296016        4.90961891970606
O           -5.97050528972858       -2.78350348073666        5.42479762848186
C           -7.05536196309060       -3.34948648050516        4.80312984249282
C           -4.54302867630144        3.51239074315324        6.36270884897839
C           -3.68734746097375        2.07728011617762        1.91868746899886
H           -7.81687051930621       -2.58896319678279        5.28731728875530
H           -7.51051282062158       -4.21275417007135        5.18672074625591
H           -6.81947943970037       -3.14252629598684        3.71912534269912
H            5.73591372288373       -0.29980498444491        9.06994060672635
H            6.31344579735575       -1.62900008828771        8.17513757445360
H            4.99336268602826       -1.77156138161377        9.43831897948725
H           -4.69221863242023        2.62899283531972        2.00545645001215
H           -3.81022991921799        1.20090483839187        1.41209157225650
H           -2.90317195174468        2.58336420929601        1.32375121980113
H           -5.28929677692779        3.35795062310914        5.59127039960234
H           -4.51989817019915        4.66979301523733        6.43911991681230
H           -4.79115164400101        3.05876586861186        7.24870505017803
H            0.26739762562250        7.95358094436262        2.20212189449483
H           -1.61157474622921        8.32447837710753        2.11696159669732
H           -0.74092505633419        7.76678610977728        0.65411323742591
116
 energy: -22.759855419499 gnorm: 0.454800985701 xtb: 6.6.1 (8d0f1dd)
C           -3.18546228235080        0.47695664331016       -1.04294526378518
C           -2.38293397759763       -0.43441048659561       -0.26378999683097
C           -1.50186584549423        0.14606248480108        0.68709140260200
C           -0.98684829389392        1.41034532146884        0.45837142076187
C           -1.67139662717852        2.28691467477073       -0.36890462305435
C           -2.78253628582115        1.85306685249125       -1.06413387066661
C           -0.96227829659842       -0.43890837129320        1.92600033601464
C            0.37227878746951       -0.16452129617442        2.25356278381731
C            0.92820718267778        1.06913017654745        1.79234694904769
N            0.22189607567421        1.82548115134839        0.95947916303931
C           -1.43553174304990       -1.65532614960506        2.51742055178189
C           -0.45692667136709       -2.55291765104864        3.06331141940035
N            0.86420765172385       -2.26237071334290        3.23708198685338
C            1.26446521625471       -1.04544586925938        2.83153782932511
C            2.62300429300301       -0.71068777596426        3.12637624579054
C            3.16160658054619        0.44193928427723        2.69393198538494
C            2.31270863211224        1.27078478710470        1.96689967846668
C           -2.88132461968308       -2.03704926614447        2.64647683207573
C           -3.24162660293899       -3.30340025579500        3.05712115022346
C           -2.22897993716239       -4.19323661557744        3.38320519497677
C           -0.86832046559809       -3.82353911740272        3.42115021090200
O           -3.78814798384863       -1.11007055467980        1.95864642468613
O           -2.46480925996295       -1.72193924463496       -0.59529264138182
C           -3.64178022275204        2.78867736700166       -1.86451092874523
C           -2.58409401987325       -5.61496278121977        3.75548949892585
H           -1.26529544198696        3.23629254801080       -0.46210704639703
H           -4.03918706663842        0.18680819386134       -1.77134291504074
H            2.65416817628595        2.21985108617736        1.62250216083357
H            3.17501783177431       -1.30109059638952        3.88349946838501
H            0.04793204533591       -4.22761013219693        3.96298789642851
H           -4.24530000619686       -3.68897624928142        3.08827630320610
O           -3.11127478244938        3.74117126008096       -2.48156128644980
O           -5.05591564958443        2.32230335386028       -2.00935528296341
C           -5.61332798702837        3.02433327746852       -3.13311109119650
C            4.42395973390698        1.09402772633057        3.24064889393714
O            4.73921320772728        0.79066057146850        4.36102999368271
O            5.08223888194278        2.07924666980356        2.45655152177608
C            6.31862931371283        2.43098543207292        3.01470256070611
O           -3.68723153286485       -5.98750963101620        3.54973300699844
O           -1.44993269616067       -6.22151221185525        4.26962322033962
C           -1.83241319285297       -7.51535916953994        4.75534717786317
C           -4.97825841003806       -1.09924722788194        2.74663077513579
C           -1.21712614550744       -2.32266476484534       -0.67447620685833
H           -3.01628017552768       -7.58933752923928        4.67166693588046
H           -1.33226034430940       -7.59487506359563        5.77739519225875
H           -1.49913151152088       -8.32590571311395        3.99823276820860
H            6.96980433432477        1.71779217546892        2.51664000710232
H            6.28480226386441        2.27112933022514        4.12255070451917
H            6.66617101660227        3.33976360831295        2.84789373405952
H           -0.58988447050349       -1.42392362319745       -0.84909499689471
H           -1.43960821458275       -3.02706942185231       -1.50934222412851
H           -1.19205952509774       -2.83609107956585        0.27349501851527
H           -5.46324837549938       -2.02354214683196        3.09970299800415
H           -5.82597950041771       -0.68214637643400        2.20620664286992
H           -4.70292487269892       -0.42729077050558        3.54787489996040
H           -5.25709891118995        2.70314650932947       -4.00950184610514
H           -5.40615351187460        4.04734039081959       -2.94415152938083
H           -6.67386476347886        3.02217191351825       -2.99091379503834
C           -1.79646542492790        4.17509017531365        2.71231461593691
C           -1.96018542508706        2.97391164211214        3.27272654805908
C           -0.97948066416693        2.48733482928845        4.25246110986001
C            0.30924795019372        3.10341901666964        4.37286376366848
C            0.36353673500069        4.41117107663733        3.90460582754359
C           -0.61394677741330        4.94418167229473        3.03049568208833
C           -1.23324996873156        1.30340554859576        5.01595927969585
C           -0.06680579637534        0.69334494923835        5.51511460929359
C            1.18823948783246        1.35111256053478        5.63669042412728
N            1.33791725679737        2.56183264730263        5.07439322287271
C           -2.40039960827580        0.47591129178384        5.27544211409249
C           -2.27806948150000       -0.92991567345246        5.53540342860607
N           -1.18528693147311       -1.43053369924388        6.17811750329461
C           -0.13151019976050       -0.60032793918510        6.19050546329364
C            0.89673960333933       -0.99280127840687        7.08590426216024
C            2.21642048846424       -0.42896932827980        7.00104144655581
C            2.31243233899668        0.70709225438664        6.25180591506641
C           -3.74321608938209        1.00450078534576        5.37172048300841
C           -4.85373692414656        0.19953206506543        5.72814502780879
C           -4.71208993325563       -1.19090288398530        5.91377885829780
C           -3.39497916830069       -1.67425272961902        5.85009571022433
O           -3.82380955423376        2.40945365658607        5.40841497508272
O           -3.03254438010911        2.23731073867063        2.95897369575228
C           -0.13397518161071        6.27510159049702        2.60993588880570
C           -5.85414784467507       -2.06105451406424        6.07731870603870
H            1.27040536092320        5.05540431836321        4.21591771886502
H           -2.41308974336203        4.54549515988203        2.00358850790011
H            3.24406778133055        1.28207772962239        6.46585393639954
H            0.90117534039144       -1.88189257462990        7.64610973708995
H           -3.23423780126752       -2.61574876341405        6.29775425507413
H           -5.79936159817438        0.66163739359670        5.74375543037335
O            1.01949900108574        6.58320545213887        2.97693989315444
O           -0.88757824459632        6.98317106224556        1.71307980177679
C           -0.08931943077864        7.95619025931373        1.12988640763652
C            3.10180539457393       -1.57972925545685        7.41141971506113
O            2.80704092568604       -2.65475858144672        6.78185883693708
O            3.89021716014216       -1.50745406194005        8.57532362619318
C            4.69267790687517       -2.64812277638270        8.66022107847237
O           -6.27047742896971       -2.28355480693532        7.25467682932412
O           -6.35076864710793       -2.73473571097412        4.97823756643500
C           -7.24434779408896       -3.80299180091354        5.46999466857737
C           -4.39293169703948        2.90987648110428        6.67519334219460
C           -4.10719857439693        2.75933615422265        2.09201399360383
H           -7.76766908603658       -4.25963275441782        4.73493460018635
H           -7.79927240650036       -3.55901518584595        6.39115651286851
H           -6.55810793476213       -4.49310964709195        6.07955082254584
H            5.06937540571883       -2.67924253759440        9.63410122775423
H            5.46963293665174       -2.60199342158980        7.82506588683689
H            4.00302407094299       -3.41072195030879        8.56186863039471
H           -4.94015493322587        3.01845128129887        2.78368333685613
H           -4.60836068257738        2.00666125716595        1.46477852757811
H           -3.85655685083689        3.64313076608673        1.42675003016619
H           -5.26279215775524        3.55055777727874        6.51399148299253
H           -3.55772641322713        3.48951308004153        7.37205619484086
H           -4.69443837883875        2.05315247411795        7.17878708029610
H           -0.62707375631361        8.91607687085842        0.84400131937851
H            0.51502258249406        7.46458753349130        0.28568594439596
H            0.63366768166521        8.22932514379869        1.84144711654429
116
 energy: -22.785288272124 gnorm: 0.508930857117 xtb: 6.6.1 (8d0f1dd)
C           -2.81944063101056        0.21521795306571       -1.53364695672581
C           -2.12113998863625       -0.66570178437960       -0.69452154480532
C           -1.14723602120548       -0.15780108699091        0.28733628238242
C           -0.74736571283566        1.15018002100514        0.12118119013915
C           -1.59944446683282        2.03531115273208       -0.57928890597901
C           -2.64873134750845        1.59471989405005       -1.43369163425091
C           -0.56174556056682       -0.84436430366322        1.48178328377787
C            0.61886724117491       -0.27396981736981        1.94944539871618
C            1.17406426096429        0.94090866089664        1.28102609609140
N            0.33789962267641        1.79696431928242        0.58693941735309
C           -0.99740774383376       -1.93294147534544        2.26772333106301
C           -0.13111426556133       -2.58867362778303        3.21970483207630
N            1.07528740801902       -2.04757026140945        3.45520007490772
C            1.40870773264503       -0.88240548318297        2.95967437744593
C            2.66281946514119       -0.43488480470785        3.20978469798262
C            3.16252845036329        0.71839808438757        2.59020260859256
C            2.44204506221216        1.36561362571502        1.65520848203220
C           -2.42927828933300       -2.15027772175455        2.37415599413819
C           -2.91993621124019       -3.12558020429263        3.13325524119679
C           -2.02564047217763       -3.89474740309661        3.93477166758018
C           -0.64266164260760       -3.51905702609812        4.06748566210150
O           -3.20444978616603       -1.26904396508717        1.68757288525352
O           -2.23533322377607       -2.14370462086002       -0.74439529849753
C           -3.47492812617175        2.58881416235363       -2.06898205380238
C           -2.47050979145317       -5.05843067119549        4.76954751351761
H           -1.36489490445990        3.04744839401447       -0.75878921463834
H           -3.62005202272981       -0.22857226911771       -2.22823811749503
H            2.81918477513497        2.29490762757300        1.23127291193162
H            3.31063203291371       -1.18065401130214        3.76332936860382
H           -0.08437381352365       -4.08220611011615        4.82056466132607
H           -4.00260294646672       -3.29995707850275        3.29486049195280
O           -4.09186061727161        2.19621576270520       -3.05512880492275