116
 energy: -22.928061455056 gnorm: 0.329736929581 xtb: 6.6.1 (8d0f1dd)
C           -3.31122850772930        0.79849766164622       -0.92477639677520
C           -2.44380812530352       -0.12270372891954       -0.27661132624697
C           -1.41337090092821        0.39579727573559        0.56335275196199
C           -0.89266158675590        1.65801491088749        0.27377586709581
C           -1.72665675402493        2.51431363229076       -0.49448366572522
C           -2.95444148494349        2.13954154133227       -1.01494489940871
C           -0.74098268209890       -0.43411532818871        1.49825021926784
C            0.56872586496315        0.03782116815119        1.86248088067890
C            1.03782416582094        1.29402317993033        1.50887470833621
N            0.31238977034758        2.07067427098208        0.65193736800696
C           -1.29695700510141       -1.39996043042223        2.41574187746061
C           -0.38243517664656       -2.18060797534842        3.13232615520648
N            0.91308504082021       -1.90366887689689        3.30325166013478
C            1.37712470144904       -0.74872102533751        2.81811050966982
C            2.52149331701875       -0.17739833758153        3.39379298866852
C            2.95849061756259        1.02681208890480        2.95105897606587
C            2.24288949469137        1.78498308775960        2.03503020483770
C           -2.74860936222260       -1.74497937691422        2.38401158947411
C           -3.09416315450955       -2.91614440870436        3.00571134491758
C           -2.16786021984049       -3.77788778654213        3.63251872101904
C           -0.85708937311598       -3.40495313382985        3.68547234358092
O           -3.71994433332149       -0.94984598373544        1.67726658385724
O           -2.55702603277562       -1.47241711578389       -0.57241635275616
C           -3.84297843593025        3.13357444054366       -1.60938954875544
C           -2.68769581069131       -5.03867041417370        4.30484659386931
H           -1.39666850744143        3.51251503834900       -0.76806311868865
H           -4.27662633836220        0.55105838579656       -1.33106614114542
H            2.66329581305412        2.73912661909249        1.72562431984580
H            3.05775395548473       -0.69369546277216        4.16536137542516
H           -0.24710966264510       -4.12034095424229        4.22946223699121
H           -4.11477991332403       -3.04712728052358        3.03244694615357
O           -4.21824883374556        4.03433712717988       -0.87713382485991
O           -4.44510595673734        2.90643496899600       -2.81853501752979
C           -5.44216520282800        3.83300025693726       -3.02488532025093
C            4.23586651889298        1.50004220933226        3.59165660008449
O            5.05927614697201        0.66079890002952        3.91714215179376
O            4.47001334453535        2.86385149488593        3.72605651435371
C            5.79457498613219        3.08584475587818        4.15829123132174
O           -3.82227255313510       -5.27347675879771        4.16636005494405
O           -1.85023202017753       -5.79767454267276        5.06656077253571
C           -2.55119635829503       -6.86252441382958        5.62930343183426
C           -5.07197156564436       -1.42399175670916        1.58830531863830
C           -1.33089900128490       -2.23622472573986       -0.99264499351172
H           -2.54510546830388       -7.76426885143998        4.99136022291012
H           -3.57194749219491       -6.44405511486021        5.74196173723541
H           -2.09133598235598       -7.02043774843818        6.64022264233588
H            5.72707967266424        3.46798026205549        5.10135971236643
H            6.34060091246885        3.78468702308830        3.50069950143490
H            6.17933064298187        2.03010500085905        4.19342358084693
H           -0.91862729772622       -2.57650129080332       -0.01361370304871
H           -0.49769766914251       -1.60651221708571       -1.34094446550576
H           -1.52632419730509       -2.94569707152159       -1.75361447637286
H           -5.11788846557077       -2.41810833635233        1.17520213188926
H           -5.67929807973498       -0.69619639428435        1.04301666067831
H           -5.57598832326623       -1.42383358739762        2.57928294206544
H           -6.13050215934830        3.76035386975488       -2.23272855695873
H           -5.86615610071888        3.45938329385866       -4.02668959924245
H           -5.13479557532099        4.87790991548477       -2.98314551356402
C           -1.38192942069774        3.73616555005018        2.91232598411686
C           -1.84821468128685        2.59982427735607        3.49755545445181
C           -1.05946531454833        2.05730632010638        4.60922730982276
C            0.19893954712228        2.69376791964407        4.86302140881997
C            0.50425395911860        3.94630308659851        4.28768785650746
C           -0.26031777722226        4.46998310053134        3.25072669343212
C           -1.20488993561782        0.74454293276906        5.14851520323437
C           -0.06287609782692        0.02744069315890        5.60930570802864
C            1.19208754369866        0.71421540266195        5.78882868583885
N            1.19428660993148        2.06344359410476        5.62744624321596
C           -2.41361422770794        0.07928500213936        5.25249410304426
C           -2.45851584031083       -1.32662100968547        5.60237876023992
N           -1.29466212405906       -1.98318595734370        5.89916817085159
C           -0.14475655767527       -1.32117560077092        5.98824682881008
C            0.97209270935794       -1.98958449505532        6.53157704134458
C            2.21982707914082       -1.36973967291181        6.68703967237737
C            2.30561929262884       -0.09745313075593        6.26436900324455
C           -3.73018485967715        0.71367583494582        5.25810242262992
C           -4.89964478833448       -0.06184623426677        5.21204641615509
C           -4.82617965800088       -1.39228978090841        5.46901303780036
C           -3.67144193418464       -1.98914944386360        5.67265433266067
O           -3.75568638935321        2.07705011038914        5.52067969627343
O           -2.94192434743730        1.91263938797883        3.01658762327703
C            0.21273512614467        5.50086066357994        2.34765104514621
C           -6.06660304520411       -2.17604633098929        5.80641622556876
H            1.41756699010566        4.38133362238595        4.66974005703471
H           -1.82880610647429        4.11982501512100        2.06992133318584
H            3.26888037378556        0.32655662585251        6.31721410015598
H            0.87146188387207       -3.08471526305024        6.57830423410869
H           -3.67716811065157       -3.05999292755990        5.83019634570050
H           -5.77379677507622        0.43595144608221        4.71017130754348
O            1.34459852619901        5.82615848916894        2.44941456579099
O           -0.74718748219123        6.07961784856304        1.59848183464284
C           -0.21473095568964        7.24015934882472        1.05753806029483
C            3.53228080814219       -2.00967610361154        7.02506769044485
O            3.64093082622715       -3.14437803815732        7.50071391725347
O            4.56565258381079       -1.22937033368332        6.69086985080897
C            5.72579357310716       -1.80692399125161        7.22246151275881
O           -7.04801223588612       -1.95726935745904        5.14194115322235
O           -6.01514389321278       -2.93743591896022        6.94765316328794
C           -7.21292732384718       -3.62681918543340        7.15115816329978
C           -4.95459780685163        2.65960679932188        5.86868674392943
C           -3.68284113682406        2.59129188358641        2.05479246020704
H           -7.43119628931628       -4.22607794725959        6.20622607140901
H           -8.06548455146707       -2.91765848248592        7.29781126410398
H           -7.07314693247270       -4.33087306029711        7.91223421050944
H            6.57332189837178       -1.29353136199234        6.78341268688262
H            5.74663761932316       -2.84282155125561        6.88089468184451
H            5.69426191474290       -1.72781984964892        8.29460302186842
H           -4.10481209541493        3.44288266176275        2.60483747673152
H           -4.49244774344916        1.87419893016926        1.82433103764650
H           -3.18901540870812        2.85154642679373        1.06781919454921
H           -5.55414326821421        2.76698137191684        4.93950725322359
H           -4.78658370641210        3.62090640967288        6.25983200635257
H           -5.43485580473958        1.97242995129449        6.65265772412460
H            0.89164886030839        7.38838561720231        1.13776105146914
H           -0.62894889903848        8.04195665205089        1.64837664327952
H           -0.59282546386754        7.45699159724320        0.03719083132488
116
 energy: -22.590531245845 gnorm: 0.572354341707 xtb: 6.6.1 (8d0f1dd)
C           -3.16436499940958        0.41732073185839       -1.74548831511588
C           -2.52194673394790       -0.28114337254522       -0.67082462973279
C           -1.66598335491561        0.25627315414525        0.31411056962715
C           -1.22924691436730        1.53866736718430        0.02047598021191
C           -1.82667189472327        2.24012098567422       -1.01255417283232
C           -2.85351707617638        1.81480362829145       -1.70111272050219
C           -0.97454889941944       -0.45008389422631        1.30413891553826
C            0.17380638998449        0.02959338642420        1.87789723144109
C            0.71316425662627        1.14199798675046        1.32812371110438
N           -0.03922412309835        1.93512789626427        0.31647657414990
C           -1.43710331340055       -1.59675918551597        1.98776794871589
C           -0.57931782175049       -2.24580630414150        2.91731617004743
N            0.54915159000067       -1.84407956518368        3.47464799162739
C            0.91189461561073       -0.73326022235812        2.88809460116285
C            2.20914730412593       -0.23803404732637        3.23511607612960
C            2.61488043994346        1.00573826096399        2.63978482332757
C            1.81263919170362        1.78110690340923        1.86757782759870
C           -2.80974369218854       -2.05392959141868        1.97460997495389
C           -2.99209887809953       -3.26925300748944        2.64029237277965
C           -2.16110507454862       -3.91652229258172        3.51691367466748
C           -0.95038481498507       -3.40311767685779        3.58579755074540
O           -3.80065368212471       -1.07173360235262        1.60137108876098
O           -2.23901255489239       -1.73705362814745       -0.79237551032502
C           -3.48845278197663        2.74472951328131       -2.55305316008142
C           -2.45723398037908       -5.01718803379054        4.34694810787536
H           -1.48054571433823        3.33615761625310       -1.14066942604105
H           -3.81161531798961       -0.09602945615783       -2.35490197473832
H            1.98774656975143        2.80160145280068        1.66236531772893
H            2.78425893876432       -0.66091383488542        4.04311894465500
H           -0.26057360698769       -3.85207545611600        4.26605917630028
H           -3.99755961213244       -3.73027518913132        2.42844829704358
O           -2.82936818142800        3.67157167686611       -3.06932930500846
O           -4.91169797797754        2.55204434295745       -2.73854921132758
C           -5.57185907300512        3.64021291817045       -3.27914797574916
C            3.80129984495242        1.75270126526357        3.20598036455657
O            4.20961575161826        1.64179516598987        4.35902164332964
O            4.39046811488879        2.61127289702177        2.23912176959972
C            5.42774989913983        3.49992316230219        2.76276577393678
O           -1.47369652785272       -5.58125053505196        4.76294169972673
O           -3.76241892150242       -5.33854882727775        4.78669025502297
C           -3.52843945002268       -6.48032614769693        5.58155808678359
C           -5.16588475006320       -1.69170519868607        1.74247791602695
C           -2.31241193017104       -2.14607809854051       -2.17629892606899
H           -2.33113516825197       -6.47990448146038        5.79451381510735
H           -3.77898335890202       -7.36971653355555        4.94036832294606
H           -3.98833821347646       -6.46305918171234        6.56621906753161
H            6.12756063190741        3.34204844534554        1.98614654575792
H            5.93139303544206        3.13415116741415        3.61710760683202
H            5.14951803535585        4.43445629899279        2.63931616163253
H           -3.27693100024916       -2.40907817109153       -2.69849848361283
H           -1.42005363453489       -2.71517426711087       -2.28756024039947
H           -2.02581580347627       -1.34511043421167       -2.74308050928118
H           -5.40359330169684       -1.76959022478736        2.88750192265329
H           -4.96139771432641       -2.74727347340062        1.52086804426365
H           -5.78059203899013       -1.22873066404194        0.96489308242673
H           -6.57038549768553        3.77830491033285       -2.88785301779994
H           -5.62451613548964        3.32686108231549       -4.27506297815797
H           -4.97072698370496        4.76761585950866       -3.19464543907141
C           -1.48725965493517        4.02107713293007        3.55769780441694
C           -1.91527001658123        2.97978456608014        4.33678114863230
C           -0.98527941121288        2.36529735422981        5.29084852203497
C            0.31873660263195        2.87511241899446        5.16320572277263
C            0.66716639683743        3.97113388462194        4.44049545759455
C           -0.21683223645195        4.62523217227037        3.69064220910687
C           -1.07015636090156        1.16052820529484        5.97743535432691
C            0.12934947602809        0.35174014983279        6.18414602497853
C            1.29070468487461        1.06495866844825        6.21289629429679
N            1.33067408813499        2.40579100115194        6.09390014847278
C           -2.30342967175132        0.46122858673691        6.34351485735143
C           -2.33435731841178       -1.00712156957579        6.42390686554614
N           -1.15806535445063       -1.50620145519013        6.74613224397102
C            0.10364369611335       -1.01406726867995        6.63861064532956
C            1.29903868912252       -1.69738915556105        6.95803184622034
C            2.47870886357771       -0.97904005807351        7.06812914999332
C            2.52827611627505        0.28420352848428        6.54952025908787
C           -3.61396364350222        0.97499606698893        6.43736640861982
C           -4.66048352525507        0.15171938176024        6.09227985733106
C           -4.58876059679703       -1.17580507104876        5.61001528807516
C           -3.45718719026895       -1.78432846394751        6.03722482366453
O           -3.90438235528094        2.07003500470112        7.14053620722460
O           -3.18532631758509        2.49176793148823        4.09280257506884
C            0.43968783258734        5.62615709642394        2.75239859295634
C           -5.83897607439833       -1.80359502325338        5.21083311168159
H            1.61596443400695        4.37446252158515        4.72705630561719
H           -2.16922427048363        4.52779873416982        2.91064075834263
H            3.39679027326123        0.89032009437554        6.91818483868961
H            1.55134442752697       -2.70547663844327        7.08057529504384
H           -3.23061129247573       -2.81869760313513        5.60817510631178
H           -5.61055701733921        0.63340151966855        5.95638941645842
O            1.67782524119610        5.74853334591357        2.69183329120314
O           -0.46561202319544        6.53381706037883        2.07085783190441
C            0.36859352312011        6.71968888524042        0.79034058502990
C            3.69822200987224       -1.71933768859574        7.46900202725128
O            3.45646259278027       -2.68413783496191        8.21818932509205
O            4.86182829241744       -1.45173812089863        6.88640479451073
C            5.68538784061919       -2.35668068152856        7.33802269386539
O           -6.95567826277002       -1.29489198332667        5.17042062713028
O           -5.91479279415158       -3.23034073916686        4.97247396604653
C           -7.18835772698489       -3.52202051501984        4.35532423295097
C           -4.52783137999496        1.66778211248619        8.27858493909049
C           -3.13989157212822        1.42679402815168        3.05322346936383
H           -7.80756953177198       -2.72496446114979        4.80063645044864
H           -7.41484648199727       -4.62707919468752        4.55475860809567
H           -7.19209017261980       -3.20106273943834        3.33489355839288
H            5.17180993064637       -3.08961996322942        7.78113624308198
H            6.36653186723366       -1.75818033141814        7.92582060469698
H            5.91210323087909       -2.75322896701059        6.31258746633696
H           -3.60292740275889        1.79321361742139        2.16906762439112
H           -3.75644211732450        0.58086302898566        3.45770596352519
H           -2.02876585541098        1.02912819916363        2.89579431215973
H           -5.69236476397282        1.93767058972556        8.17169135426188
H           -4.19729038027465        1.94469410916457        9.39531902197386
H           -4.59363679575581        0.56621536330281        8.43066420468013
H           -0.12079186166492        7.02150158864797       -0.15282141547106
H            0.81695620970238        5.78535160799093        0.44865534674573
H            1.12178127954595        7.48889270386227        0.74742874352890
116
 energy: -22.605140766228 gnorm: 0.547484592939 xtb: 6.6.1 (8d0f1dd)
C           -2.94788154198891       -0.29364638541175       -2.06962982719142
C           -2.30765215703271       -0.72355116610704       -0.92191813982553
C           -1.34526049671674       -0.01530278131811       -0.17217990722475
C           -1.10403301222330        1.23279850049145       -0.60350325745563
C           -1.79741939001564        1.66820079005105       -1.67932188959194
C           -2.88012601938483        1.04899750412170       -2.37197554534160
C           -0.84050477807838       -0.32343833759317        1.11782322447636
C            0.31400376021998        0.30862796303396        1.55200552293705
C            0.64304978896033        1.52288299091404        1.00742122843938
N           -0.20409925497970        1.87045636385356        0.05164164186350
C           -1.17769283977973       -1.53429196139355        1.77926861000265
C           -0.24335193572866       -2.13904086145656        2.63612032784240
N            0.96417216588316       -1.56284495644095        2.90438620976775
C            1.26688186343268       -0.29791597396078        2.45886558807351
C            2.51892670830108        0.29615270069824        2.53501870477225
C            2.86642458464978        1.52661947172349        1.92666722642382
C            1.93000157082167        2.15082504358854        1.09956210726191
C           -2.57728071617405       -1.76035090511609        2.11088215583042
C           -2.98887278128512       -3.03029280202543        2.49589955686983
C           -1.94896868946025       -3.83037215126199        3.00387042758151
C           -0.57994830259268       -3.42751973071009        3.12989601644766
O           -3.38850939288430       -0.68351281855154        1.95218752549475
O           -2.53897522489409       -2.09296462468725       -0.60189197388025
C           -4.08703447258241        1.73386882322883       -3.02155022276216
C           -2.31026610448348       -4.95668015394570        3.90485088217506
H           -1.94844347364595        2.82723751751430       -1.74785905801519
H           -3.47935535052496       -0.95222994205030       -2.73147871274609
H            2.31670883465160        2.98386128383145        0.47471272798857
H            3.14856341084005       -0.22975008909352        3.30230828404652
H           -0.06858006141323       -4.09981024736109        3.82010166853166
H           -4.02850972024871       -3.60218491390174        2.48023916580783
O           -4.25427192386472        2.92393729671770       -2.80435430309760
O           -4.58336690668734        0.95993323947995       -3.95578943091740
C           -5.34133091726461        1.61430347562837       -4.80803145093749
C            4.06280312378425        2.25184935319412        2.59489469733372
O            4.06443035775190        3.28866347685637        3.16277488099899
O            5.25175089882827        1.45568821874546        2.70679147735864
C            6.21942825064239        2.21536686374977        3.37587531657559
O           -1.43388473758788       -5.32782808071404        4.70145677818397
O           -3.48725295806402       -5.41926141229848        3.74841875307125
C           -3.51976077275642       -6.81398560061924        3.99290155905520
C           -4.77562613936788       -1.14767683436751        2.21264163883524
C           -2.95855376806559       -2.92620546202221       -1.57812687014117
H           -2.56186852486364       -7.21902601831524        4.42437823781964
H           -3.85027664530642       -7.07085519670785        2.96674760266130
H           -4.28854075796605       -7.01580798317706        4.67363839173446
H            6.29058487610659        2.07029611647725        4.49718717389651
H            6.14368187065664        3.30161713218199        3.24479777535003
H            7.19429632004181        1.89602366498040        3.07318171851056
H           -2.01046730323243       -3.25301246768815       -2.09936553413004
H           -3.64573993798276       -2.51077578866662       -2.36685987941703
H           -3.38522343413960       -3.81209913812315       -0.99974459855514
H           -4.62961874540915       -1.47967308975250        3.40107781636248
H           -4.92689921846152       -2.08622038348510        1.61014418947639
H           -5.36588801668008       -0.29342334443427        2.09403005573276
H           -6.45102845095682        1.41990913072342       -4.50696160064826
H           -5.23003255162090        1.23940221836540       -5.81746496706938
H           -4.98148796338359        2.57042916802994       -4.74547380964649
C           -1.70987130778919        4.57153443686528        4.40080949362409
C           -1.81971653564301        3.25408441107562        4.57308305453598
C           -0.94952877596948        2.51820294597037        5.47079891818779
C            0.41266465498361        2.93045365690423        5.27275241022037
C            0.67124973522396        4.12881016707516        4.62354537544231
C           -0.44085567105435        5.15619917069659        4.61253213733651
C           -1.08861536744689        1.15215782620262        5.91327939695091
C            0.12814557570814        0.36812622762420        6.11159769271762
C            1.43840140529063        0.95645210771606        5.97764174714173
N            1.47048962245259        2.15511855239664        5.37750556049812
C           -2.42944476890347        0.56541120605244        6.05316289124388
C           -2.41078996404367       -0.92033383132869        6.19890669304147
N           -1.18336842505202       -1.56249514306677        6.48948276966861
C           -0.05386780206715       -0.93006460079844        6.64617332047572
C            1.06282537712922       -1.65292884148005        7.08187534329395
C            2.24441426675052       -0.88905692615228        7.11490451403924
C            2.44329426136079        0.31373109620963        6.60468190407511
C           -3.72359685557842        1.15839529426635        6.08059489275822
C           -4.80084078227149        0.35873210959504        6.13449764297009
C           -4.72759917965156       -0.98067872378274        5.92007859456170
C           -3.57288340929428       -1.71691905703262        6.07466127147097
O           -3.85541643634536        2.44284490106273        6.28374080699899
O           -2.69356826165044        2.53551930915562        3.68908060481504
C           -0.06852215527605        6.58618707237082        4.43057502120178
C           -5.98682943617346       -1.73920248515975        5.89700436937066
H            1.70268344312770        4.55198509062658        4.58288163891850
H           -2.36904135932275        5.06798501153457        3.75117968779420
H            3.45017906196390        0.78820481425457        6.58501108141797
H            1.21018199675159       -2.81430807431638        7.18031439967938
H           -3.47624454413191       -2.80417562503361        6.27406678408613
H           -5.71593950091067        0.72238061358982        5.99177432199596
O            0.57396519985399        7.00415282999335        5.38133541050984
O           -0.29493456682295        7.11206877734398        3.29866854042202
C           -0.08328130211349        8.47695761869778        3.45646735046647
C            3.31593387923505       -1.77010607657195        7.48167808083091
O            4.30726045202265       -1.29879636993311        7.98814322404731
O            3.29935327402532       -3.04820921187751        7.08411704157067
C            4.47664623277455       -3.64791225561319        7.49340753685065
O           -6.99520092500729       -1.31703937733534        6.49091721873213
O           -6.04106226732874       -3.03420531446199        5.29702289783202
C           -7.11908599566424       -3.54691145888397        5.99732901116793
C           -4.34817331736088        2.84194901204452        7.52506832926897
C           -2.22681456870309        1.57159676697468        2.91145002523514
H           -7.42268376397299       -4.07139878976015        5.06777727840354
H           -7.93479040754922       -2.77367183917119        6.00826498849247
H           -6.89299162693135       -4.15346871895322        6.90122964590788
H            5.35128134157924       -3.26848024316559        8.03391662659566
H            4.73066526813386       -4.41192587916203        6.67851870871186
H            4.27899057840700       -4.43707758139015        8.14278459065228
H           -1.12465574529057        1.67724546294851        2.81848995087352
H           -2.82142980591349        1.36952700663037        1.93277051416289
H           -2.52865542821065        0.72157044567915        3.63702351992621
H           -5.38136036543554        2.60402061604456        7.74392197888098
H           -4.29116771057474        4.01520928426362        7.49235502894743
H           -3.69013824940189        2.53911605742673        8.31282098551379
H            0.16601286299994        8.91214397091594        2.50107150728134
H            0.70110119759046        8.63051457979769        4.12988162018797
H           -0.94538695295112        9.06233202308214        3.89379899871278
116
 energy: -22.590678146358 gnorm: 0.559298176062 xtb: 6.6.1 (8d0f1dd)
C           -3.49510522613765       -0.53940160560156       -1.76939960713780
C           -2.82148489984944       -1.27101156939785       -0.74183231805500
C           -1.77480587669815       -0.55176213830192       -0.05957339732625
C           -1.36836655996002        0.66686886492861       -0.61979508041549
C           -2.08020181652488        1.34075552785202       -1.67379026954668
C           -3.20472226806415        0.79919427078390       -2.22031356528667
C           -1.03081390308352       -0.88969833412854        1.09041330188658
C            0.21277317001219       -0.17034177440827        1.30095286773802
C            0.41963594177186        1.13233204918534        0.78385096862921
N           -0.45438303273050        1.57798428442536       -0.09877028600256
C           -1.36195124932349       -1.93554814414006        2.09156958504590
C           -0.24639844945631       -2.64178096857516        2.67841379149059
N            0.96318580480826       -1.96983977162485        2.88320990471263
C            1.09395589966190       -0.75068831890278        2.30476500088989
C            2.24347484616156       -0.01274569958697        2.65243754358394
C            2.51981083627935        1.06239871448352        1.98064943514633
C            1.65676377260415        1.63503694976463        1.03372135821846
C           -2.63241058671440       -2.48768027992067        2.31852996010466
C           -2.73441437545862       -3.62765170881903        3.02662363342289
C           -1.63026268103923       -4.42106303399917        3.33032388165342
C           -0.36212583326803       -3.84337031012347        3.24697004680249
O           -3.78663762738651       -1.60573209009858        1.94337845071263
O           -3.36146863366745       -2.52817294473533       -0.34749858220149
C           -3.65106018316177        1.41701537119631       -3.55222465894231
C           -1.93864849729664       -5.86384572755967        3.70787938068487
H           -1.63317137234203        2.15421850821714       -2.24438559648425
H           -4.05875659370886       -1.11083217021452       -2.60404023309524
H            1.98745044440467        2.68071313244502        0.77732086469641
H            3.07595061096299       -0.45939244624188        3.21963477938808
H            0.47477254067694       -4.23092507118227        3.83590223203712
H           -3.65472541599235       -3.71237004356981        3.69565904490291
O           -3.33964489769395        2.61869968182000       -3.74759920428568