116
 energy: -22.716553279188 gnorm: 0.506600672181 xtb: 6.6.1 (8d0f1dd)
C           -2.94954890496292        0.03986260804331        0.15865913885409
C           -1.78019095960129       -0.70675895628477        0.23241841005270
C           -0.74052086908331       -0.24192348158614        1.11261942451776
C           -0.88853267209557        0.96065137042472        1.90169132099920
C           -2.11056291054563        1.56564347207681        1.75876069104812
C           -3.22283665153379        1.09561934734259        0.99782684900370
C            0.51373308615582       -0.85696199491239        1.21882661038563
C            1.55949105181792       -0.11375404314364        1.66447918377353
C            1.42965113085238        1.23329673655411        2.17327669440186
N            0.22983509977810        1.75985013394741        2.28903047872735
C            0.78228781826598       -2.14929298656867        0.75333229600990
C            2.18212909412485       -2.49892067202042        0.42894706576338
N            3.19554376886284       -1.63943378018576        0.66378764930028
C            2.90266671042436       -0.50038609906241        1.47698262118453
C            4.00512276150385        0.18276988087056        1.97044956669889
C            3.86596394678885        1.42689794970575        2.51998013411028
C            2.56665932928937        1.91332499436876        2.55312064823551
C           -0.19436882559291       -3.28198131105441        0.73155390033479
C            0.23852164535618       -4.53912142868756        0.24055056127897
C            1.58096795554492       -4.72607856021894       -0.14736811599790
C            2.45939649756050       -3.76486201857863       -0.18237735447962
O           -1.31634857433476       -3.14768463912464        1.57713008149002
O           -1.45675107893459       -1.65484439018965       -0.65074764243679
C           -4.23265354900234        2.16738431566620        0.75947764968418
C            2.11252481336682       -6.06995018275158       -0.65952866148628
H           -2.11159322986356        2.55636225808283        2.10923782082728
H           -3.73199437457386       -0.27767293347226       -0.53256248541717
H            2.56343093138912        2.94674571990407        2.96039535310518
H            4.92341923017247       -0.28699571593116        1.82935437343025
H            3.54039530658050       -3.84112808226248       -0.50070070022721
H           -0.25206794288709       -5.47313765398559        0.26230683161027
O           -4.25760287451838        3.28581610117062        1.32862286079614
O           -5.14813074955506        1.75259845527932       -0.14559289772031
C           -5.84186498971203        2.92888704275774       -0.63057816446549
C            4.89762679359555        1.94600061054252        3.41391467782545
O            4.73281024568286        2.95964415624359        4.03996897762249
O            6.10069498604556        1.31741672494773        3.27602370528522
C            7.07434285641681        1.90437623994425        4.04287377049821
O            1.35258803806085       -6.98332374966763       -0.89333653920181
O            3.48132782498260       -6.18280411638028       -0.84458729956513
C            3.84418680736240       -7.52734860678850       -1.03689123338573
C           -2.61112971853095       -3.72034806957442        1.16810284781160
C           -2.48550510987161       -2.27121633064736       -1.61598776122533
H            3.50768017156763       -8.30195742600355       -0.16703396873089
H            4.95297549423636       -7.65962899823620       -1.20748569739711
H            3.37212128468531       -7.87997927485046       -2.00785396078673
H            7.14483688017088        2.89857557131302        4.06975485711593
H            8.14162262510152        1.59202468754042        3.66987983377405
H            6.98030084490293        1.63860700289185        5.08988735411003
H           -2.90098091197324       -3.11578461930571       -1.03028501150679
H           -1.77344706606815       -2.37124394202355       -2.57060058296463
H           -3.42496048464701       -1.69262098492884       -1.83367212444625
H           -3.23961457552723       -2.83724954412478        0.86988073805781
H           -3.06637033526494       -4.39116221941910        1.88621602581452
H           -2.49495797232548       -4.41937889931528        0.35058615042779
H           -6.28710011941067        3.70608696013111        0.00271213025746
H           -6.36016607910654        2.56698030653335       -1.57510916932715
H           -5.15044487157015        3.55274233056310       -1.25298989530066
C           -3.96757547824786        4.96471541819304        6.21579501897337
C           -3.85639118256717        3.76007756470277        5.57953988843383
C           -2.95884773348011        2.80295404203684        6.01912522805995
C           -1.69847272531393        3.26331786189410        6.58827297734803
C           -1.81048766920300        4.53361227507576        7.18940489560592
C           -2.92361207017688        5.30240645872392        7.16714720494216
C           -2.80162032793933        1.46451770957948        5.40813155431427
C           -1.56493720719286        0.83809361967801        5.47752127657751
C           -0.47845768956208        1.57196759687160        6.10105098597294
N           -0.58267307391036        2.74595151824469        6.79957820563592
C           -3.81964781095539        0.60335079182997        4.98687281664597
C           -3.43884758697795       -0.53772393462457        4.18217317555891
N           -2.22489765020422       -1.07670265379360        4.12251873509201
C           -1.25829582821720       -0.47823621428882        4.86705619000979
C            0.06236531138013       -1.00602481959578        4.98163941739007
C            1.11018988529977       -0.17015972954510        5.54198641023625
C            0.82498608991036        1.07869564516995        5.99125557201255
C           -4.94929802213948        0.46776131511108        5.93692034097514
C           -5.91851631511967       -0.25585696512168        5.42955892292754
C           -5.84148724364621       -1.08295983819088        4.32133922857778
C           -4.63001053975836       -1.23494527364771        3.73212099836383
O           -5.18406734168842        1.00060420909917        7.24091288524815
O           -4.77289489299681        3.35872191934896        4.50551033814575
C           -2.51039605093494        6.62707619900978        7.58971925888188
C           -6.81894213012148       -2.21014019952790        4.11383672381955
H           -1.06490096796503        4.97515746522169        7.86904012437795
H           -4.80907549670632        5.60093103685081        6.07667816659627
H            1.67013599168308        1.44076333725917        6.61893486488830
H            0.13175714743763       -1.87801029128625        4.45492277732918
H           -4.59491170619855       -2.09985751672512        2.97920553192486
H           -6.82170702513389       -0.10350279509060        6.03395225635702
O           -1.35195585947710        6.92058976717260        7.82534918032461
O           -3.59622848111813        7.45094162028015        7.83649532389666
C           -3.28989221967773        8.33503938207503        8.82802168221759
C            2.41433698013320       -0.92145327173506        5.41363727809248
O            2.56479514724931       -1.57197657783416        4.46923106340170
O            3.27557025936752       -0.88361546615500        6.54258233367940
C            4.23350459881738       -1.84877603923483        6.25854742795881
O           -6.35081509839692       -3.23076010728875        3.71768648029943
O           -8.14189484261321       -2.06556317772805        4.57738080065788
C           -8.75598940710556       -3.27874780136762        4.98066556820405
C           -5.81161523666868        2.25919768374788        7.42643115385816
C           -4.74224174706814        4.37348787307174        3.57135598826345
H           -9.83406102205210       -3.14056212934841        4.91651485547328
H           -8.46337484448160       -3.56729523095870        5.91162678402223
H           -8.52147803623741       -4.17457943865779        4.26322404009410
H            4.24378002323786       -2.08817971340820        5.13980365810853
H            4.21417878754483       -2.65505373431260        7.04786067816606
H            5.22043321888833       -1.39407362687413        6.28577433838752
H           -3.70604986962351        4.50598778582745        3.27808789265047
H           -4.99455258856097        5.28693667107205        4.11846789863293
H           -5.31857914165546        4.04429407937042        2.74200462516846
H           -6.68398589532687        2.21555481071308        8.21574750410472
H           -6.20993872624905        2.67269854014619        6.53896936181075
H           -5.07468607734026        2.98479655344284        7.73486445959872
H           -3.92799439806275        9.19872080690611        8.71309577156122
H           -2.20346402046902        8.43090452684134        8.71630157521522
H           -3.42867270852722        8.14502755021520        9.95014400502863
116
 energy: -22.576308799356 gnorm: 0.553094390089 xtb: 6.6.1 (8d0f1dd)
C           -2.24829024498176        0.41412892583950       -0.74374446436259
C           -1.06585326730446       -0.23810785714004       -0.77052634917145
C           -0.10228012530064       -0.03858619272667        0.27548335937278
C           -0.25055485833654        1.07711131545670        1.12771815908954
C           -1.54574285163824        1.71260114421871        1.26870579636992
C           -2.52595156411296        1.09134427578807        0.51517422004756
C            1.05085991166793       -0.96466288729414        0.39615451391798
C            2.13739995405794       -0.47104044533368        1.11153756437325
C            2.00741620263196        0.92715708957180        1.53215153719943
N            0.93531021861855        1.65478336223101        1.63387116605572
C            0.97354947999028       -2.44655055816799        0.30566422833375
C            2.24241414133024       -3.04225018081297        0.30564729134064
N            3.36506894128610       -2.42327969491392        0.61381614974017
C            3.23714709824193       -1.24761775063987        1.28351077214970
C            4.40180039842447       -0.63360363821558        1.70664963488924
C            4.51672270687671        0.83634749511204        1.83961744714993
C            3.27110922763010        1.49446444128600        1.89444114365390
C           -0.19655815925966       -3.28384828066110        0.10036956925865
C           -0.06397702090050       -4.65167236483922        0.09455766180424
C            1.24790768105036       -5.22184481969061        0.02466229438298
C            2.40300255185900       -4.42569127438673        0.17263091986716
O           -1.45239942543258       -2.76053553024609        0.33087071576152
O           -0.67064251168245       -1.03431652302705       -1.86848263083498
C           -3.88201698342445        1.61918731313296        0.59587762767951
C            1.31128498715725       -6.72483236592451       -0.00715132896494
H           -1.76733506502012        2.27965273219312        2.06179852142063
H           -3.09705020909352        0.22727192139739       -1.34255443968182
H            3.21252673584406        2.55189260286475        1.88254033583966
H            5.30902974827822       -1.19681694341980        2.05439952114581
H            3.34160644818465       -4.84263256859677        0.03328236049348
H           -1.04679486996682       -5.29470759733524        0.09365878345635
O           -4.31132565444322        1.51518798713602        1.72714031767413
O           -4.46495834994922        2.14462716343222       -0.55760311324208
C           -5.77790577037815        1.87565932438944       -0.31692502515127
C            5.59597693219558        1.70954064728895        2.54106441805415
O            5.08128549991176        2.66988470690174        3.11214448645675
O            6.95462795970244        1.31408857415792        2.58707722579248
C            7.51460673793189        2.47704652622503        3.17094556274213
O            0.21187159777262       -7.29354136933891       -0.27271232898143
O            2.35449321181309       -7.40401233519981        0.32575787622533
C            2.03127621730240       -8.74886643200811        0.34921557150981
C           -2.45373314836959       -3.20036776493660       -0.48167561898284
C           -1.05721315157694       -0.51925045884007       -3.14876000855253
H            1.58469091982102       -9.00051460569233        1.25136880025949
H            2.94274742280611       -9.24302622050360        0.70597015887649
H            1.69884257164024       -9.18161571234551       -0.63664969659960
H            6.87425836802055        2.83384204532225        4.04066844517900
H            7.40421779106296        3.24145927468557        2.39094104669203
H            8.50129585139412        2.03255268868378        3.20228088614877
H           -1.97044538868212        0.21608679383281       -3.02928782107718
H           -1.39234447168296       -1.33060040083326       -3.82953933674310
H           -0.00852930504002       -0.26202547830936       -3.60987445450198
H           -3.09221414010730       -2.55080306438242       -1.09140335170455
H           -3.10911158889822       -3.75113977984056        0.21279049822131
H           -1.97391091793942       -3.80780847573336       -1.26400321622275
H           -5.91299559634287        1.29267321000691       -1.18868816363136
H           -6.18665702522073        3.02981943372318       -0.40760665800974
H           -6.01669294410868        1.55164063178259        0.64334794758049
C           -4.28222128401827        5.04727799415016        6.79459060364640
C           -4.07195475050843        3.73703520252159        6.17201055794552
C           -2.92457034603455        3.11791629884021        6.48049832959379
C           -1.78379487493427        3.72196764229492        7.04910113467416
C           -2.03765795661257        4.94893127152292        7.64712309040574
C           -3.26321258670803        5.56241868682355        7.60010633280248
C           -2.77129875596337        1.78591752758421        6.00994873083010
C           -1.47638791873290        1.38648051773223        5.83231979258984
C           -0.37600850542322        2.04991866993288        6.45266724486813
N           -0.50620385665296        3.39962874015548        6.76030959491302
C           -3.95712587048947        0.94704356701976        5.72916840331416
C           -3.42828315344745       -0.15934536043205        4.86234309089755
N           -2.19682231548850       -0.59823492257141        4.65123376606957
C           -1.20433685290810        0.06293885955485        5.40943244036699
C           -0.12496744613279       -0.67521206618007        5.89913489522546
C            0.93117946329197        0.06714400617934        6.37621134948780
C            0.82482872827292        1.42955943382901        6.57721164503072
C           -5.11016269419465        0.59652825687846        6.46718204223644
C           -6.04913906490796       -0.29021537672944        5.86389204083553
C           -5.71404492198246       -1.18298300730613        4.81642113446706
C           -4.36872368540065       -1.16384202684938        4.37527501552996
O           -4.89813049140705        0.50288174434824        7.93433195914740
O           -4.87323951423929        3.03157908813846        5.16833964362820
C           -3.76668958747936        6.78419926838173        8.48997359915981
C           -6.84272487788053       -1.90355844303121        4.03471033121289
H           -1.17331350783381        5.48062209792172        8.12061091373206
H           -5.17433874105958        5.62663304790656        6.70407773018858
H            1.63536460863566        2.06313354512906        6.77911588480965
H            0.08110721556188       -1.85653615093861        5.88028191535891
H           -4.01986037955823       -1.77653739261459        3.64828614247775
H           -6.99900538222596       -0.58668193497238        6.27041238306962
O           -2.90302414509390        7.36850665762899        9.01667185843522
O           -4.96795562534300        7.42531826743105        8.37919619703785
C           -4.83772316763369        8.76131697615934        8.83065013171268
C            2.16166369999153       -0.72434749226105        6.18327996756183
O            2.20098771148896       -1.84364856317046        5.63112084957309
O            3.37501379451469       -0.15731663316654        6.31635745777214
C            4.36578954379415       -1.02865528377931        5.58436258177189
O           -6.63322727995678       -2.09133649535495        2.84236338233133
O           -8.00999877519884       -2.09121583820990        4.67010808678484
C           -8.87351884151550       -2.60005355680035        3.76956747789076
C           -4.00034628856951        1.32603898804749        8.56956828320921
C           -6.05604989509388        3.67936303395741        4.68296800815325
H           -8.64516142017588       -3.62761342065959        3.79233986041507
H           -8.65571722083827       -2.33945067332346        2.79247373663046
H           -9.96288008394591       -2.47681326248870        4.09323319930370
H            3.80535221469031       -1.88029608919970        5.13664561137725
H            4.95968472772323       -1.38642079152765        6.37091190705906
H            4.87044225870767       -0.63939032961749        4.66500735319370
H           -6.73805609829589        2.83920633605105        4.29947398201610
H           -5.92241357529726        4.07933427207063        3.62836925884786
H           -6.80130872291706        4.15226344594685        5.41895046926135
H           -4.15283972263904        1.02155830494213        9.64425343797101
H           -4.25425237736921        2.42588067925348        8.39795148770022
H           -2.96767679723116        0.83143073352972        8.27959598408499
H           -4.20954908058191        8.62102387039504        9.87264291041426
H           -5.98372351795637        8.93565317203963        9.00643353426970
H           -4.16891131378813        9.26852855240315        8.26969025104873
116
 energy: -22.648153682401 gnorm: 0.575837853190 xtb: 6.6.1 (8d0f1dd)
C           -2.09637782579975        0.46787112405719       -0.89887611966343
C           -0.94416805270226       -0.39910729315083       -0.93167854080185
C           -0.01393333457027       -0.16831045635465        0.21124697103498
C           -0.06964730304940        1.03474163282479        0.92729769049577
C           -1.21917754798406        1.90417679444814        0.95617552120266
C           -2.18876409579401        1.57936103766866        0.11443435136346
C            0.99625882087733       -1.06754677648933        0.61702112281429
C            2.14640650986911       -0.51218160800978        0.97406242601671
C            2.20918653211420        0.87777236322580        1.38285419364141
N            1.05289593844399        1.67984530041913        1.34644930336379
C            0.91509825054555       -2.55709661902582        0.58282894426610
C            2.19278547235638       -3.14679378331763        0.68172211201591
N            3.36379569287271       -2.55446290157262        0.71220999475025
C            3.35759145684616       -1.28004661099195        1.07917322941478
C            4.63771259654068       -0.61982087930613        1.38076975824455
C            4.60548281002926        0.75146665072938        1.57708565613736
C            3.45718789463865        1.49761793009189        1.58217189843414
C           -0.29285665451643       -3.32412241151896        0.58823705371342
C           -0.04971242063015       -4.71976474484888        0.43806527208120
C            1.13145336502483       -5.35634001211034        0.45029063485148
C            2.25547404716550       -4.58324643015208        0.75328688952038
O           -1.43332149837454       -2.67611926467612        1.10121943089361
O           -0.86133866245160       -1.53712675694579       -1.71634224258753
C           -3.48271319608025        2.38583119819272        0.16827954223323
C            1.29413207041231       -6.79617451001046        0.13090690843334
H           -1.21329564581566        2.79787024878860        1.40529762566589
H           -2.85422832454114        0.31828859952753       -1.64449941203315
H            3.30929831162705        2.44985827330759        1.94273670433678
H            5.61161431502410       -1.02432035325758        1.64783699416770
H            3.26772975674007       -4.78528404074033        0.81190044063227
H           -0.93126768118817       -5.24656294916064        0.12738962263986
O           -4.39566100795391        2.33663791542311       -0.66319759269272
O           -3.66834343440110        3.10852924661129        1.40582051941226
C           -4.93401163102811        2.76282823249250        1.77205675183075
C            5.80630716214239        1.49256199751188        1.99944105651016
O            5.58690207135080        2.50391135668977        2.76723427318548
O            6.98771148184895        0.94757595277927        1.57482550451342
C            8.00551452624294        1.63850350859717        2.03302476649594
O            0.34873433533125       -7.33170825119888       -0.33979495937526
O            2.55863256104346       -7.38145792506910        0.39850223067890
C            2.40628652207372       -8.74070288027675       -0.15944307324634
C           -2.67243113289526       -3.25112364874284        1.41814495824252
C           -2.14651286197279       -1.85967154691824       -2.31002459317097
H            1.38880086960178       -9.01598082169100        0.14950767600045
H            3.06087959036213       -9.37005875365298        0.44163940673082
H            2.49730018111719       -8.79722177029584       -1.16229993860822
H            7.65758254462144        2.07135126984114        3.04819211367701
H            8.46340042229949        2.36748237938402        1.40819492048582
H            8.79156565580660        0.86681852985849        2.19557236090178
H           -2.27370358502413       -1.34929159683356       -3.34447148442793
H           -3.13930657881047       -1.80881598582870       -1.83348461967447
H           -2.11042155803035       -2.97177947619981       -2.39290810287459
H           -3.28203149791434       -2.42783200840570        1.64397518540253
H           -2.60828394805059       -4.10548683461017        2.22218192927465
H           -2.88790308738710       -3.78872809495053        0.61243181633057
H           -4.91259879593947        2.99175602454512        2.98645158927654
H           -5.18096012113999        1.77467324206736        1.61767966067936
H           -5.58468627821391        3.44048307625957        1.20180061100762
C           -4.61980751977678        4.46789879675204        7.35736942536581
C           -4.43941255526702        3.31135577427862        6.61492712453015
C           -3.23750774302858        2.63404076157530        6.93158466044662
C           -2.26440693684234        3.26861225242524        7.83989163134105
C           -2.52335504511081        4.60040995542281        8.46660734797290
C           -3.73062078000523        5.19431892648554        8.22094058231961
C           -3.05218623737887        1.36664588547606        6.31834652104557
C           -1.64578953012166        1.10852928247233        6.16744095815966
C           -0.61073738005490        1.86996403728516        6.85401692354662
N           -0.96462468761229        2.86387358689008        7.72358790260855
C           -3.93260431400110        0.35276118188543        5.73696253404183
C           -3.28359915104386       -0.55222970049263        4.78424210805361
N           -2.01950060597565       -0.81553916334688        4.57584682285856
C           -1.16903986386999       -0.01128040391182        5.39147202637807
C            0.17715486264499       -0.31066349848470        5.26451129694360
C            1.14055304784331        0.36713830996505        5.84996330651328
C            0.75254226333869        1.60243949321413        6.66781788960846
C           -5.35512347599830        0.27179892807243        6.03438477982108
C           -6.16240134488706       -0.40110331033010        5.21867093526216
C           -5.67438173197799       -1.02822512058116        4.11743461306985
C           -4.22954690468740       -1.09709680520685        3.98518345711259
O           -5.85426769668764        1.01049376331230        7.06793041738128
O           -5.25618227066372        2.77270369803712        5.60274137000357
C           -3.87001326104234        6.55538731659489        8.80590556046275
C           -6.56420640464277       -1.92162676830412        3.44958755138781
H           -1.75397545081137        5.28148760021904        8.78282234804061
H           -5.55777370539887        4.92470032144026        7.36713515522203
H            1.51948604265298        1.91407979882731        7.27852223534394
H            0.51934964714906       -1.25428955614836        4.83408428048835
H           -4.02087954429745       -1.97652761701788        3.41065523155613
H           -7.20790902969371       -0.64804436988516        5.53763435583358
O           -4.70266246044290        6.60046238665238        9.74653321714995
O           -3.22546740152486        7.39392168594082        7.95398126422988
C           -3.45220519652432        8.71234832931884        8.32830521952208
C            2.68548351064256        0.02428711508008        5.77780191131651
O            3.01046538633972       -1.11643100375844        5.31989752055514
O            3.46774419273364        1.21137825554632        5.82450024973914
C            4.67435536991535        0.98104499209788        5.22193283877764
O           -5.95648276573450       -2.81804140585465        2.74701269281885
O           -7.94966988571140       -1.84643458158935        3.59511659085173
C           -8.64495659829866       -1.33662790525274        2.50058262612533
C           -6.69285561082917        0.48248877171464        8.09735285078013
C           -6.55101930407229        3.48901334750617        5.53425388532104
H           -8.11190488756815       -1.52756015155940        1.56831813708351
H           -9.06337706968580       -0.27906698307107        2.61770430260748
H           -9.50673942906527       -2.01223421650287        2.30689784022108
H            5.19076919660416        2.00602799271772        5.24479617844474
H            4.71505738357995        0.75457361452444        4.14700032242621
H            5.04688579929968       -0.05418473646397        5.47597850803407
H           -7.08602686000233        2.97219495204258        4.71486319048678
H           -6.47046045137046        4.54315024048003        5.29653902337219
H           -6.95421355542843        3.45880078134046        6.53818204800050
H           -6.88576056123547       -0.59807926641315        7.86106490979761
H           -7.71570280998693        1.18867569571770        8.12659021574848
H           -6.28424990092867        0.53236260005352        9.03750629032325
H           -4.26735377108710        8.90113647697200        9.18257778843697
H           -3.85673886870903        9.33454854985643        7.58471220120175
H           -2.46228943632446        9.15093830596652        8.56103581725073
116
 energy: -22.664279072066 gnorm: 0.532878450220 xtb: 6.6.1 (8d0f1dd)
C           -2.52511434004774        0.58496322442458        0.69678092440838
C           -1.47687001282865       -0.36213657907732        0.52447552192853
C           -0.20359694153391       -0.10794984595325        1.11938786177322
C           -0.02908902519610        1.05066866296463        1.87535822496613
C           -1.00760053314372        2.01461107734144        1.97271660415103
C           -2.31269859224215        1.79014206311672        1.33257575486227
C            0.92197093292954       -1.12594901019913        1.07676695848132
C            2.18096684702356       -0.54767261497767        1.11236658121049
C            2.30671132813496        0.63012604126889        1.87385047391228
N            1.24343515477567        1.46602294255313        2.23481149353055
C            0.71990093159327       -2.46165929377345        0.81734372463452
C            1.77385696446378       -3.14299424641875        0.11666999006708
N            2.97532885585395       -2.41553482098744       -0.07399290461253
C            3.28115624002452       -1.30337555048050        0.60340086254362
C            4.52428533935313       -0.89983770003716        0.82889093724962
C            4.80624004910346        0.19292890461759        1.68698041365984
C            3.68422725681992        1.02048900264439        2.02602059433536
C           -0.27637996242245       -3.33412114017066        1.45181026580626
C           -0.09641139914684       -4.72404833346579        1.31438522453717
C            1.03405518903068       -5.39118049467843        0.73213165441360
C            1.94294728329349       -4.61947423520271        0.13684970375592
O           -1.44559960394160       -2.92846735771133        2.16776414451280
O           -1.60598305927863       -1.57827892845166       -0.24955626443585
C           -3.25148840083979        2.89646720046160        1.44944448794886
C            1.11995794453761       -6.83957027267441        0.56397419309093
H           -0.72620940751438        2.93763504582067        2.27596995410522
H           -3.55425220581439        0.30371979816420        0.60364683430757
H            3.96778930675251        1.96301615028541        2.50898284206522
H            5.12820585615784       -1.76022009748438        0.67544869094827
H            2.80972258427020       -4.90782102061039       -0.32014402598707
H           -0.77591811069547       -5.42246653100360        1.77085171812580
O           -3.73623804928551        3.15626344450956        2.61105148004094