      -----------------------------------------------------------      
     |                   =====================                   |     
     |                           x T B                           |     
     |                   =====================                   |     
     |                         S. Grimme                         |     
     |          Mulliken Center for Theoretical Chemistry        |     
     |                    University of Bonn                     |     
      -----------------------------------------------------------      

   * xtb version 6.6.1 (8d0f1dd) compiled by 'runner@Mac-1690902418499.local' on 2023-08-01

   xtb is free software: you can redistribute it and/or modify it under
   the terms of the GNU Lesser General Public License as published by
   the Free Software Foundation, either version 3 of the License, or
   (at your option) any later version.
   
   xtb is distributed in the hope that it will be useful,
   but WITHOUT ANY WARRANTY; without even the implied warranty of
   MERCHANTABILITY or FITNESS FOR A PARTICULAR PURPOSE.  See the
   GNU Lesser General Public License for more details.
   
   Cite this work as:
   * C. Bannwarth, E. Caldeweyher, S. Ehlert, A. Hansen, P. Pracht,
     J. Seibert, S. Spicher, S. Grimme, WIREs Comput. Mol. Sci., 2020, 11,
     e01493. DOI: 10.1002/wcms.1493
   
   for GFN2-xTB:
   * C. Bannwarth, S. Ehlert and S. Grimme., J. Chem. Theory Comput., 2019,
     15, 1652-1671. DOI: 10.1021/acs.jctc.8b01176
   for GFN1-xTB:
   * S. Grimme, C. Bannwarth, P. Shushkov, J. Chem. Theory Comput., 2017,
     13, 1989-2009. DOI: 10.1021/acs.jctc.7b00118
   for GFN0-xTB:
   * P. Pracht, E. Caldeweyher, S. Ehlert, S. Grimme, ChemRxiv, 2019, preprint.
     DOI: 10.26434/chemrxiv.8326202.v1
   for GFN-FF:
   * S. Spicher and S. Grimme, Angew. Chem. Int. Ed., 2020, 59, 15665-15673.
     DOI: 10.1002/anie.202004239
   
   for ALPB and GBSA implicit solvation:
   * S. Ehlert, M. Stahn, S. Spicher, S. Grimme, J. Chem. Theory Comput.,
     2021, 17, 4250-4261. DOI: 10.1021/acs.jctc.1c00471
   
   for DFT-D4:
   * E. Caldeweyher, C. Bannwarth and S. Grimme, J. Chem. Phys., 2017,
     147, 034112. DOI: 10.1063/1.4993215
   * E. Caldeweyher, S. Ehlert, A. Hansen, H. Neugebauer, S. Spicher,
     C. Bannwarth and S. Grimme, J. Chem. Phys., 2019, 150, 154122.
     DOI: 10.1063/1.5090222
   * E. Caldeweyher, J.-M. Mewes, S. Ehlert and S. Grimme, Phys. Chem. Chem. Phys.
     2020, 22, 8499-8512. DOI: 10.1039/D0CP00502A
   
   for sTDA-xTB:
   * S. Grimme and C. Bannwarth, J. Chem. Phys., 2016, 145, 054103.
     DOI: 10.1063/1.4959605
   
   in the mass-spec context:
   * V. Asgeirsson, C. Bauer and S. Grimme, Chem. Sci., 2017, 8, 4879.
     DOI: 10.1039/c7sc00601b
   * J. Koopman and S. Grimme, ACS Omega 2019, 4, 12, 15120-15133.
     DOI: 10.1021/acsomega.9b02011
   
   for metadynamics refer to:
   * S. Grimme, J. Chem. Theory Comput., 2019, 155, 2847-2862
     DOI: 10.1021/acs.jctc.9b00143
   
   for SPH calculations refer to:
   * S. Spicher and S. Grimme, J. Chem. Theory Comput., 2021, 17, 1701-1714
     DOI: 10.1021/acs.jctc.0c01306
   
   with help from (in alphabetical order)
   P. Atkinson, C. Bannwarth, F. Bohle, G. Brandenburg, E. Caldeweyher
   M. Checinski, S. Dohm, S. Ehlert, S. Ehrlich, I. Gerasimov, C. Hölzer
   A. Katbashev, J. Koopman, C. Lavigne, S. Lehtola, F. März, M. Müller,
   F. Musil, H. Neugebauer, J. Pisarek, C. Plett, P. Pracht, F. Pultar,
   J. Seibert, P. Shushkov, S. Spicher, M. Stahn, M. Steiner, T. Strunk,
   J. Stückrath, T. Rose, and J. Unsleber
   
 * started run on 2025/03/14 at 12:41:49.220     

           -------------------------------------------------
          |                Calculation Setup                |
           -------------------------------------------------

          program call               : xtb scoord.19 --md --gfnff --input md_settings.inp
          coordinate file            : scoord.19
          omp threads                :                     8

   ID    Z sym.   atoms
    1    6 C      1-9, 11, 12, 14-21, 24, 25, 34, 35, 38, 41-43, 59-67, 69,
                  70, 72-79, 82, 83, 92, 93, 96, 99-101
    2    7 N      10, 13, 68, 71
    3    8 O      22, 23, 32, 33, 36, 37, 39, 40, 80, 81, 90, 91, 94, 95, 97,
                  98
    4    1 H      26-31, 44-58, 84-89, 102-116

molecular fragmentation (1/2 indicates fragments):
111111111111111111111111111111111111111111111111111111111122222222222222
22222222222222222222222222222222222222222222
# atoms in fragment 1/2:    58    58
 fragment masses (1/2) :      501.47      501.47
CMA distance (Bohr)    :  10.399
constraining FC (au)   :  0.0500

          ==================== Thresholds ====================
          CN  :   150.00000
          rep :   500.00000
          disp:  2500.00000
          HB1 :   250.00000
          HB2 :   450.00000

          Pauling EN used:
          Z : 1  EN :  2.20
          Z : 6  EN :  2.55
          Z : 7  EN :  3.04
          Z : 8  EN :  3.44
          electric field strengths (au): 0.000

           ------------------------------------------------- 
          |           Force Field Initialization            |
           ------------------------------------------------- 

          distances ...
          ----------------------------------------
          generating topology and atomic info file ...
          pair mat ...
          computing topology distances matrix with Floyd-Warshall algo ...
          making topology EEQ charges ...
          #fragments for EEQ constrain: 2
          ----------------------------------------
          generating topology and atomic info file ...
          pair mat ...
          computing topology distances matrix with Floyd-Warshall algo ...
          making topology EEQ charges ...
          rings ...
          # BATM   1140
          # H in HB   42
          doing iterative Hueckel for 2 subsystem(s) ...

  atom   neighbors  erfCN metchar sp-hybrid imet pi  qest     coordinates
    1  C       3    2.81   0.00         2    0    1  -0.013   -9.615926    4.038458   -2.219303
    2  C       3    2.79   0.00         2    0    1   0.104   -8.750696    4.565584    0.181932
    3  C       3    2.81   0.00         2    0    1   0.014   -7.546396    2.461647    1.631980
    4  C       3    2.83   0.00         2    0    1   0.068   -8.356500   -0.199468    0.891296
    5  C       3    2.82   0.00         2    0    1  -0.010   -9.807646   -0.460090   -1.294432
    6  C       3    2.82   0.00         2    0    1   0.024  -10.217939    1.645059   -2.881197
    7  C       3    2.82   0.00         2    0    1   0.003   -5.834885    2.463040    3.633912
    8  C       3    2.84   0.00         2    0    1   0.018   -5.990848    0.675871    5.609843
    9  C       3    2.81   0.00         2    0    1   0.069   -7.289546   -1.820228    4.928398
   10  N       2    1.93   0.00         2    0    1  -0.182   -8.201145   -2.145091    2.651783
   11  C       3    2.85   0.00         2    0    1   0.014   -4.336344    4.631338    4.235235
   12  C       3    2.88   0.00         2    0    1   0.068   -3.492096    4.836840    6.838398
   13  N       2    1.98   0.00         2    0    1  -0.182   -4.101944    3.262027    8.692426
   14  C       3    2.86   0.00         2    0    1   0.069   -5.079009    1.077242    8.200567
   15  C       3    2.81   0.00         2    0    1  -0.009   -4.958348   -0.899001    9.999466
   16  C       3    2.81   0.00         2    0    1   0.024   -5.896876   -3.270739    9.373328
   17  C       3    2.82   0.00         2    0    1  -0.009   -7.113715   -3.520676    6.922524
   18  C       3    2.83   0.00         2    0    1   0.104   -3.445011    6.137284    2.227160
   19  C       3    2.82   0.00         2    0    1  -0.013   -2.074617    8.273535    3.019885
   20  C       3    2.81   0.00         2    0    1   0.024   -1.487720    8.561070    5.536031
   21  C       3    2.85   0.00         2    0    1  -0.010   -2.126388    6.915300    7.445496
   22  O       2    1.92   0.00         3    0    1  -0.326   -3.631112    5.400340   -0.314901
   23  O       2    1.89   0.00         3    0    1  -0.326   -8.682980    7.205766    1.219867
   24  C       3    2.85   0.00         2    0    1   0.224  -11.135298    1.000724   -5.415616
   25  C       3    2.82   0.00         2    0    1   0.224    0.636216   10.431786    6.694762
   26  H       1    0.98   0.00         0    0    0   0.083  -11.155990   -1.886577   -1.382188
   27  H       1    0.98   0.00         0    0    0   0.084  -10.315088    5.542879   -3.325185
   28  H       1    0.98   0.00         0    0    0   0.084   -8.127950   -5.197806    7.004773
   29  H       1    0.98   0.00         0    0    0   0.084   -3.971333   -0.923043   11.762457
   30  H       1    0.98   0.00         0    0    0   0.083   -1.477133    7.068735    9.246344
   31  H       1    0.98   0.00         0    0    0   0.084   -1.320784    9.670657    1.798961
   32  O       1    0.98   0.00         2    0    1  -0.364  -10.953010    2.655986   -7.006194
   33  O       2    1.91   0.00         3    0    1  -0.315  -12.107833   -1.288479   -5.650689
   34  C       4    3.52   0.00         3    0    0   0.037  -12.294460   -2.021720   -8.281077
   35  C       3    2.80   0.00         2    0    1   0.223   -6.400899   -5.127152   11.451718
   36  O       1    0.99   0.00         2    0    1  -0.365   -5.007310   -6.980262   11.135660
   37  O       2    1.90   0.00         3    0    1  -0.315   -8.359614   -4.619926   13.193643
   38  C       4    3.46   0.00         3    0    0   0.039   -9.491970   -6.962059   14.243294
   39  O       1    0.98   0.00         2    0    1  -0.364    2.814350    9.768223    7.328741
   40  O       2    1.91   0.00         3    0    1  -0.315   -0.327819   12.734404    7.140809
   41  C       4    3.50   0.00         3    0    0   0.037    1.665701   14.590283    7.656493
   42  C       4    3.49   0.00         3    0    0   0.033   -3.916122    7.310110   -2.090256
   43  C       4    3.47   0.00         3    0    0   0.033  -10.201714    7.527529    3.495191
   44  H       1    0.97   0.00         0    0    0   0.079    0.783250   16.456134    7.556860
   45  H       1    0.96   0.01         0    0    0   0.079    3.025801   14.470349    6.003887
   46  H       1    0.97   0.01         0    0    0   0.079    2.847100   14.106055    9.341442
   47  H       1    0.97   0.01         0    0    0   0.078   -7.910628   -8.202629   13.602371
   48  H       1    0.97   0.00         0    0    0   0.078  -11.291968   -7.372152   13.305447
   49  H       1    0.95   0.02         0    0    0   0.078  -10.129810   -6.788990   16.377443
   50  H       1    0.98   0.00         0    0    0   0.076   -9.003647    8.651896    4.686995
   51  H       1    0.95   0.02         0    0    0   0.076  -10.587847    5.522692    4.377866
   52  H       1    0.98   0.00         0    0    0   0.076  -12.017776    8.237612    3.212489
   53  H       1    0.98   0.00         0    0    0   0.076   -5.648096    7.143871   -2.958534
   54  H       1    0.96   0.01         0    0    0   0.076   -2.367342    7.003247   -3.547485
   55  H       1    0.97   0.01         0    0    0   0.076   -3.848870    9.240234   -1.280251
   56  H       1    0.98   0.00         0    0    0   0.079  -11.602304   -3.874062   -8.481846
   57  H       1    0.96   0.01         0    0    0   0.079  -10.693254   -0.805029   -9.070162
   58  H       1    0.98   0.00         0    0    0   0.079  -13.932543   -1.962982   -9.427280
   59  C       3    2.79   0.00         2    0    1  -0.013    1.588927   -6.770779   13.849720
   60  C       3    2.77   0.00         2    0    1   0.104    2.379426   -4.370883   12.670806
   61  C       3    2.85   0.00         2    0    1   0.014    1.607329   -4.114450    9.986903
   62  C       3    2.88   0.00         2    0    1   0.068    0.488601   -6.164828    8.652575
   63  C       3    2.81   0.00         2    0    1  -0.010   -0.405034   -8.373261    9.938662
   64  C       3    2.80   0.00         2    0    1   0.024   -0.069369   -8.481689   12.495797
   65  C       3    2.82   0.00         2    0    1   0.003    1.999687   -1.869141    8.632921
   66  C       3    2.87   0.00         2    0    1   0.018    1.727012   -2.140300    6.138268
   67  C       3    2.87   0.00         2    0    1   0.069    1.282456   -4.458173    4.797283
   68  N       2    1.99   0.00         2    0    1  -0.182    0.283852   -6.440571    6.103769
   69  C       3    2.85   0.00         2    0    1   0.014    2.149779    0.726527    9.544833
   70  C       3    2.89   0.00         2    0    1   0.068    3.410743    2.458381    7.839176
   71  N       2    1.99   0.00         2    0    1  -0.182    3.566220    1.973605    5.476592
   72  C       3    2.84   0.00         2    0    1   0.069    2.803917   -0.107427    4.352512
   73  C       3    2.81   0.00         2    0    1  -0.009    2.873809   -0.408849    1.700893
   74  C       3    2.81   0.00         2    0    1   0.024    2.136937   -2.737588    0.611154
   75  C       3    2.84   0.00         2    0    1  -0.009    1.247146   -4.660137    2.328788
   76  C       3    2.82   0.00         2    0    1   0.104    1.332027    1.564820   12.047406
   77  C       3    2.85   0.00         2    0    1  -0.013    2.129513    3.916459   12.589557
   78  C       3    2.86   0.00         2    0    1   0.024    3.262727    5.481309   10.917469
   79  C       3    2.84   0.00         2    0    1  -0.010    3.912536    4.947768    8.496258
   80  O       2    1.92   0.00         3    0    1  -0.326   -0.194169    0.050012   13.590901
   81  O       2    1.89   0.00         3    0    1  -0.326    4.631981   -3.116653   13.944313
   82  C       3    2.89   0.00         2    0    1   0.224   -1.151472  -10.593767   14.239224
   83  C       3    2.85   0.00         2    0    1   0.224    4.175354    7.892311   12.150975
   84  H       1    0.97   0.01         0    0    0   0.083   -1.388083   -9.878326    8.795557
   85  H       1    0.97   0.01         0    0    0   0.084    1.705624   -7.300604   15.902262
   86  H       1    0.97   0.01         0    0    0   0.084    0.714228   -6.654971    1.867404
   87  H       1    0.98   0.00         0    0    0   0.084    2.955590    1.369891    0.759884
   88  H       1    0.97   0.00         0    0    0   0.083    4.050102    6.253692    6.941527
   89  H       1    0.97   0.00         0    0    0   0.084    1.612645    4.640607   14.423587
   90  O       1    0.98   0.00         2    0    1  -0.364   -1.310945  -10.068826   16.505033
   91  O       2    1.92   0.00         3    0    1  -0.315   -1.774762  -12.724085   13.066177
   92  C       4    3.56   0.00         3    0    0   0.037   -2.130372  -14.594315   14.999478
   93  C       3    2.92   0.00         2    0    1   0.223    1.231708   -2.842606   -2.009879
   94  O       1    0.98   0.00         2    0    1  -0.365    0.801265   -0.925580   -3.254066
   95  O       2    1.92   0.00         3    0    1  -0.315    1.254257   -5.319986   -2.804927
   96  C       4    3.57   0.00         3    0    0   0.039    0.311541   -5.159006   -5.309091
   97  O       1    0.98   0.00         2    0    1  -0.364    6.425577    8.385353   11.946207
   98  O       2    1.91   0.00         3    0    1  -0.315    2.611530    9.157794   13.701262
   99  C       4    3.50   0.00         3    0    0   0.037    4.083599   10.673333   15.519642
  100  C       4    3.49   0.00         3    0    0   0.033   -0.471614    0.768875   16.100367
  101  C       4    3.48   0.00         3    0    0   0.033    6.793472   -2.860642   12.521311
  102  H       1    0.97   0.00         0    0    0   0.079    5.945822    9.821646   15.193388
  103  H       1    0.97   0.00         0    0    0   0.079    3.497914   10.550628   17.477289
  104  H       1    0.97   0.01         0    0    0   0.079    4.116698   12.528037   14.468190
  105  H       1    0.97   0.01         0    0    0   0.078   -1.806171   -4.962428   -5.189967
  106  H       1    0.97   0.00         0    0    0   0.078    0.742085   -6.864403   -6.359546
  107  H       1    0.97   0.01         0    0    0   0.078    1.838978   -3.837291   -5.924630
  108  H       1    0.98   0.00         0    0    0   0.076    7.304677   -0.993796   11.992543
  109  H       1    0.96   0.01         0    0    0   0.076    6.377906   -3.900863   10.647530
  110  H       1    0.97   0.01         0    0    0   0.076    8.394734   -3.947176   13.328291
  111  H       1    0.96   0.01         0    0    0   0.076   -2.449736    1.502819   16.601165
  112  H       1    0.97   0.00         0    0    0   0.076    1.088232    2.064947   16.497349
  113  H       1    0.98   0.00         0    0    0   0.076    0.366945   -0.618018   17.266580
  114  H       1    0.97   0.00         0    0    0   0.079   -0.458333  -15.762245   15.068337
  115  H       1    0.97   0.01         0    0    0   0.079   -4.009931  -15.515420   14.812616
  116  H       1    0.98   0.00         0    0    0   0.079   -2.163793  -13.647518   16.788626

          #atoms :   116
          #bonds :   124
          #angl  :   206
          #tors  :   302
          #nmol  :   2
          #optfrag :   2
           ------------------------------------------------- 
          |                   G F N - F F                   |
          |          A general generic force-field          |
          |                  Version 1.0.3                  | 
           ------------------------------------------------- 
          Number of HB bonds (bound hydrogen)     16129
          Number of HB bonds (unbound hydrogen)   498
          Number of XB bonds                      0

 E+G (total)                   0 d,  0 h,  0 min,  0.002 sec
 distance/D3 list               ...        0 min,  0.000 sec (  0.796%)
 non bonded repulsion           ...        0 min,  0.000 sec (  4.360%)
 dCN                            ...        0 min,  0.000 sec (  6.459%)
 EEQ energy and q               ...        0 min,  0.000 sec ( 10.124%)
 D3                             ...        0 min,  0.000 sec ( 16.608%)
 EEQ gradient                   ...        0 min,  0.000 sec (  2.060%)
 bonds                          ...        0 min,  0.000 sec (  5.308%)
 bend and torsion               ...        0 min,  0.000 sec (  3.868%)
 bonded ATM                     ...        0 min,  0.000 sec (  1.845%)
 HB/XB (incl list setup)        ...        0 min,  0.001 sec ( 48.129%)

         :::::::::::::::::::::::::::::::::::::::::::::::::::::
         ::                     SUMMARY                     ::
         :::::::::::::::::::::::::::::::::::::::::::::::::::::
         :: total energy             -22.710664867557 Eh    ::
         :: gradient norm              0.487949865976 Eh/a0 ::
         ::.................................................::
         :: bond energy              -23.445023258437 Eh    ::
         :: angle energy               0.168726493642 Eh    ::
         :: torsion energy             0.109332453819 Eh    ::
         :: repulsion energy           1.567187697250 Eh    ::
         :: electrostat energy        -0.939936588967 Eh    ::
         :: dispersion energy         -0.140877277542 Eh    ::
         :: HB energy                 -0.005805620382 Eh    ::
         :: XB energy                  0.000000000000 Eh    ::
         :: bonded atm energy         -0.024268766940 Eh    ::
         :: external energy            0.000000000000 Eh    ::
         :: add. restraining           0.000000000000 Eh    ::
         :: total charge              -0.000000000000 e     ::
         :::::::::::::::::::::::::::::::::::::::::::::::::::::

           -------------------------------------------------
          |                Property Printout                |
           -------------------------------------------------

           -------------------------------------------------
          | TOTAL ENERGY              -22.710664867557 Eh   |
          | GRADIENT NORM               0.487949865976 Eh/α |
           -------------------------------------------------
           ------------------------------------------------- 
          |               Molecular Dynamics                |
           ------------------------------------------------- 
 trajectories on xtb.trj or xtb.trj.<n>

 MD time /ps        :   20.00
 dt /fs             :    2.00
 SCC accuracy       :    2.00
 temperature /K     :  750.00
 max steps          : 10000
 block length (av.) :  2500
 dumpstep(trj) /fs  :  500.00   250
 dumpstep(coords)/fs: 1000.00   500
 H atoms mass (amu) :     4
 # deg. of freedom  :   348
 SHAKE off
 Berendsen THERMOSTAT on
         time (ps)    <Epot>      Ekin   <T>   T     Etot
      0    0.00      0.00000   0.8622    0.    0.   -21.84850
est. speed in wall clock h for 100 ps :  0.02
    200    0.40    -22.37189   0.5843 1070. 1060.   -21.95035
    400    0.80    -22.45512   0.5674 1016. 1030.   -22.08204
    600    1.20    -22.49532   0.4326  972.  785.   -22.10344
    800    1.60    -22.52118   0.4603  939.  835.   -22.16374
   1000    2.00    -22.53927   0.4639  912.  842.   -22.15537
   1200    2.40    -22.55307   0.4091  891.  742.   -22.19296
   1400    2.80    -22.56445   0.4418  875.  802.   -22.22081
   1600    3.20    -22.57472   0.4712  863.  855.   -22.20688
   1800    3.60    -22.58270   0.4244  852.  770.   -22.24021
   2000    4.00    -22.58982   0.4199  844.  762.   -22.22868
   2200    4.40    -22.59564   0.4142  836.  752.   -22.26362
   2400    4.80    -22.60082   0.4001  829.  726.   -22.22259
block <Epot> / <T> :     -22.61215  826.     drift:  0.99D+02   Tbath : 750.
   2600    5.20    -22.60535   0.3752  823.  681.   -22.24070
   2800    5.60    -22.60992   0.4110  819.  746.   -22.23094
   3000    6.00    -22.61369   0.4058  815.  736.   -22.26493
   3200    6.40    -22.61720   0.3928  811.  713.   -22.25038
   3400    6.80    -22.62042   0.4261  808.  773.   -22.23800
   3600    7.20    -22.62314   0.3909  804.  709.   -22.24929
   3800    7.60    -22.62505   0.4535  801.  823.   -22.22924
   4000    8.00    -22.62723   0.4078  799.  740.   -22.27993
   4200    8.40    -22.62973   0.4062  797.  737.   -22.24294
   4400    8.80    -22.63137   0.4191  795.  761.   -22.21659
   4600    9.20    -22.63287   0.4179  792.  758.   -22.26933
   4800    9.60    -22.63436   0.4382  791.  795.   -22.26062
   5000   10.00    -22.63527   0.4422  789.  802.   -22.26060
block <Epot> / <T> :     -22.66746  751.     drift:  0.99D+02   Tbath : 750.
   5200   10.40    -22.63683   0.3938  788.  715.   -22.27851
   5400   10.80    -22.63785   0.4020  786.  730.   -22.25256
   5600   11.20    -22.63886   0.4079  785.  740.   -22.28632
   5800   11.60    -22.63977   0.4029  784.  731.   -22.27396
   6000   12.00    -22.64056   0.4404  782.  799.   -22.27128
   6200   12.40    -22.64153   0.3831  781.  695.   -22.24327
   6400   12.80    -22.64217   0.4360  780.  791.   -22.26291
   6600   13.20    -22.64262   0.3899  779.  708.   -22.23861
   6800   13.60    -22.64284   0.4346  778.  789.   -22.24687
   7000   14.00    -22.64333   0.4367  777.  793.   -22.23165
   7200   14.40    -22.64369   0.4330  776.  786.   -22.22744
   7400   14.80    -22.64413   0.3893  776.  707.   -22.26784
block <Epot> / <T> :     -22.66237  749.     drift:  0.99D+02   Tbath : 750.
   7600   15.20    -22.64445   0.4129  775.  749.   -22.25390
   7800   15.60    -22.64470   0.4266  774.  774.   -22.24283
   8000   16.00    -22.64507   0.4282  774.  777.   -22.22382
   8200   16.40    -22.64539   0.3873  773.  703.   -22.23549
   8400   16.80    -22.64561   0.4107  773.  745.   -22.25464
   8600   17.20    -22.64576   0.4532  772.  822.   -22.22024
   8800   17.60    -22.64602   0.4033  772.  732.   -22.22834
   9000   18.00    -22.64620   0.3761  771.  683.   -22.21557
   9200   18.40    -22.64647   0.4013  771.  728.   -22.23449
   9400   18.80    -22.64653   0.4551  770.  826.   -22.22770
   9600   19.20    -22.64670   0.3777  770.  685.   -22.25026
   9800   19.60    -22.64681   0.4229  769.  768.   -22.23859
 average properties 
 Epot               :  -22.646891679933187     
 Epot (accurate SCC):  -22.648769762658969     
 Ekin               :  0.42362006908534616     
 Etot               :  -22.223271610847842     
 T                  :   768.78599947147768     
 thermostating problem
 normal exit of md()
########################################################################
[WARNING] Runtime exception occurred
-1- gfnff_setup: Could not read topology file.
########################################################################
Note: The following floating-point exceptions are signalling: IEEE_UNDERFLOW_FLAG
normal termination of xtb

------------------------------------------------------------------------
 * finished run on 2025/03/14 at 12:42:04.879     
------------------------------------------------------------------------
 total:
 * wall-time:     0 d,  0 h,  0 min, 15.659 sec
 *  cpu-time:     0 d,  0 h,  0 min, 30.933 sec
 * ratio c/w:     1.975 speedup
 SCF:
 * wall-time:     0 d,  0 h,  0 min,  0.002 sec
 *  cpu-time:     0 d,  0 h,  0 min,  0.004 sec
 * ratio c/w:     1.826 speedup
 MD:
 * wall-time:     0 d,  0 h,  0 min, 15.643 sec
 *  cpu-time:     0 d,  0 h,  0 min, 30.918 sec
 * ratio c/w:     1.977 speedup

