116
 energy: -22.710664867557 gnorm: 0.487949865976 xtb: 6.6.1 (8d0f1dd)
C           -5.08852914000232        2.13705968233376       -1.17440434641464
C           -4.63066870765920        2.41600284507747        0.09627433410302
C           -3.99338091490909        1.30264765226656        0.86360683306754
C           -4.42206919146439       -0.10555413332923        0.47165366670949
C           -5.18998267154726       -0.24346888566789       -0.68498381907261
C           -5.40710041492571        0.87052791226976       -1.52466353063617
C           -3.08768818518207        1.30338439532993        1.92298336571206
C           -3.17022011558546        0.35765574187540        2.96860103696109
C           -3.85746169395392       -0.96322339261573        2.60799585476419
N           -4.33985890195478       -1.13513347699659        1.40326286876181
C           -2.29469415936596        2.45079844344657        2.24118997510709
C           -1.84793736465015        2.55954530238933        3.61872427034551
N           -2.17065524483275        1.72619020257483        4.59983369430397
C           -2.68769566195911        0.57005169791461        4.33955298722148
C           -2.62384494693444       -0.47573088780160        5.29148955851266
C           -3.12049216688453       -1.73080048167253        4.96015135724126
C           -3.76441592209085       -1.86306143630610        3.66324171943994
C           -1.82302116409019        3.24771071155323        1.17856210200031
C           -1.09783993381482        4.37816603650885        1.59805430062818
C           -0.78726750451973        4.53032307481814        2.92954140675351
C           -1.12523627447100        3.65941895077362        3.93998686627706
O           -1.92150198488027        2.85773706592327       -0.16663828496947
O           -4.59483515197945        3.81312690072065        0.64552555230590
C           -5.89254579425543        0.52956043241187       -2.86582069557197
C            0.33667083607287        5.52026324960130        3.54271556166192
H           -5.90349568342652       -0.99833350073560       -0.73142240211570
H           -5.45850942007536        2.93316523071052       -1.75961237164749
H           -4.30112605543778       -2.75056034318949        3.70676598001906
H           -2.10153904930526       -0.48845343391829        6.22442435846715
H           -0.78166495283739        3.74061321443629        4.89295472149495
H           -0.69892902750363        5.11749111961410        0.95196937673748
O           -5.79608345634429        1.40548750702623       -3.70751838766373
O           -6.40718929453894       -0.68183387588972       -2.99021603076664
C           -6.50594817518464       -1.06984825104533       -4.38215733146958
C           -3.38720986014449       -2.71317187376136        6.05998798096456
O           -2.64975433528249       -3.69379533371005        5.89273762329035
O           -4.42371709719998       -2.44475967415334        6.98177545134359
C           -5.02293411208343       -3.68416278324739        7.53722657229217
O            1.48928999627734        5.16912107362176        3.87820253980610
O           -0.17347451983056        6.73875642436386        3.77875351096464
C            0.88145094149150        7.72084508895979        4.05164186600443
C           -2.07232246132770        3.86834339818064       -1.10611571653769
C           -5.39851469263145        3.98339672981417        1.84957528056349
H            0.41447826504113        8.70821126297371        3.99891819292905
H            1.60118517074797        7.65737887739969        3.17712007402487
H            1.50662038400793        7.46460281056835        4.94327800474336
H           -4.18612390725818       -4.34064434058434        7.19806481724407
H           -5.97545216222335       -3.90117457937544        7.04093958596241
H           -5.36046486142006       -3.59257878259444        8.66656973482419
H           -4.76452472249311        4.57838614231305        2.48025115453683
H           -5.60284709284003        2.92248296483342        2.31666697783417
H           -6.35953327687056        4.35915662938836        1.69997595295004
H           -2.98884376988274        3.78037359815749       -1.56558891447166
H           -1.25274328514385        3.70595874909328       -1.87724827977314
H           -2.03673434860321        4.88972099215815       -0.67747940351830
H           -6.13967490797538       -2.05006521102152       -4.48839944316412
H           -5.65862646236065       -0.42600284517267       -4.79972281086419
H           -7.37278418931665       -1.03876526704851       -4.98870162499695
C            0.84082409349459       -3.58294214896661        7.32895635404063
C            1.25913821233488       -2.31297182635981        6.70510167544844
C            0.85056198354346       -2.17727293678444        5.28484159801721
C            0.25855638380911       -3.26228666708937        4.57874534817227
C           -0.21433455478908       -4.43093908554802        5.25931342714682
C           -0.03670875219718       -4.48831642365774        6.61249082146655
C            1.05818898210840       -0.98910661126721        4.56834511578477
C            0.91389530561411       -1.13259806254699        3.24823173566789
C            0.67864674687754       -2.35916365569078        2.53861271975024
N            0.15020815714275       -3.40820317511916        3.22997553855748
C            1.13761398542154        0.38446163663957        5.05090790957363
C            1.80488772592093        1.30091909559686        4.14831304128454
N            1.88716216408659        1.04438701309715        2.89808764399227
C            1.48376917101051       -0.05684790796770        2.30325009877041
C            1.52075423029665       -0.21635339510912        0.90007401267303
C            1.13081818204511       -1.44866894727953        0.32340868574021
C            0.65996116718473       -2.46603836004061        1.23234153925121
C            0.70487840188860        0.82806711735260        6.37521251022196
C            1.12688978472820        2.07250097125082        6.66210681708356
C            1.72656066335122        2.90058362540836        5.77727596792390
C            2.07042502131735        2.61824582655203        4.49602614190454
O           -0.10274971004224        0.02646517005837        7.19199523222618
O            2.45113867875350       -1.64926175607458        7.37901286864710
C           -0.60933250884598       -5.60597987477897        7.53507302882935
C            2.20950237643807        4.17643127634862        6.43001930664137
H           -0.73454197191508       -5.22738518601149        4.65440812390946
H            0.90257710722361       -3.86331313447778        8.41511458182878
H            0.37795312876788       -3.52165912088083        0.98818751121288
H            1.56403089537347        0.72491503267452        0.40211329146888
H            2.14322191693178        3.30931107596135        3.67329805239033
H            0.85337472699073        2.45570323523548        7.63263352847452
O           -0.69372197137934       -5.32819303181207        8.73408716277863
O           -0.93916336093501       -6.73329597630637        6.91432297663019
C           -1.12734411899800       -7.72297910931293        7.93738187087658
C            0.65179196588806       -1.50424216331362       -1.06358228274305
O            0.42401132933475       -0.48979577730420       -1.72197762505119
O            0.66372432251267       -2.81521546912071       -1.48430370615564
C            0.16486044153575       -2.73002814642544       -2.80945020157141
O            3.40026872424174        4.43733776855431        6.32166049599210
O            1.38196208866875        4.84609602838647        7.25039554476829
C            2.16094743388078        5.64808447841312        8.21264096027288
C           -0.24956728789862        0.40687131324586        8.51994753684023
C            3.59495041932335       -1.51378641614926        6.62599219716309
H            3.14639327782278        5.19739098594497        8.03999481508886
H            1.85101613822210        5.58315177800114        9.24858282314822
H            2.17846252932507        6.62955160631310        7.65623648976419
H           -0.95578433885694       -2.62600387427775       -2.74641246407551
H            0.39269449817042       -3.63248563913687       -3.36532660434691
H            0.97314535113788       -2.03060702966883       -3.13517937372889
H            3.86546864498666       -0.52589420844215        6.34618038685227
H            3.37504235593906       -2.06424806236332        5.63443015008745
H            4.44230177836076       -2.08875550605123        7.05302799285880
H           -1.29634429054387        0.79525752509169        8.78495822660438
H            0.57586779173447        1.09272294341126        8.73002124657952
H            0.19417914444000       -0.32704111416123        9.13708059660962
H           -0.24253945790416       -8.34102063994034        7.97382073646601
H           -2.12196384532801       -8.21040650348804        7.83849881146473
H           -1.14502975173557       -7.22195566760085        8.88415826146296
116
 energy: -22.513431108181 gnorm: 0.656582545341 xtb: 6.6.1 (8d0f1dd)
C           -4.80228263011766        1.61463230094387       -1.60083392527634
C           -3.84511264448024        1.70642197469755       -0.55288252374516
C           -3.62123440488259        0.60152241340948        0.28664997590815
C           -4.78646719914565       -0.37705811614534        0.40479206320425
C           -5.88151050979882       -0.27424189695767       -0.45661919530183
C           -5.74473939491001        0.49619926566718       -1.57999575301841
C           -2.86925065738533        0.58349662854471        1.48268942895578
C           -3.27816593367113        0.00227706557755        2.72934899598757
C           -4.19391933331732       -1.09940842917058        2.57140915549066
N           -4.92905022788377       -1.21171803987876        1.57214651879488
C           -1.82937365587612        1.53569975254035        1.78435382008489
C           -1.55404736566818        1.97276247356551        3.15125765406260
N           -1.87809133723533        1.22089326470390        4.22128518807625
C           -2.68786930766931        0.18438838988581        4.06702886961713
C           -2.64897360391398       -0.67593519087088        5.06184173704049
C           -3.60114936600710       -1.71663910602108        4.93305632995323
C           -4.35707371362288       -1.93034491220194        3.67498986910641
C           -1.08328913916204        2.27520185179947        0.71069009863285
C           -0.59274417283749        3.53366126980922        1.21490506531691
C           -0.47104001685153        4.06337567507266        2.55937386099504
C           -0.72419584874035        3.11990152917375        3.42199237010158
O           -1.08796305999491        1.76110397657963       -0.62046781710194
O           -3.31932651651170        2.97024192364812       -0.59690975561989
C           -6.73454588685244        0.36676274601068       -2.71387870677584
C            0.35882271593288        5.17642594853221        2.96668201674626
H           -6.81504119353802       -0.94171492200686        0.01461955229713
H           -5.17992338241190        2.31172535322541       -2.24642455143181
H           -4.95221188607805       -2.76449794810926        3.56596096529727
H           -2.07060066499255       -0.46727659854420        5.96183243805655
H           -0.07240791539684        2.99896738384215        4.41267582770459
H           -0.01174565251802        4.17378754950432        0.37076757888337
O           -7.13571830098336        1.43855306059974       -3.29969554700578
O           -7.10285610946949       -0.89840025877923       -3.13743591992983
C           -8.15754161859818       -0.71293915407041       -3.98488027851496
C           -3.79723161274495       -2.65843873975258        5.89652040782195
O           -4.48659896749979       -3.67592019357756        5.85917100602763
O           -2.90924970905286       -2.49080617454078        7.00603580578525
C           -3.30296126826377       -3.43789171596014        8.10828601125768
O            0.82597670168235        4.86970402052386        4.03531689302770
O            0.52192120271644        6.31544928876054        2.36770072423341
C            0.97188061739726        7.30234928091742        3.27478026141030
C           -0.31179114170504        2.55178459360298       -1.49505714474540
C           -3.73069792870300        4.00763057140588        0.34034208141365
H            0.72180014358930        7.24351674698098        4.39063367584157
H            0.56585957947743        8.23903824519287        2.88361809718457
H            1.99828697465881        7.23656752154675        3.27277587041780
H           -3.29536913007343       -2.84602798615440        9.16111172148775
H           -2.81469545995938       -4.31900951777638        8.16422273443981
H           -4.33431327704889       -3.76500635492858        7.96978626874089
H           -2.88017450884037        4.42112661167350        0.82296246828903
H           -4.26570610250739        3.34615981309488        1.07366599195497
H           -4.56057734407104        4.54949192256635       -0.04403833375330
H            0.17874000602139        2.08915383077855       -2.41640339067351
H            0.87982196389185        3.03096431373210       -1.25428226561279
H           -0.92243153120988        3.46004228775065       -1.74963328747888
H           -7.84781554985563       -0.33994820083302       -4.90522854437413
H           -9.02098352054401       -0.09001137386767       -3.80181612230105
H           -8.56680795148152       -1.71508122809756       -4.30296778110299
C            1.33035090367816       -3.68281005460490        7.04981728747552
C            1.42794688759396       -2.34289986880108        6.63868630421644
C            0.41007322779139       -1.95003496387485        5.70239837695010
C           -0.34802348625791       -2.81070798349927        4.85733222480409
C           -0.49194279293624       -4.04970410869742        5.43713631466214
C            0.38445766078463       -4.49064882947532        6.46129429401528
C            0.57381048540552       -0.67162884797851        5.14779418453234
C            0.68958916173279       -0.72264960459171        3.66912717526232
C           -0.00600742149235       -1.71104167225284        2.86719337036723
N           -0.58272877515013       -2.77571520290679        3.48817319720382
C            0.91365749648844        0.51507590250624        5.86890292885362
C            1.69860060795478        1.43431849583957        5.06503961098897
N            1.91109284077015        1.35988131273803        3.73473916501484
C            1.46888476486733        0.38458224560636        2.99227020323776
C            1.75602394344208        0.20287153759445        1.63004604492215
C            0.73928433550469       -0.62072630043052        0.83286162700329
C           -0.10780538466256       -1.47959964028633        1.47839963705353
C            0.49365465782957        0.83491063391689        7.18288395118745
C            0.82450398546034        2.17459989946279        7.65771862680428
C            1.48410507290869        3.13431030134375        6.72169979485764
C            1.94011609757911        2.68527011591760        5.66240400694625
O           -0.20219994883626       -0.05661182559140        7.96522608523246
O            2.30181180923189       -1.61814955515812        7.37246845697810
C            0.38810598312147       -6.00687141582411        6.59236064399156
C            1.63892774109698        4.59840895662916        6.98699087251721
H           -1.16270511511224       -4.73536760991416        5.02263390398543
H            2.00414566077034       -3.91262474571211        7.88729459268179
H           -0.61318183762984       -2.12354486921328        0.71656685346936
H            2.48227316645461        0.67967745544096        0.99038204187315
H            2.18797981450169        3.45074927951035        4.96999640078935
H            0.60796492150072        2.40361229534615        8.66261739872281
O            0.88106360787785       -6.86796424104606        5.85156539787788
O           -0.67579758823076       -6.30680642898017        7.44736296088901
C           -1.31704976042635       -7.46256890759153        7.29159621403341
C            0.73394600183709       -0.34413986062453       -0.63187235817815
O            1.64855460359860        0.39241512369610       -1.05301747520359
O           -0.40878233824098       -1.09095852205777       -1.26993317027309
C           -0.39410234631582       -0.97681744859917       -2.63047851909901
O            1.84666254740501        5.39995825213531        6.08701626887270
O            1.67087130020663        4.90207857413302        8.29567329124899
C            2.09880391943436        6.21655759231716        8.62091344458344
C           -0.94258546796101        0.29386273875621        9.11946382305957
C            3.60006303431091       -1.79916343750610        6.90387918002595
H            1.20863105696121        6.78879778097323        8.16403380067910
H            3.22820156040617        6.41791114848533        8.24483657453261
H            2.11982487219908        6.22834183706513        9.70412647596877
H            0.47820045425325       -0.39565095626126       -2.98536703038476
H           -1.38873201187726       -0.57906428270188       -2.97978229468338
H           -0.20709701415651       -2.02616103512309       -2.75272013850177
H            3.83771276832831       -2.36081333506663        5.87945849666851
H            4.04429939779398       -2.46372901111685        7.81140075268384
H            4.04140359656384       -0.66655139148380        6.89385054197557
H           -1.88501497458293        0.85079557492663        8.75122246115419
H           -0.53653208249981        1.04111348208030        9.72892412941722
H           -1.32635700452866       -0.55700286450427        9.78087831137862
H           -0.83683514013122       -8.31440073968869        7.54177114129653
H           -1.61623350899328       -7.37770077230827        6.26538114947836
H           -2.06626092828954       -7.50034316046298        8.16115834785922
116
 energy: -22.575307203717 gnorm: 0.584476467798 xtb: 6.6.1 (8d0f1dd)
C           -6.11693815996134        1.60124748801829       -1.48616307787328
C           -5.43456008530381        1.90594187570956       -0.31498247964653
C           -4.65232546339289        0.81545416971302        0.26240466608324
C           -5.07217609112577       -0.55235831001769        0.10702898732118
C           -5.91296020008933       -0.89054386040964       -1.08663696079042
C           -6.35412658447948        0.20904892700717       -1.84606033671408
C           -3.51985918614531        1.21582097099806        1.25152770491496
C           -3.53852887419436        0.28556875009643        2.29819822002218
C           -4.28489596467017       -1.03441055784978        2.19508170512138
N           -4.92913020252760       -1.52599596755936        1.11327189188910
C           -2.65667798429799        2.29710265083895        1.44433746057511
C           -1.80419361233115        2.41493780185529        2.57227374602950
N           -1.70435653198686        1.28556944173525        3.38372746102751
C           -2.62315255624937        0.38906151922620        3.38340279857969
C           -2.65700489483067       -0.51076770841217        4.36737739066723
C           -3.31119102305251       -1.65962790068047        4.36181198209945
C           -4.10786720376139       -1.90470493310879        3.24409432081964
C           -2.48300986468411        3.24104451835320        0.39977011142633
C           -1.67891213665598        4.32540235934831        0.70977614498724
C           -0.63643552398432        4.28278314404537        1.70934894313481
C           -0.75068918501996        3.26516302201137        2.61381886161239
O           -3.07111492580372        3.25114493273371       -0.81293368385969
O           -5.43178268513994        3.10646563337609        0.34631983164679
C           -7.04962121840116       -0.13013074404980       -3.17349633838136
C            0.47921736441906        5.42822572330871        1.79547191805497
H           -5.99905157990696       -1.88250411376845       -1.37681978930273
H           -6.67066739342909        2.46194193183065       -1.91253183325719
H           -4.54621877416606       -2.84402820885266        3.16919708046015
H           -1.98861370243655       -0.31462410792350        5.19901017194545
H           -0.22781798814031        3.09045000294384        3.62243481412949
H           -1.88083383561529        5.32082563504101       -0.00574463066199
O           -6.49703470680583        0.33928513687465       -4.08652696182310
O           -8.10764804627885       -0.92636267202553       -3.27095813683920
C           -8.50867133321565       -1.12926687332240       -4.63398072899297
C           -3.31676966387107       -2.56296126370943        5.55597754380888
O           -3.90108468219941       -3.62266718025912        5.52059101794698
O           -2.57941177639660       -2.15299699670949        6.61822773723215
C           -3.37296235803781       -2.79493932950240        7.72932109657032
O            0.57228323397513        5.80341066437228        2.97944046562926
O            1.14253940635681        5.84110585171907        0.66291826652750
C            2.17729520084783        6.63004346617575        1.15661672441969
C           -2.51112074583367        2.25588461473148       -1.77204047455796
C           -6.22943052095179        4.31462985356043       -0.07188132358339
H            1.73656635488118        7.49230827618110        1.69588601182626
H            2.49653846240634        7.00079226430892        0.29524865058411
H            2.81533518080993        6.02505691434472        1.95842401810611
H           -4.43548146544015       -2.51017678910949        8.02186611546332
H           -2.71132332487636       -2.77106158169821        8.59798768702007
H           -3.57046052256616       -3.73022180529956        7.43869641821672
H           -7.29013565410163        4.13225795664740        0.14340170122379
H           -6.26035739321775        4.33385748825363       -1.14778851435491
H           -5.81571917054807        5.08834399695937        0.42822107686149
H           -2.43571020685391        1.31345740885901       -1.23905162019545
H           -1.33506622417848        2.34529628573102       -2.12895815172645
H           -2.98778122676587        2.40383793795724       -2.68457265586484
H           -7.63267323924058       -1.45502855285479       -5.32868293562755
H           -9.03947435985345       -0.24873105844926       -4.98112522027368
H           -9.32934261667799       -1.94959055334116       -4.49692577428508
C            1.26342176570553       -3.83895669558481        7.32678570592668
C            1.50841846453462       -2.54015709981526        6.97693371373216
C            1.00735923811493       -2.01923769850249        5.71558625525983
C            0.50642183355181       -3.07035068452128        4.87914723979395
C           -0.05252580828973       -4.24033338478526        5.34368722742997
C            0.52603282520099       -4.64960693775077        6.53928763970655
C            1.09058156816383       -0.72548413599838        5.10931114126906
C            1.36109035638701       -0.50796022342121        3.72665170421265
C            1.00788723905258       -1.63289176917091        2.92001880566820
N            0.47876599271946       -2.79258143808636        3.54007793457857
C            1.01079547303108        0.42718214990832        5.96734008736617
C            1.64963627062036        1.50577669478919        5.30673696856169
N            1.96478359691774        1.77466024981901        4.10511986417679
C            1.77562360301063        0.77591821355854        3.25860504169965
C            1.79148719021207        1.04103614161409        1.94126618736749
C            1.48549970816900        0.07260680189775        0.99441091229529
C            1.18049423427911       -1.33704869269504        1.48420040631702
C            0.56601699542453        0.45066490177271        7.30631531764493
C            1.06658418277955        1.39371343426054        8.23528292209197
C            1.95094889783522        2.26334873156923        7.76108222292821
C            1.98636476276866        2.49971795768442        6.33919782900103
O           -0.40295024119142       -0.47008911595928        7.74657976421258
O            2.51185395641291       -1.85584990041655        7.68610848418017
C            0.03119000001960       -5.98735298425450        7.19548536595180
C            2.87504500848924        3.13897053844199        8.54266775060787
H           -0.67154820744207       -4.98089933611142        4.78224457159428
H            2.05464939079126       -4.36142030620710        7.83063166514985
H            0.87597440658953       -2.14360013366513        0.80516118481793
H            1.95842952969613        2.03249983943380        1.75219636015098
H            2.59158519241803        3.32984107426910        6.00657495882422
H            1.12619091169275        1.21772893914200        9.33732423304526
O           -1.01869961025822       -6.50081003393566        6.78376092830650
O            0.40597488513153       -6.10160381141360        8.55849524297327
C           -0.62072102738342       -6.30812447038306        9.46851429462495
C            1.54448527991338        0.48479714268075       -0.39898343318558
O            2.24158150755690        1.49493793999757       -0.62269852793332
O            0.99101729231314       -0.28252774353888       -1.47827869537730
C            1.48222662833208        0.04136431073795       -2.74606367805299
O            3.87019243331286        3.65373648699804        7.95972605721257
O            2.32705014190529        3.47197408400120        9.78788463402505
C            3.14666784645679        4.32798937529313       10.41697972391340
C           -1.61032073509390        0.00213161267219        8.08625271312658
C            2.97914939708757       -2.45658461125693        8.70357813697164
H            3.13050755689047        5.30916585943005        9.78059852889603
H            4.05020150731618        3.75775269076202       10.26834580497882
H            2.79844022313496        4.43081353543730       11.45389369951560
H            0.88360036856420        0.46797404259211       -3.57501900379147
H            2.10276727452393       -0.73557960527633       -3.37737531838368
H            2.31728236817529        0.72786352339837       -2.70474248541462
H            4.11221605980050       -2.61293099207757        8.66693419379087
H            2.33455829186478       -2.99954238930843        9.35721116887856
H            3.30828562595610       -1.66081543505281        9.58674841887304
H           -2.43831352493401       -0.77016567712292        8.43573776292222
H           -1.88814541980398        0.91746035721101        7.60265151387506
H           -1.39914642957295        0.37275098522607        9.10625377979339
H           -0.14235789690890       -6.54707881097466       10.54272716351600
H           -1.17178152829785       -7.15785034043685        8.91588578309257
H           -1.35150084864672       -5.50346171665520        9.53345705470016
116
 energy: -22.588109951369 gnorm: 0.596645741437 xtb: 6.6.1 (8d0f1dd)
C           -6.40921030172696        1.59877497330325       -1.66733112342636
C           -5.33004172562036        1.94015692281696       -0.82849879195809
C           -4.84479468395763        0.71632379478262       -0.05075262089991
C           -5.67201666145129       -0.33731527588308       -0.03598197755738
C           -6.59139833566788       -0.62261850188363       -1.04834948077272
C           -7.02311903228101        0.41200814387570       -1.81503083520428
C           -3.74248892812931        0.68746386924700        0.98080482728007
C           -3.93409314555033       -0.02584889977339        2.01229174195933
C           -4.99963026104208       -0.91679826846737        2.01669658273102
N           -5.74859721574130       -1.23142162850965        0.91607862456542
C           -2.76618213208125        1.75640778062386        1.07075316149121
C           -2.18821127571404        2.14986989786008        2.27173108524592
N           -2.09602036882342        1.19181200943218        3.29326857608297
C           -3.05484423633322        0.20394027782142        3.26918117740344
C           -3.22433512524481       -0.78674217363535        4.27794548274470
C           -4.11102582038487       -1.83215281959891        4.10336869249029
C           -5.01437181409616       -1.89277101973878        2.98765860981798
C           -2.17981872463297        2.29052822563836       -0.21149283022517
C           -1.10440209451764        3.24707611278991       -0.00448398027773
C           -0.85679002054401        3.96714707161561        1.22640273355370
C           -1.44216817989243        3.19044564749212        2.32387940808364
O           -2.41390782824862        1.65889554197098       -1.43720274764666
O           -4.74447599098216        3.20925674479969       -0.51560312037826
C           -8.23171909342914        0.26135512454218       -2.84029465405351
C           -0.20517591709308        5.23882062032941        1.44382432071401
H           -6.82800418022040       -1.66670511640515       -1.23906212137429
H           -6.65127994680590        2.38042376689536       -2.45298963703908
H           -5.72451603962154       -2.71137319307836        2.87871515460023
H           -2.48494853585404       -0.86085103666852        5.12851635944813
H           -1.05952191307754        3.43915435060144        3.29929313502997
H           -0.53418083466521        3.31053676277591       -0.93675257098976
O           -9.32784809840713        0.76154672889356       -2.63609262075031