202
energy: -207.101539392814 gnorm: 0.000176343752 xtb: 6.7.1 (edcfbbe)_energy: -207.101539392814 gnorm: 0.000176343752 xtb: 6.7.1 (edcfbbe)
C         -0.37400        3.84500        1.84980
C          0.24010        2.60040        1.77200
C          1.56600        2.50390        1.28300
C          2.21850        3.73470        0.90360
C          1.47450        4.93770        0.80160
C          0.20270        4.98040        1.28790
C          2.35720        1.30810        1.28430
C          3.75540        1.51880        1.27090
C          4.29620        2.79540        0.93890
N          3.52120        3.84310        0.68080
C          1.92980       -0.06870        1.31080
C          2.92360       -1.02570        1.74240
N          4.20290       -0.74030        1.94740
C          4.65070        0.46340        1.60410
C          6.04250        0.69390        1.60270
C          6.53750        1.91870        1.20340
C          5.69670        2.95430        0.85860
C          0.71870       -0.60380        0.79300
C          0.57310       -1.99590        0.70140
C          1.47610       -2.88380        1.26930
C          2.61800       -2.40630        1.84340
O         -0.45300        1.53360        2.17810
O         -0.26700        0.12340        0.26300
S         -0.87890        6.44230        0.98240
S          1.35060       -4.71560        1.20540
S          8.36850        2.18520        1.18860
C         -2.08260       -2.24040        1.92850
C         -2.56050       -1.11440        1.26190
C         -3.34800       -1.25670        0.08550
C         -3.50100       -2.60250       -0.41670
C         -2.95940       -3.71340        0.27560
C         -2.29000       -3.52580        1.44690
C         -4.09820       -0.22130       -0.57580
C         -4.97760       -0.65850       -1.59450
C         -4.89510       -1.98220       -2.11600
N         -4.15820       -2.91480       -1.52980
C         -4.19430        1.18300       -0.24710
C         -5.46480        1.80360       -0.56940
N         -6.30760        1.32600       -1.47190
C         -6.00210        0.19450       -2.09820
C         -6.77020       -0.20710       -3.20850
C         -6.55590       -1.44030       -3.79000
C         -5.65330       -2.33440       -3.25680
C         -3.19320        2.06180        0.25300
C         -3.57860        3.32460        0.70770
C         -4.89190        3.77750        0.65840
C         -5.83450        3.04900       -0.00110
O         -2.22820        0.06360        1.78870
O         -1.88390        1.81170        0.21390
S         -1.51360       -4.94900        2.28580
S         -5.33140        5.35190        1.51380
S         -7.56040       -1.94930       -5.25700
B         -1.21930        0.87500        1.10880
O          8.51620        3.48020        0.56210
O          8.50700        2.39110        2.83860
C          8.11820        3.63720        3.35880
O         -0.14240       -4.82760        0.39000
C         -0.11800       -5.17120       -0.97400
O          2.34930       -5.02990        0.19580
O         -0.34150       -4.35470        2.92660
O         -2.65690       -5.12060        3.48230
C         -2.66580       -4.20720        4.55190
O         -8.33060       -0.76480       -5.56640
O         -8.54610       -3.00510       -4.42230
C         -9.57150       -2.43760       -3.64680
O         -6.63090        5.68490        0.96800
O         -4.18920        6.32620        0.79730
C         -4.45300        6.73800       -0.52110
O          0.03780        7.47540        0.55140
O         -1.55600        5.75720       -0.38590
C         -0.76120        5.71270       -1.54090
H        -10.39730       -3.14690       -3.62320
H         -9.90880       -1.50100       -4.10280
H         -9.22090       -2.24120       -2.62890
H         -3.95090        7.69180       -0.67150
H         -5.53170        6.86160       -0.66300
H         -4.07230        6.00070       -1.23230
H         -1.42140        5.80380       -2.40320
H         -0.21360        4.76680       -1.59470
H         -0.05300        6.54790       -1.53860
H         -3.05190       -4.72960        5.42680
H         -3.30510       -3.34930        4.32280
H         -1.64650       -3.86410        4.75130
H         -0.65270       -6.11110       -1.12020
H          0.92400       -5.29070       -1.29110
H         -0.59070       -4.37960       -1.55930
H          8.72250        3.82720        4.24440
H          7.05730        3.62880        3.62770
H          8.29940        4.42340        2.61840
H         -7.52550        0.45730       -3.60030
H         -5.52850       -3.32260       -3.67030
H         -6.82920        3.42770       -0.17260
H         -3.11420       -4.69230       -0.14650
H         -2.81530        3.99100        1.06850
H         -1.48090       -2.08400        2.81090
H         -1.33920        3.89420        2.32640
H         -0.28700       -2.36630        0.16850
H          3.37370       -3.06310        2.24210
H          1.95650        5.81740        0.40540
H          6.10160        3.90080        0.53230
H          6.69700       -0.10800        1.90510
C         -0.37400        3.84500        9.84980
C          0.24010        2.60040        9.77200
C          1.56600        2.50390        9.28300
C          2.21850        3.73470        8.90360
C          1.47450        4.93770        8.80160
C          0.20270        4.98040        9.28790
C          2.35720        1.30810        9.28430
C          3.75540        1.51880        9.27090
C          4.29620        2.79540        8.93890
N          3.52120        3.84310        8.68080
C          1.92980       -0.06870        9.31080
C          2.92360       -1.02570        9.74240
N          4.20290       -0.74030        9.94740
C          4.65070        0.46340        9.60410
C          6.04250        0.69390        9.60270
C          6.53750        1.91870        9.20340
C          5.69670        2.95430        8.85860
C          0.71870       -0.60380        8.79300
C          0.57310       -1.99590        8.70140
C          1.47610       -2.88380        9.26930
C          2.61800       -2.40630        9.84340
O         -0.45300        1.53360       10.17810
O         -0.26700        0.12340        8.26300
S         -0.87890        6.44230        8.98240
S          1.35060       -4.71560        9.20540
S          8.36850        2.18520        9.18860
C         -2.08260       -2.24040        9.92850
C         -2.56050       -1.11440        9.26190
C         -3.34800       -1.25670        8.08550
C         -3.50100       -2.60250        7.58330
C         -2.95940       -3.71340        8.27560
C         -2.29000       -3.52580        9.44690
C         -4.09820       -0.22130        7.42420
C         -4.97760       -0.65850        6.40550
C         -4.89510       -1.98220        5.88400
N         -4.15820       -2.91480        6.47020
C         -4.19430        1.18300        7.75290
C         -5.46480        1.80360        7.43060
N         -6.30760        1.32600        6.52810
C         -6.00210        0.19450        5.90180
C         -6.77020       -0.20710        4.79150
C         -6.55590       -1.44030        4.21000
C         -5.65330       -2.33440        4.74320
C         -3.19320        2.06180        8.25300
C         -3.57860        3.32460        8.70770
C         -4.89190        3.77750        8.65840
C         -5.83450        3.04900        7.99890
O         -2.22820        0.06360        9.78870
O         -1.88390        1.81170        8.21390
S         -1.51360       -4.94900       10.28580
S         -5.33140        5.35190        9.51380
S         -7.56040       -1.94930        2.74300
B         -1.21930        0.87500        9.10880
O          8.51620        3.48020        8.56210
O          8.50700        2.39110       10.83860
C          8.11820        3.63720       11.35880
O         -0.14240       -4.82760        8.39000
C         -0.11800       -5.17120        7.02600
O          2.34930       -5.02990        8.19580
O         -0.34150       -4.35470       10.92660
O         -2.65690       -5.12060       11.48230
C         -2.66580       -4.20720       12.55190
O         -8.33060       -0.76480        2.43360
O         -8.54610       -3.00510        3.57770
C         -9.57150       -2.43760        4.35320
O         -6.63090        5.68490        8.96800
O         -4.18920        6.32620        8.79730
C         -4.45300        6.73800        7.47890
O          0.03780        7.47540        8.55140
O         -1.55600        5.75720        7.61410
C         -0.76120        5.71270        6.45910
H        -10.39730       -3.14690        4.37680
H         -9.90880       -1.50100        3.89720
H         -9.22090       -2.24120        5.37110
H         -3.95090        7.69180        7.32850
H         -5.53170        6.86160        7.33700
H         -4.07230        6.00070        6.76770
H         -1.42140        5.80380        5.59680
H         -0.21360        4.76680        6.40530
H         -0.05300        6.54790        6.46140
H         -3.05190       -4.72960       13.42680
H         -3.30510       -3.34930       12.32280
H         -1.64650       -3.86410       12.75130
H         -0.65270       -6.11110        6.87980
H          0.92400       -5.29070        6.70890
H         -0.59070       -4.37960        6.44070
H          8.72250        3.82720       12.24440
H          7.05730        3.62880       11.62770
H          8.29940        4.42340       10.61840
H         -7.52550        0.45730        4.39970
H         -5.52850       -3.32260        4.32970
H         -6.82920        3.42770        7.82740
H         -3.11420       -4.69230        7.85350
H         -2.81530        3.99100        9.06850
H         -1.48090       -2.08400       10.81090
H         -1.33920        3.89420       10.32640
H         -0.28700       -2.36630        8.16850
H          3.37370       -3.06310       10.24210
H          1.95650        5.81740        8.40540
H          6.10160        3.90080        8.53230
H          6.69700       -0.10800        9.90510
