202
 energy: -39.531872691620 gnorm: 0.000909559434 xtb: 6.7.1 (edcfbbe)
 C   -1.039000    4.106900    1.253100
 C   -0.276700    3.401800    2.174100
 C    1.147800    3.393000    2.019200
 C    1.728100    4.363400    1.148900
 C    0.897300    5.039100    0.233000
 C   -0.463400    4.889000    0.273100
 C    2.013500    2.584800    2.826400
 C    3.312100    3.085100    2.994700
 C    3.761500    4.186800    2.207000
 N    3.019400    4.745800    1.234700
 C    1.726400    1.309700    3.421000
 C    2.705600    0.774500    4.314200
 N    3.836300    1.421400    4.677800
 C    4.176400    2.510300    3.970000
 C    5.439300    3.080700    4.171000
 C    5.863700    4.141800    3.403900
 C    5.049700    4.682000    2.436300
 C    0.656100    0.440400    2.996100
 C    0.698000   -0.896400    3.370500
 C    1.619100   -1.378500    4.274600
 C    2.583200   -0.550800    4.768900
 O   -0.886600    2.804500    3.264200
 O   -0.422300    0.792700    2.201500
 S   -1.529600    5.742900   -0.918000
 S    1.548300   -3.125000    4.767200
 S    7.505200    4.859700    3.668100
 C   -1.957000   -1.483200    4.158800
 C   -2.684500   -0.448200    3.576800
 C   -3.802800   -0.774900    2.718000
 C   -4.002300   -2.152700    2.397800
 C   -3.096500   -3.117100    2.872700
 C   -2.107700   -2.795200    3.755100
 C   -4.850500    0.133700    2.333800
 C   -6.043800   -0.420700    1.856000
 C   -6.090700   -1.797100    1.498400
 N   -5.065200   -2.634300    1.715300
 C   -4.885900    1.551100    2.521800
 C   -6.144100    2.211100    2.626100
 N   -7.299800    1.639900    2.231000
 C   -7.222100    0.383700    1.751200
 C   -8.375300   -0.199300    1.210800
 C   -8.386600   -1.514800    0.804000
 C   -7.271500   -2.306300    0.948200
 C   -3.703100    2.357900    2.527700
 C   -3.770100    3.628100    3.093600
 C   -4.996400    4.201600    3.387000
 C   -6.160600    3.535800    3.101300
 O   -2.209000    0.815400    3.887300
 O   -2.578200    1.880400    1.882900
 S   -0.984500   -4.091000    4.371100
 S   -5.081900    5.868900    4.084100
 S   -9.905200   -2.210400    0.112800
 B   -1.516700    1.567500    2.822400
 O    7.314500    6.143100    2.893300
 O    7.248800    5.402000    5.236100
 C    6.227300    6.337100    5.305400
 O    1.515700   -3.746700    3.197500
 C    2.728800   -3.597300    2.537600
 O    3.014500   -3.300500    5.130600
 O   -1.121900   -3.793400    5.852800
 O   -2.078200   -5.362700    4.157500
 C   -3.059300   -5.378000    5.131600
 O  -10.832100   -1.791600    1.234800
 O   -9.566800   -3.812000    0.518500
 C   -9.977900   -4.134000    1.803400
 O   -6.107900    6.438000    3.130700
 O   -3.645800    6.418600    3.405100
 C   -3.777900    6.729600    2.057500
 O   -1.238700    4.875600   -2.127500
 O   -2.982500    5.083100   -0.365500
 C   -3.267600    3.855800   -0.954000
 H   -9.805900   -5.198900    1.981600
 H  -11.042700   -3.899100    1.901900
 H   -9.406500   -3.536800    2.516700
 H   -2.866400    7.226700    1.715600
 H   -4.636400    7.398400    1.935400
 H   -3.936200    5.813700    1.481400
 H   -4.192900    3.458600   -0.526900
 H   -2.442500    3.159800   -0.774000
 H   -3.381500    4.007100   -2.031800
 H   -2.586500   -5.633700    6.083700
 H   -3.816900   -6.122300    4.872000
 H   -3.504500   -4.381000    5.189400
 H    3.516600   -4.048100    3.149200
 H    2.938900   -2.535200    2.387400
 H    2.670400   -4.103900    1.570400
 H    6.217900    6.778400    6.305800
 H    5.275300    5.834100    5.113600
 H    6.406400    7.113900    4.554000
 H   -9.277700    0.383700    1.153600
 H   -7.320900   -3.348300    0.686600
 H   -7.104300    4.038500    3.221000
 H   -3.252300   -4.147500    2.606000
 H   -2.867900    4.191400    3.248200
 H   -1.223100   -1.227400    4.904200
 H   -2.107700    4.040600    1.307400
 H   -0.011400   -1.570800    2.927300
 H    3.330400   -0.950400    5.432100
 H    1.345200    5.699200   -0.488500
 H    5.397900    5.528500    1.869900
 H    6.080500    2.673100    4.932400
 C    1.370100    3.463800    7.370300
 C    1.445700    2.220900    7.993700
 C    2.737500    1.666100    8.312000
 C    3.865300    2.534300    8.140700
 C    3.718400    3.765100    7.474700
 C    2.488400    4.234100    7.126100
 C    2.967600    0.389100    8.954000
 C    4.168200    0.306000    9.690700
 C    5.165000    1.320600    9.580300
 N    5.067800    2.340500    8.718400
 C    2.200600   -0.834000    8.883700
 C    2.623300   -1.925200    9.710100
 N    3.618300   -1.864000   10.617500
 C    4.417300   -0.793200   10.564800
 C    5.566800   -0.792000   11.366700
 C    6.496300    0.215300   11.270000
 C    6.311500    1.245300   10.381100
 C    1.170600   -1.126300    7.918500
 C    0.726100   -2.433900    7.756500
 C    1.152400   -3.461500    8.569200
 C    2.055000   -3.201200    9.551800
 O    0.253200    1.671000    8.428800
 O    0.558400   -0.212500    7.087100
 S    2.339800    5.905700    6.442300
 S    0.524800   -5.159500    8.361700
 S    7.970600    0.196600   12.316700
 C   -1.876200   -2.208000    8.884600
 C   -2.229600   -1.089000    8.138900
 C   -3.296100   -1.188500    7.169200
 C   -3.850200   -2.495400    6.962200
 C   -3.401000   -3.588800    7.724800
 C   -2.430100   -3.447500    8.666200
 C   -3.998400   -0.081300    6.562000
 C   -5.230300   -0.391200    5.950000
 C   -5.583300   -1.743800    5.670500
 N   -4.856800   -2.779800    6.107000
 C   -3.717600    1.328300    6.671800
 C   -4.808800    2.240600    6.518300
 N   -6.004000    1.914300    5.996600
 C   -6.180900    0.633200    5.652000
 C   -7.404300    0.284200    5.065400
 C   -7.700500   -1.019600    4.751200
 C   -6.796800   -2.018000    5.025200
 C   -2.416100    1.911400    6.890100
 C   -2.335600    3.228700    7.336900
 C   -3.445700    4.050800    7.345600
 C   -4.644100    3.581900    6.897200
 O   -1.487700    0.025900    8.476900
 O   -1.246000    1.260200    6.548500
 S   -1.857400   -4.889000    9.613000
 S   -3.361400    5.776900    7.867600
 S   -9.319600   -1.401000    4.036200
 B   -0.471900    0.682200    7.632400
 O    8.303600    1.671100   12.250900
 O    7.157600    0.103400   13.784900
 C    6.510800    1.288900   14.107200
 O    1.169700   -5.446900    6.828000
 C    2.557600   -5.493600    6.825800
 O    1.549100   -5.879700    9.221500
 O   -1.120900   -4.131400   10.708400
 O   -3.341100   -5.205200   10.362500
 C   -3.643600   -4.276700   11.349700
 O  -10.170700   -0.790500    5.129200
 O   -9.308400   -3.028800    4.470100
 C   -9.760700   -3.222400    5.768300
 O   -4.327600    6.349100    6.850700
 O   -1.884200    6.136100    7.157000
 C   -1.929300    6.094600    5.770200
 O    3.347100    5.793500    5.317500
 O    0.897600    5.651400    5.631100
 C    1.056300    4.779900    4.575200
 H   -9.763000   -4.292100    5.994500
 H  -10.775300   -2.817800    5.844100
 H   -9.106900   -2.690600    6.465500
 H   -1.006000    6.533500    5.382100
 H   -2.790600    6.672500    5.422800
 H   -2.016300    5.058400    5.434100
 H    0.069200    4.458200    4.235600
 H    1.633000    3.908800    4.895200
 H    1.600500    5.298100    3.780000
 H   -4.554900   -4.590900   11.865400
 H   -3.791900   -3.293300   10.895600
 H   -2.807000   -4.237300   12.055000
 H    2.888800   -6.222900    7.572000
 H    2.953800   -4.500900    7.058100
 H    2.893900   -5.788700    5.827800
 H    6.086600    1.198400   15.111200
 H    5.714100    1.483500   13.384100
 H    7.243000    2.102900   14.082000
 H   -8.135300    1.053700    4.886900
 H   -7.062900   -3.041200    4.830700
 H   -5.478900    4.255600    6.812300
 H   -3.881900   -4.542300    7.599000
 H   -1.384300    3.632400    7.619100
 H   -1.123700   -2.100500    9.646600
 H    0.411500    3.870400    7.116600
 H   -0.009900   -2.635000    6.999600
 H    2.395600   -4.010900   10.174700
 H    4.589000    4.376100    7.313300
 H    7.041500    2.034600   10.332500
 H    5.720400   -1.600700   12.059300
