116
 energy: -22.928061455056 gnorm: 0.329736929581 xtb: 6.6.1 (8d0f1dd)
C           -3.31122850772930        0.79849766164622       -0.92477639677520
C           -2.44380812530352       -0.12270372891954       -0.27661132624697
C           -1.41337090092821        0.39579727573559        0.56335275196199
C           -0.89266158675590        1.65801491088749        0.27377586709581
C           -1.72665675402493        2.51431363229076       -0.49448366572522
C           -2.95444148494349        2.13954154133227       -1.01494489940871
C           -0.74098268209890       -0.43411532818871        1.49825021926784
C            0.56872586496315        0.03782116815119        1.86248088067890
C            1.03782416582094        1.29402317993033        1.50887470833621
N            0.31238977034758        2.07067427098208        0.65193736800696
C           -1.29695700510141       -1.39996043042223        2.41574187746061
C           -0.38243517664656       -2.18060797534842        3.13232615520648
N            0.91308504082021       -1.90366887689689        3.30325166013478
C            1.37712470144904       -0.74872102533751        2.81811050966982
C            2.52149331701875       -0.17739833758153        3.39379298866852
C            2.95849061756259        1.02681208890480        2.95105897606587
C            2.24288949469137        1.78498308775960        2.03503020483770
C           -2.74860936222260       -1.74497937691422        2.38401158947411
C           -3.09416315450955       -2.91614440870436        3.00571134491758
C           -2.16786021984049       -3.77788778654213        3.63251872101904
C           -0.85708937311598       -3.40495313382985        3.68547234358092
O           -3.71994433332149       -0.94984598373544        1.67726658385724
O           -2.55702603277562       -1.47241711578389       -0.57241635275616
C           -3.84297843593025        3.13357444054366       -1.60938954875544
C           -2.68769581069131       -5.03867041417370        4.30484659386931
H           -1.39666850744143        3.51251503834900       -0.76806311868865
H           -4.27662633836220        0.55105838579656       -1.33106614114542
H            2.66329581305412        2.73912661909249        1.72562431984580
H            3.05775395548473       -0.69369546277216        4.16536137542516
H           -0.24710966264510       -4.12034095424229        4.22946223699121
H           -4.11477991332403       -3.04712728052358        3.03244694615357
O           -4.21824883374556        4.03433712717988       -0.87713382485991
O           -4.44510595673734        2.90643496899600       -2.81853501752979
C           -5.44216520282800        3.83300025693726       -3.02488532025093
C            4.23586651889298        1.50004220933226        3.59165660008449
O            5.05927614697201        0.66079890002952        3.91714215179376
O            4.47001334453535        2.86385149488593        3.72605651435371
C            5.79457498613219        3.08584475587818        4.15829123132174
O           -3.82227255313510       -5.27347675879771        4.16636005494405
O           -1.85023202017753       -5.79767454267276        5.06656077253571
C           -2.55119635829503       -6.86252441382958        5.62930343183426
C           -5.07197156564436       -1.42399175670916        1.58830531863830
C           -1.33089900128490       -2.23622472573986       -0.99264499351172
H           -2.54510546830388       -7.76426885143998        4.99136022291012
H           -3.57194749219491       -6.44405511486021        5.74196173723541
H           -2.09133598235598       -7.02043774843818        6.64022264233588
H            5.72707967266424        3.46798026205549        5.10135971236643
H            6.34060091246885        3.78468702308830        3.50069950143490
H            6.17933064298187        2.03010500085905        4.19342358084693
H           -0.91862729772622       -2.57650129080332       -0.01361370304871
H           -0.49769766914251       -1.60651221708571       -1.34094446550576
H           -1.52632419730509       -2.94569707152159       -1.75361447637286
H           -5.11788846557077       -2.41810833635233        1.17520213188926
H           -5.67929807973498       -0.69619639428435        1.04301666067831
H           -5.57598832326623       -1.42383358739762        2.57928294206544
H           -6.13050215934830        3.76035386975488       -2.23272855695873
H           -5.86615610071888        3.45938329385866       -4.02668959924245
H           -5.13479557532099        4.87790991548477       -2.98314551356402
C           -1.38192942069774        3.73616555005018        2.91232598411686
C           -1.84821468128685        2.59982427735607        3.49755545445181
C           -1.05946531454833        2.05730632010638        4.60922730982276
C            0.19893954712228        2.69376791964407        4.86302140881997
C            0.50425395911860        3.94630308659851        4.28768785650746
C           -0.26031777722226        4.46998310053134        3.25072669343212
C           -1.20488993561782        0.74454293276906        5.14851520323437
C           -0.06287609782692        0.02744069315890        5.60930570802864
C            1.19208754369866        0.71421540266195        5.78882868583885
N            1.19428660993148        2.06344359410476        5.62744624321596
C           -2.41361422770794        0.07928500213936        5.25249410304426
C           -2.45851584031083       -1.32662100968547        5.60237876023992
N           -1.29466212405906       -1.98318595734370        5.89916817085159
C           -0.14475655767527       -1.32117560077092        5.98824682881008
C            0.97209270935794       -1.98958449505532        6.53157704134458
C            2.21982707914082       -1.36973967291181        6.68703967237737
C            2.30561929262884       -0.09745313075593        6.26436900324455
C           -3.73018485967715        0.71367583494582        5.25810242262992
C           -4.89964478833448       -0.06184623426677        5.21204641615509
C           -4.82617965800088       -1.39228978090841        5.46901303780036
C           -3.67144193418464       -1.98914944386360        5.67265433266067
O           -3.75568638935321        2.07705011038914        5.52067969627343
O           -2.94192434743730        1.91263938797883        3.01658762327703
C            0.21273512614467        5.50086066357994        2.34765104514621
C           -6.06660304520411       -2.17604633098929        5.80641622556876
H            1.41756699010566        4.38133362238595        4.66974005703471
H           -1.82880610647429        4.11982501512100        2.06992133318584
H            3.26888037378556        0.32655662585251        6.31721410015598
H            0.87146188387207       -3.08471526305024        6.57830423410869
H           -3.67716811065157       -3.05999292755990        5.83019634570050
H           -5.77379677507622        0.43595144608221        4.71017130754348
O            1.34459852619901        5.82615848916894        2.44941456579099
O           -0.74718748219123        6.07961784856304        1.59848183464284
C           -0.21473095568964        7.24015934882472        1.05753806029483
C            3.53228080814219       -2.00967610361154        7.02506769044485
O            3.64093082622715       -3.14437803815732        7.50071391725347
O            4.56565258381079       -1.22937033368332        6.69086985080897
C            5.72579357310716       -1.80692399125161        7.22246151275881
O           -7.04801223588612       -1.95726935745904        5.14194115322235
O           -6.01514389321278       -2.93743591896022        6.94765316328794
C           -7.21292732384718       -3.62681918543340        7.15115816329978
C           -4.95459780685163        2.65960679932188        5.86868674392943
C           -3.68284113682406        2.59129188358641        2.05479246020704
H           -7.43119628931628       -4.22607794725959        6.20622607140901
H           -8.06548455146707       -2.91765848248592        7.29781126410398
H           -7.07314693247270       -4.33087306029711        7.91223421050944
H            6.57332189837178       -1.29353136199234        6.78341268688262
H            5.74663761932316       -2.84282155125561        6.88089468184451
H            5.69426191474290       -1.72781984964892        8.29460302186842
H           -4.10481209541493        3.44288266176275        2.60483747673152
H           -4.49244774344916        1.87419893016926        1.82433103764650
H           -3.18901540870812        2.85154642679373        1.06781919454921
H           -5.55414326821421        2.76698137191684        4.93950725322359
H           -4.78658370641210        3.62090640967288        6.25983200635257
H           -5.43485580473958        1.97242995129449        6.65265772412460
H            0.89164886030839        7.38838561720231        1.13776105146914
H           -0.62894889903848        8.04195665205089        1.64837664327952
H           -0.59282546386754        7.45699159724320        0.03719083132488
116
 energy: -22.844983377856 gnorm: 0.413624328106 xtb: 6.6.1 (8d0f1dd)
C           -3.38697900992296        0.81316943145623       -0.87947472872333
C           -2.54729677259925       -0.23187351997849       -0.39998269624449
C           -1.44414170095760        0.22777815326340        0.40777455682841
C           -0.97251422231598        1.58554492330744        0.23104540412867
C           -1.94419361496847        2.55730845568840       -0.23060720576810
C           -3.14772553249040        2.18720075800163       -0.72056389957186
C           -0.85559912037383       -0.51441608768178        1.46549244521130
C            0.42552191565648       -0.10240106001373        1.76237878420428
C            0.93726189119311        1.15388973159191        1.38929672244795
N            0.27949663536121        2.04515281929852        0.64185311795095
C           -1.42579315946380       -1.65400784823157        2.15632834500972
C           -0.49271314598214       -2.41379038213022        2.93574857677974
N            0.77874303455745       -2.05391771151795        3.08243415404741
C            1.18184081425971       -0.86181044978964        2.67825435704826
C            2.52052001269948       -0.56109344275204        2.97814720083241
C            2.97541165011558        0.69234920987227        2.60365500745515
C            2.14032249597480        1.54752123239395        1.93055833012782
C           -2.83660517036641       -2.00896874992010        2.15907442275760
C           -3.21405614929626       -3.31536176424591        2.54318661511289
C           -2.15207487106796       -4.09920561604347        3.18260603958858
C           -0.87257156131576       -3.62438256968681        3.37319659275946
O           -3.71866946136782       -0.96489278413231        1.89431534247023
O           -2.77724317167955       -1.60269339222414       -0.68700012481898
C           -4.11858918911760        3.18118260314415       -1.13877793416442
C           -2.68676878974955       -5.23224161667295        3.88127484317733
H           -1.85243084135450        3.59730423601303       -0.05406239475398
H           -4.21367788288323        0.39198672981240       -1.38353251029250
H            2.56106692623937        2.50118098904552        1.64700300231925
H            3.10033287691901       -1.39225805921912        3.40850534316258
H           -0.06602287650336       -4.30027535686338        3.65820197145409
H           -4.17641960931419       -3.69141421149640        2.43467068523278
O           -3.95320727408608        4.31588600422067       -0.78433213097164
O           -5.11053301431142        2.90447837095631       -2.07258598611656
C           -5.63563532585092        4.13817244790494       -2.58830378492724
C            4.33245197857189        0.99860192369672        2.98355288892230
O            4.81049961752986        0.13891770457688        3.77198288899356
O            4.93405107559823        2.06672359409352        2.32797641615887
C            5.98102854239668        2.56912658690726        3.17026334375173
O           -3.73094643837525       -5.82863801723331        3.49410245147861
O           -1.98666478395172       -5.60471569909929        5.04144720739850
C           -2.43274641128618       -6.83206558772650        5.61415411397533
C           -5.10511652504346       -1.35026542575248        1.90802073128806
C           -1.62192539699012       -2.30743422488661       -1.14224839992616
H           -2.87266800877535       -6.66243081231730        6.53352128491835
H           -1.62818936541815       -7.49280026834965        5.70216044540849
H           -3.28175832890905       -7.34362770199950        4.95661318631158
H            5.60730664084712        2.60057445623875        4.17090399013434
H            6.36612366079717        3.42884152335747        2.81559320681952
H            6.71802621417152        1.77880846598523        3.17287677403214
H           -2.03183534046762       -3.03618333697402       -1.77867877320926
H           -0.96239087138343       -2.70608807771290       -0.30795741149455
H           -0.92139538477579       -1.71022021148382       -1.73696361970631
H           -5.49559014250715       -1.76101306932387        0.88344440101319
H           -5.85363925564201       -0.53189772879576        2.23323058820678
H           -5.35022959891040       -2.11109975916021        2.69072252909309
H           -6.17128530887811        4.58760743835202       -1.69898914947669
H           -6.21826775348458        4.12901911528818       -3.50557046483385
H           -4.76315320531047        4.84897269065710       -2.58769586181502
C           -1.49609362017597        3.74250831829758        3.21146219498133
C           -1.72733859851937        2.62996563515824        3.99439194433871
C           -0.74028560343368        2.25026677898232        4.86798100045575
C            0.56540861051661        2.81699094774227        4.96543175774317
C            0.78701035166082        3.91576454161152        4.13085280013033
C           -0.16504832945898        4.34083757933778        3.19785799539999
C           -0.93460342772351        0.94096466721388        5.47481288660373
C            0.22640227463496        0.15766014341386        5.75248846676146
C            1.48854020363259        0.88900168948362        5.77712315156855
N            1.67891917331195        2.19174089915665        5.57375822064472
C           -2.18038987107234        0.25816227715112        5.71531531000184
C           -2.12965276113205       -1.21078050236877        5.71399322981830
N           -1.03311836751610       -1.78101673650362        6.07566694775290
C            0.13754089333345       -1.15435606587657        6.19258341058493
C            1.31311564934824       -1.76566650229871        6.77139952306588
C            2.49755278865875       -1.09141860401415        6.75804173855282
C            2.59489490524656        0.24339241755551        6.32123914080594
C           -3.44047045880030        0.89569286440108        5.99789272671520
C           -4.65763055477848        0.15067903298016        5.67731099826426
C           -4.65042872227293       -1.16955892839367        5.29226015926107
C           -3.42429698331897       -1.90140885191389        5.55289346323328
O           -3.44520298308043        2.26407910659533        6.35248505095342
O           -2.95064435413579        1.94916220569103        3.70724223345099
C            0.02945606772227        5.46930011714166        2.25378711349434
C           -5.91217260655977       -1.77655802608812        4.91517203426133
H            1.72528307152968        4.47182168701370        4.19507352633500
H           -1.98370386035629        3.79724336062067        2.30561588983585
H            3.48183062852042        0.76716839302427        6.52685228581635
H            1.28675231987996       -2.77629720681824        7.13347433790133
H           -3.56179506035777       -3.01568188397349        5.69836042305591
H           -5.59516317214984        0.70028377228274        5.67004897590705
O            1.03571156770921        6.09395150621594        2.18297394397656
O           -1.08177330254050        5.62796788903744        1.44512515864881
C           -0.70290459406525        6.47118392143259        0.40633350546405
C            3.49045408999579       -1.40159909693366        7.78229070469455
O            3.61874891958270       -2.56515663648683        8.16181417388841
O            4.21957909535481       -0.28975371676135        8.23725972116199
C            5.06596636592627       -0.89625706426529        9.11646812561482
O           -6.80382651829585       -1.08227740929592        4.42491800130900
O           -5.90110578886664       -3.21600958239651        5.11365473971527
C           -7.05063794366633       -3.67444177509270        4.54185743068620
C           -4.61399941057164        2.58328456432659        7.09124837930852
C           -4.02232853676385        2.70612572219631        3.10318016790704
H           -7.22815839136481       -3.04000660887331        3.74451712477709
H           -7.94592777297348       -3.55736293797244        5.14820996951972
H           -7.12084932544505       -4.76888359314187        4.27537834934837
H            5.85741116811320       -1.61315156250887        8.70574884039697
H            4.38676056646067       -1.39145617658541        9.90343390373931
H            5.70168771637546       -0.04507037986217        9.53500455099007
H           -4.51167637209478        3.62819522114814        3.57028115225310
H           -4.89486352198797        1.94438937352065        3.26607214878380
H           -3.92517240325238        2.85219020462575        2.00607900701176
H           -4.57670900522763        1.83439020747490        7.96192299418565
H           -5.49559333468432        2.40153601024065        6.39187828498074
H           -4.49708550417469        3.57568688064894        7.49839471595180
H           -1.51297034823526        6.58853836563283       -0.38910297298910
H            0.04929087923115        6.00984331570421       -0.24985570075310
H           -0.26360722788961        7.44196134479583        0.76939109002557
116
 energy: -22.885913819105 gnorm: 0.358743861420 xtb: 6.6.1 (8d0f1dd)
C           -3.14365529893236        0.74078761554455       -1.13156148073270
C           -2.53148369259097       -0.31207359947656       -0.38073050595216
C           -1.48973210581811        0.13023663944619        0.54657271809128
C           -0.85462058175451        1.41252171410979        0.37903074318573
C           -1.40493470112086        2.31966985308260       -0.50867358178040
C           -2.59161260552104        2.01931433478837       -1.18916524005494
C           -0.93357196952413       -0.64814810806361        1.60873559972036
C            0.38267652155121       -0.31972182021411        2.03301097902588
C            1.06926378407639        0.83346624554304        1.49698794723923
N            0.41388077907892        1.69785304176432        0.74832889112356
C           -1.53191582888291       -1.74684743160714        2.26912693441051
C           -0.69611666339362       -2.52570788023392        3.12547102233318
N            0.55750251568718       -2.20050630106924        3.51996568198135
C            1.17635946792628       -1.13296715596798        2.94655475097805
C            2.47284719696288       -0.69949543010446        3.43275734252712
C            3.05354359174235        0.40850525161393        2.86934864090955
C            2.40706563405015        1.12458581483739        1.89774118506760
C           -2.94774104954188       -1.95021894260436        2.38104100339879
C           -3.43762392865365       -3.17886898260572        2.96708341000254
C           -2.62773821484086       -4.11195808473136        3.62377378954636
C           -1.33424799999658       -3.62234103117277        3.73840758038203
O           -3.87492830106015       -1.04878130357709        1.89992861077928
O           -2.91146830104931       -1.67957196406449       -0.62241088947422
C           -3.38103037740169        3.18982991235705       -1.67368788475012
C           -2.91099213001854       -5.57287666692228        3.98936747774519
H           -0.90707890648749        3.22187367286485       -0.77792318566856
H           -4.08092053379965        0.68555509367846       -1.59603382595353
H            2.89834654643346        2.07813804380843        1.68545291059844
H            3.07370968399248       -1.20501040739451        4.21528243342170
H           -0.65233431191113       -4.20895096678016        4.35331329300382
H           -4.37100708264140       -3.48357372264082        2.62260516349089
O           -2.90118139189357        4.32573008117761       -1.58596892142089
O           -4.64694338205816        2.74353228609319       -1.96561650235650
C           -5.40887381222817        3.73589071469344       -2.62191097715371
C            4.44458780737752        0.86150543015241        3.26532623503475
O            4.98778836153031        0.24143647813686        4.13783105789786
O            4.86791593044098        1.97932243054053        2.63980317764081
C            6.04372866358991        2.49491258636654        3.23035257480978
O           -4.10711518424155       -5.91119829661844        4.03328921511202
O           -1.90765178869868       -6.43887461815607        4.09171719389867
C           -2.29546386570676       -7.73021316241304        4.09700523087893
C           -5.28928572025601       -0.95251402895303        2.33609456417536
C           -3.58613538687439       -2.04760232012162       -1.80215127289289
H           -1.46609800469959       -8.38289033863688        4.31082694907382
H           -2.70092573488062       -8.07991157050554        3.10340873716965
H           -3.10948951016772       -7.85047499677195        4.85037590099151
H            5.84393445870762        2.38177809841884        4.33082594201626
H            6.15174885629054        3.53173308337412        2.81767705944903
H            6.80871515603241        1.81662890528293        2.99137016622037
H           -3.58936303934649       -3.16606352419190       -1.89967735569660
H           -2.97376753122778       -1.71183683145173       -2.59751609313857
H           -4.52738446376861       -1.47195023061931       -1.94965353791923
H           -5.60929901255083       -0.26741984502664        1.46632862700007
H           -5.40586097655331       -0.25591000319730        3.24171277189629
H           -5.71469344641141       -1.96723675350989        2.43786857175817
H           -5.45827221811402        4.63309012758709       -2.01103853380066
H           -6.36202989353710        3.29423981745388       -2.73307476382049
H           -5.03457077752940        3.98080227932936       -3.62977837242771
C           -1.53976117039820        4.08305747841598        3.17883843229093
C           -1.80086415499048        2.83882221129901        3.77457432704283
C           -0.92135353634685        2.39195891125852        4.86699370217104
C            0.27935922499923        3.09706245839449        5.13263112797390
C            0.44304605110192        4.39393232803290        4.54629012557235
C           -0.43299922991781        4.84915891717658        3.54329177230643
C           -1.09109401100617        1.12864310000690        5.45941981366228
C            0.06027915144262        0.55893609057635        6.08205954927420
C            1.21042078083090        1.32826334559155        6.22498353120107
N            1.33719923520906        2.59831525269344        5.70665230488159
C           -2.27754373372601        0.40764969990609        5.64377335292386
C           -2.24539505584560       -0.91466586196701        6.11463033921573
N           -1.06918910446352       -1.58220650018129        6.38589592998321
C            0.03264890973435       -0.80906408209768        6.59259246562109
C            1.10237782250381       -1.29084651276849        7.24176272256356
C            2.24723886388385       -0.48010866182858        7.29613711493358
C            2.32348494967861        0.79660630093693        6.85845809262982
C           -3.62632969463761        0.96419531018652        5.61105260865934
C           -4.77067040313852        0.11349432626062        5.60776792086670
C           -4.64530477108818       -1.28961714297710        5.67836585537351
C           -3.42369843118706       -1.69833029462732        5.98414696395872
O           -3.76531152346956        2.34139357376169        5.36171275749048
O           -2.69002408844538        1.95003241398031        3.27013876867672
C            0.00550755157556        5.92866833247547        2.60938668616493
C           -5.83192385968891       -2.16797748231571        5.41447433115393
H            1.35956736499411        4.87760963566198        4.86618816339300
H           -1.89184992181606        4.35571620826572        2.24745384565692
H            3.25711092107765        1.24378050897634        6.65556477686841
H            1.33188170462679       -2.34714941006488        7.47730170233462
H           -3.33004104990797       -2.73885193421318        6.38224937464224
H           -5.74728340974049        0.50052741094800        5.37925204168348
O            0.93361702572936        6.73868541987663        2.94771461521128
O           -0.55803645606995        5.92839071127307        1.32285018161205
C           -0.33692414152002        7.14460745417254        0.66477589096753
C            3.56622118885871       -1.23406471675150        7.60310809092932
O            3.58222649766639       -2.42360044718523        7.84305904365226
O            4.73527622211423       -0.48289959433075        7.56676000914725
C            5.89345471004895       -1.26896475751941        7.73809545494669
O           -6.87578995933300       -1.64385689946784        4.95633899638700
O           -5.42277371676952       -3.44286146828954        5.65940447695879
C           -6.45998395443008       -4.38165548406264        5.60979781248750
C           -5.02605013223339        2.78748131106534        5.88197348870043
C           -3.74763193616425        2.47786681850312        2.51958737511633
H           -7.32485751705307       -4.00424191177423        5.01704503637898
H           -6.85330662130911       -4.47136013756393        6.63110694916081
H           -6.09098565822352       -5.34401772238707        5.26062766888745
H            5.68965272481966       -2.22553407123589        7.33631025272587
H            5.97943265352490       -1.50425335360850        8.73446851927577
H            6.83310508544943       -0.90950168094708        7.37000915563582
H           -3.52846946266716        3.59914659865016        2.62471568606243
H           -4.72398924160636        2.12103409208326        2.87313720062298
H           -3.58478632562239        2.32933223655333        1.43468906224088
H           -5.61392889202502        3.01461414929199        4.88874903743775
H           -5.04398767870967        3.59830375289043        6.56426302392897
H           -5.58004193229582        1.93843342188889        6.42939074236634
H           -0.88839461768270        7.24982293002484       -0.23113014731829
H            0.78493504181235        7.31124208563234        0.42779080868258
H           -0.56250524454285        7.95147316377205        1.34671335544147
116
 energy: -22.893961608198 gnorm: 0.375874417867 xtb: 6.6.1 (8d0f1dd)
C           -3.19762052994905        0.83449545660496       -1.05022380710490
C           -2.52262925397640       -0.11973248195655       -0.30921809283135
C           -1.39508466264138        0.10161716465009        0.57560659947060
C           -0.86838609834550        1.47124739041745        0.55573087437198
C           -1.49368703415667        2.42508644643550       -0.32090741199508
C           -2.62686041786708        2.12918543419917       -1.07261319151845
C           -0.90287130758172       -0.69628959709820        1.60253146977544
C            0.39317349619232       -0.41062303931615        2.02979144599922
C            0.97069889973951        0.82773556617546        1.66599388476268
N            0.29299471035349        1.80959603666883        1.07062906024837
C           -1.61225288590477       -1.77260431975190        2.19564703525777
C           -0.79608264876613       -2.60452818365325        2.94296305884566
N            0.53991897810781       -2.51584355742891        3.13924166186330
C            1.10982457898807       -1.34859516498868        2.78607160042597
C            2.40669439872855       -1.00359542326569        3.19551757723019
C            2.93447902085275        0.26131781721392        2.96448572352405
C            2.21729480147881        1.15949330005848        2.22629026006219
C           -3.04553724242278       -1.85837358971676        2.31837193468310
C           -3.56368697800360       -3.05236345471646        2.86173462909673
C           -2.72120693303697       -4.02224121764557        3.37598574631390
C           -1.36409357950620       -3.79628269097416        3.44922583156783
O           -3.95319862376908       -0.74569794501910        1.94337371409854
O           -2.82476021877342       -1.48222862151686       -0.53480572455783
C           -3.05387893624445        3.05318362201107       -2.08921404836327
C           -3.22873911000494       -5.43641254385556        3.71260412431629
H           -1.14269243960490        3.39095371925206       -0.45542356177818
H           -4.12639231005227        0.64026622376080       -1.62278941088771
H            2.56524932768438        2.14135394906715        2.10378755828637
H            2.96096566169315       -1.58373628210944        3.90607528397561
H           -0.74906061917071       -4.70076592142958        3.54207161395226
H           -4.60772714616289       -3.26734538958946        2.76808248160810
O           -2.66919957792149        4.20042900131261       -2.11353410598652