116
 energy: -22.928061455056 gnorm: 0.329736929581 xtb: 6.6.1 (8d0f1dd)
C           -3.31122850772930        0.79849766164622       -0.92477639677520
C           -2.44380812530352       -0.12270372891954       -0.27661132624697
C           -1.41337090092821        0.39579727573559        0.56335275196199
C           -0.89266158675590        1.65801491088749        0.27377586709581
C           -1.72665675402493        2.51431363229076       -0.49448366572522
C           -2.95444148494349        2.13954154133227       -1.01494489940871
C           -0.74098268209890       -0.43411532818871        1.49825021926784
C            0.56872586496315        0.03782116815119        1.86248088067890
C            1.03782416582094        1.29402317993033        1.50887470833621
N            0.31238977034758        2.07067427098208        0.65193736800696
C           -1.29695700510141       -1.39996043042223        2.41574187746061
C           -0.38243517664656       -2.18060797534842        3.13232615520648
N            0.91308504082021       -1.90366887689689        3.30325166013478
C            1.37712470144904       -0.74872102533751        2.81811050966982
C            2.52149331701875       -0.17739833758153        3.39379298866852
C            2.95849061756259        1.02681208890480        2.95105897606587
C            2.24288949469137        1.78498308775960        2.03503020483770
C           -2.74860936222260       -1.74497937691422        2.38401158947411
C           -3.09416315450955       -2.91614440870436        3.00571134491758
C           -2.16786021984049       -3.77788778654213        3.63251872101904
C           -0.85708937311598       -3.40495313382985        3.68547234358092
O           -3.71994433332149       -0.94984598373544        1.67726658385724
O           -2.55702603277562       -1.47241711578389       -0.57241635275616
C           -3.84297843593025        3.13357444054366       -1.60938954875544
C           -2.68769581069131       -5.03867041417370        4.30484659386931
H           -1.39666850744143        3.51251503834900       -0.76806311868865
H           -4.27662633836220        0.55105838579656       -1.33106614114542
H            2.66329581305412        2.73912661909249        1.72562431984580
H            3.05775395548473       -0.69369546277216        4.16536137542516
H           -0.24710966264510       -4.12034095424229        4.22946223699121
H           -4.11477991332403       -3.04712728052358        3.03244694615357
O           -4.21824883374556        4.03433712717988       -0.87713382485991
O           -4.44510595673734        2.90643496899600       -2.81853501752979
C           -5.44216520282800        3.83300025693726       -3.02488532025093
C            4.23586651889298        1.50004220933226        3.59165660008449
O            5.05927614697201        0.66079890002952        3.91714215179376
O            4.47001334453535        2.86385149488593        3.72605651435371
C            5.79457498613219        3.08584475587818        4.15829123132174
O           -3.82227255313510       -5.27347675879771        4.16636005494405
O           -1.85023202017753       -5.79767454267276        5.06656077253571
C           -2.55119635829503       -6.86252441382958        5.62930343183426
C           -5.07197156564436       -1.42399175670916        1.58830531863830
C           -1.33089900128490       -2.23622472573986       -0.99264499351172
H           -2.54510546830388       -7.76426885143998        4.99136022291012
H           -3.57194749219491       -6.44405511486021        5.74196173723541
H           -2.09133598235598       -7.02043774843818        6.64022264233588
H            5.72707967266424        3.46798026205549        5.10135971236643
H            6.34060091246885        3.78468702308830        3.50069950143490
H            6.17933064298187        2.03010500085905        4.19342358084693
H           -0.91862729772622       -2.57650129080332       -0.01361370304871
H           -0.49769766914251       -1.60651221708571       -1.34094446550576
H           -1.52632419730509       -2.94569707152159       -1.75361447637286
H           -5.11788846557077       -2.41810833635233        1.17520213188926
H           -5.67929807973498       -0.69619639428435        1.04301666067831
H           -5.57598832326623       -1.42383358739762        2.57928294206544
H           -6.13050215934830        3.76035386975488       -2.23272855695873
H           -5.86615610071888        3.45938329385866       -4.02668959924245
H           -5.13479557532099        4.87790991548477       -2.98314551356402
C           -1.38192942069774        3.73616555005018        2.91232598411686
C           -1.84821468128685        2.59982427735607        3.49755545445181
C           -1.05946531454833        2.05730632010638        4.60922730982276
C            0.19893954712228        2.69376791964407        4.86302140881997
C            0.50425395911860        3.94630308659851        4.28768785650746
C           -0.26031777722226        4.46998310053134        3.25072669343212
C           -1.20488993561782        0.74454293276906        5.14851520323437
C           -0.06287609782692        0.02744069315890        5.60930570802864
C            1.19208754369866        0.71421540266195        5.78882868583885
N            1.19428660993148        2.06344359410476        5.62744624321596
C           -2.41361422770794        0.07928500213936        5.25249410304426
C           -2.45851584031083       -1.32662100968547        5.60237876023992
N           -1.29466212405906       -1.98318595734370        5.89916817085159
C           -0.14475655767527       -1.32117560077092        5.98824682881008
C            0.97209270935794       -1.98958449505532        6.53157704134458
C            2.21982707914082       -1.36973967291181        6.68703967237737
C            2.30561929262884       -0.09745313075593        6.26436900324455
C           -3.73018485967715        0.71367583494582        5.25810242262992
C           -4.89964478833448       -0.06184623426677        5.21204641615509
C           -4.82617965800088       -1.39228978090841        5.46901303780036
C           -3.67144193418464       -1.98914944386360        5.67265433266067
O           -3.75568638935321        2.07705011038914        5.52067969627343
O           -2.94192434743730        1.91263938797883        3.01658762327703
C            0.21273512614467        5.50086066357994        2.34765104514621
C           -6.06660304520411       -2.17604633098929        5.80641622556876
H            1.41756699010566        4.38133362238595        4.66974005703471
H           -1.82880610647429        4.11982501512100        2.06992133318584
H            3.26888037378556        0.32655662585251        6.31721410015598
H            0.87146188387207       -3.08471526305024        6.57830423410869
H           -3.67716811065157       -3.05999292755990        5.83019634570050
H           -5.77379677507622        0.43595144608221        4.71017130754348
O            1.34459852619901        5.82615848916894        2.44941456579099
O           -0.74718748219123        6.07961784856304        1.59848183464284
C           -0.21473095568964        7.24015934882472        1.05753806029483
C            3.53228080814219       -2.00967610361154        7.02506769044485
O            3.64093082622715       -3.14437803815732        7.50071391725347
O            4.56565258381079       -1.22937033368332        6.69086985080897
C            5.72579357310716       -1.80692399125161        7.22246151275881
O           -7.04801223588612       -1.95726935745904        5.14194115322235
O           -6.01514389321278       -2.93743591896022        6.94765316328794
C           -7.21292732384718       -3.62681918543340        7.15115816329978
C           -4.95459780685163        2.65960679932188        5.86868674392943
C           -3.68284113682406        2.59129188358641        2.05479246020704
H           -7.43119628931628       -4.22607794725959        6.20622607140901
H           -8.06548455146707       -2.91765848248592        7.29781126410398
H           -7.07314693247270       -4.33087306029711        7.91223421050944
H            6.57332189837178       -1.29353136199234        6.78341268688262
H            5.74663761932316       -2.84282155125561        6.88089468184451
H            5.69426191474290       -1.72781984964892        8.29460302186842
H           -4.10481209541493        3.44288266176275        2.60483747673152
H           -4.49244774344916        1.87419893016926        1.82433103764650
H           -3.18901540870812        2.85154642679373        1.06781919454921
H           -5.55414326821421        2.76698137191684        4.93950725322359
H           -4.78658370641210        3.62090640967288        6.25983200635257
H           -5.43485580473958        1.97242995129449        6.65265772412460
H            0.89164886030839        7.38838561720231        1.13776105146914
H           -0.62894889903848        8.04195665205089        1.64837664327952
H           -0.59282546386754        7.45699159724320        0.03719083132488
116
 energy: -22.857634803829 gnorm: 0.383220474204 xtb: 6.6.1 (8d0f1dd)
C           -3.11040267822514        0.53547840478612       -1.58264782831475
C           -2.41869473463761       -0.22088037196324       -0.62789770996867
C           -1.49787667078662        0.44505257772667        0.26133049637744
C           -1.13507564183843        1.80064032935465       -0.07741073063066
C           -1.85278550958444        2.49555343232016       -1.06924885074453
C           -2.86501062095451        1.88460921146438       -1.80394166469274
C           -1.02303966919196       -0.13597374281671        1.48062607075821
C            0.22688232377391        0.38016666021315        1.76431482637668
C            0.66246984989197        1.63972862669090        1.30071512578064
N           -0.04817687129179        2.44657477485634        0.46644755635469
C           -1.50893332645615       -1.30745549852764        2.26534434255744
C           -0.47125746851960       -2.05966973483157        2.92930127164306
N            0.70768378026546       -1.48826012091019        3.21560423927192
C            1.04791659874859       -0.31275150363497        2.69126891784908
C            2.31045060843874        0.11730409953474        3.13955306444769
C            2.74266681492665        1.34069276950699        2.65728625191837
C            1.83415302920167        2.10768305851421        1.90659377155552
C           -2.84909873936759       -1.74990014888631        2.37545535017070
C           -3.18962177849451       -3.06135246037044        2.88715791349886
C           -2.15804505670975       -3.74152445685229        3.50974179377941
C           -0.80429963763593       -3.24932098227091        3.51130117441441
O           -3.79743262119290       -0.72533865728791        2.26771071100630
O           -2.51148740722862       -1.59300082259620       -0.73563345554763
C           -3.54645459605181        2.54434983852604       -2.88598844622376
C           -2.60754304032651       -4.79841621427964        4.50525429313742
H           -1.53749322572980        3.48829737994281       -1.31602471500271
H           -3.72454102286566       -0.00067791534980       -2.26437375115204
H            2.17217186481753        3.15122046843191        1.62889595777199
H            2.81476037708172       -0.49019684096943        3.80053014795774
H           -0.04049277616693       -3.80293314829758        3.98743354117627
H           -4.10917203179448       -3.56220087878989        2.63091424660784
O           -3.36339015501618        3.73338913276484       -2.94025828944484
O           -4.44405275005413        1.76970666396001       -3.56655570445778
C           -4.82589120199145        2.46802388763037       -4.76662525426520
C            4.02010864554630        1.79610459536792        3.21616306887744
O            4.49548064812128        1.33191115341248        4.24660966943032
O            4.69261941206994        2.80846206352343        2.52725508761675
C            6.00554849083364        2.90483312001087        2.88922347089591
O           -3.77730413427009       -5.21513763067570        4.55192247876883
O           -1.54390518361682       -5.19042762157928        5.25117363700495
C           -1.87262998076139       -6.15918600360311        6.13979075137059
C           -5.10424765217281       -1.00343746008253        2.51637919381710
C           -1.40186716415164       -2.30513262193129       -1.17937446921388
H           -1.83211668922557       -7.12894038120396        5.67867563055898
H           -2.74912170564627       -5.88396722089110        6.57026757466592
H           -0.98938300470365       -6.03700994923314        6.92860116828287
H            6.08625565082493        3.30362026546255        3.91613483547649
H            6.40724253738562        3.70854015586854        2.29028440341803
H            6.42451885119154        1.97227139836616        2.70594864439218
H           -1.52667620339970       -3.38473504444446       -1.12688027354999
H           -0.47934002860378       -2.05796000896828       -0.72702843315362
H           -1.54120009442813       -2.01891950245956       -2.31979078392444
H           -5.78693459527074       -0.87961112163229        1.78879401911180
H           -5.46244297953520       -0.24781431796127        3.18426935781867
H           -5.16567589730088       -1.89020930114651        3.03972255245643
H           -5.90348091929254        2.96763691500452       -4.57743262045721
H           -4.78903439386508        1.71880134424232       -5.49412525920128
H           -4.06357396535674        3.21542221830140       -5.05622735566182
C           -1.45079940533812        3.77392418895759        3.60397242250937
C           -1.79712252516758        2.53791223848137        4.21254065457283
C           -0.88406481283767        1.99326155972376        5.12930714377705
C            0.40964026654925        2.60117332641199        5.29657549930082
C            0.59163984042425        3.91889250947921        4.84887173819678
C           -0.31000329225437        4.49921344053866        3.99573803471530
C           -1.06739102422577        0.68063030024459        5.62093723966121
C            0.06036564722814       -0.07149867367574        5.91663657118840
C            1.29358294849512        0.56898123125952        5.96007991265734
N            1.51332280119365        1.92302964772416        5.80441128562866
C           -2.36628827781023        0.12386899096980        5.87836663058872
C           -2.38598643116958       -1.25613958888702        5.88269448515904
N           -1.31958666913871       -2.05323853164965        6.04003505472168
C           -0.11284278812724       -1.48543302902360        6.15247872559597
C            1.03320173013727       -2.25753396354109        6.32714107668184
C            2.20585323296095       -1.56342391941983        6.54755184175367
C            2.36651556723593       -0.21016540423092        6.40720700326932
C           -3.56362859308746        0.83638023031138        6.21583665542715
C           -4.77363237938099        0.25786808399964        5.89561353574525
C           -4.90125768845364       -1.10473380730231        5.74656273291512
C           -3.73139515291141       -1.82062102757235        5.88112433073356
O           -3.47236953195463        2.23739669102768        6.62556402195931
O           -2.84429422976450        1.72592634648806        3.64207702206894
C           -0.02112246908992        5.87199764514650        3.37294636329685
C           -6.14979739038525       -1.92805054942107        5.56084172884238
H            1.40749083155718        4.51343607179695        5.08110606649614
H           -2.13373897068010        4.11382942631429        2.84579773176345
H            3.38619813578053        0.23716133398005        6.47129861432546
H            1.19448992657202       -3.30147116666375        6.43759738770287
H           -3.84486501380161       -2.89039750511842        5.91377205078484
H           -5.63074780123951        0.93108903302300        5.60535669162160
O            0.89232479823052        6.66952540039858        3.68165566474071
O           -0.83175349276627        6.21170067288764        2.36657114765400
C           -0.56801386859234        7.53252457238660        1.79609658661870
C            3.34985503897878       -2.44361029252774        6.86583457826949
O            3.25893899110498       -3.68971563923560        6.93014039303000
O            4.54276706488936       -1.77732675160788        7.01716858354221
C            5.48932803047722       -2.77509183695999        7.20214725811234
O           -7.22424713282674       -1.38293592867359        5.76178931020239
O           -6.07647093092090       -3.26337854620820        5.22317582232116
C           -7.27949733992015       -3.88571951521894        4.94856455750603
C           -4.47216519745787        2.86435511574573        7.34331527869968
C           -4.05624023439928        2.29528777827994        3.20964703334175
H           -7.04761216902177       -4.32561599763509        3.96332443761810
H           -8.04201310598356       -3.16984052017522        4.97270776841064
H           -7.50389345739076       -4.74201584944524        5.58766123542228
H            6.36766250553902       -2.38546790418658        6.89700111727817
H            5.39849652555689       -3.76067196354674        6.63551062336608
H            5.52495418470084       -2.93886734893530        8.30214627750056
H           -4.13618679522276        2.01455677990449        2.11483736503307
H           -3.98664706181438        3.38011933645765        3.22450970156047
H           -4.96687491151580        2.21050992929185        3.90807439964844
H           -5.20704245210965        3.38487670471459        6.59370225379236
H           -4.08123750393746        3.74928583460005        7.87282848110527
H           -4.83881910105096        2.24042102365521        8.13946084659555
H            0.07531128191250        8.06100860781293        2.43499657296971
H           -1.46640146069568        8.12253401453762        1.51691955679205
H            0.18069734838520        7.36209203853387        0.97882259230247
116
 energy: -22.898624594607 gnorm: 0.325388229451 xtb: 6.6.1 (8d0f1dd)
C           -3.07833364697303        0.04959638275152       -1.95531411877877
C           -2.51665728064461       -0.57099656946656       -0.86520894332747
C           -1.62110096662363        0.18472223923697       -0.04884856915170
C           -1.18365785213623        1.51116612057609       -0.50896481908023
C           -1.92115946532114        2.14203726110976       -1.46350932707273
C           -2.78817379142041        1.42503505508800       -2.23170529918773
C           -1.05866953674267       -0.25724608452377        1.19650151566840
C            0.17656038029232        0.34673955574017        1.47703665563469
C            0.63847640280931        1.56702553704414        0.88358924696662
N           -0.16025522861229        2.22757231679511        0.03781856167264
C           -1.41344519156710       -1.35471387057818        2.02760659036643
C           -0.46705349603342       -1.97575259440434        2.91791261216963
N            0.79106373778183       -1.56262800157435        2.98318685736240
C            1.02181032336443       -0.28570367270821        2.49167991041130
C            2.22964631802431        0.31674715408541        2.92520400050798
C            2.59271624802014        1.52332929935446        2.30411813287052
C            1.79759312999321        2.14109818193876        1.40277429593332
C           -2.76288975572519       -1.81398600341753        2.17579217341088
C           -3.07208498156175       -2.99329650779829        2.82635391406012
C           -2.06129901445787       -3.62978489058593        3.54712706171363
C           -0.78628652294372       -3.18971192413436        3.66153448407157
O           -3.77933250683022       -1.12415049660512        1.54136059770583
O           -2.75888722666177       -2.03653655701611       -0.71644319539301
C           -3.74255121769664        2.04097225427470       -3.19015300061047
C           -2.36932392352487       -4.86757143788544        4.31441209916355
H           -1.79268658981973        3.18878782288015       -1.53442900672947
H           -3.85947657187178       -0.46208098626178       -2.51312452801604
H            2.08340494486892        3.15161909610545        1.03660429174807
H            2.92396129121799       -0.19287754666247        3.51224417462545
H           -0.04486954552264       -3.55517690372884        4.34599831789424
H           -4.09952077606181       -3.32668069560436        2.91853335731935
O           -3.77313159563169        3.23804814793023       -3.26083784504503
O           -4.49963319108223        1.26823601346706       -4.00188782683639
C           -5.16679300791272        2.09296227784011       -4.91676252425380
C            3.73166579540899        2.27298928434306        2.92189341236799
O            4.64985438372844        1.88137367742410        3.58404999277635
O            3.46858354231490        3.61822614176057        2.67574307148307
C            4.56492342394061        4.47553685889041        3.09375366026111
O           -3.13967262936014       -4.68324514402938        5.23266990587399
O           -1.77969190959994       -6.09835068140357        3.97580431157241
C           -2.09750812695677       -7.07405244685732        4.91393699449247
C           -5.08895220909881       -1.60146259739862        1.57740935215802
C           -1.63168799665486       -2.92261252909390       -0.94217449449006
H           -3.20046089035072       -7.15200945720110        4.88359435752633
H           -1.81596880252667       -6.53310222252565        5.84269722556919
H           -1.65777933705646       -8.08267728829301        4.95080539511824
H            5.20798834466793        3.94047880899283        3.87574360932448
H            3.94444565862370        5.35095276018998        3.48722097181759
H            5.15666936328441        4.92371400695236        2.25191227230825
H           -1.82522588558558       -3.85546898456555       -1.50311177270659
H           -1.27234397453509       -3.26389662038689        0.10689269890810
H           -0.71936860355454       -2.64859532399951       -1.49369968651699
H           -5.57327914405171       -1.88075463011662        2.53655125847831
H           -5.01810250776253       -2.51637884554710        1.03481644395243
H           -5.63691467750294       -1.04267793853773        0.82559218860592
H           -5.80074176186720        2.76147296504851       -4.42220617771313
H           -5.63544790283970        1.38002967884616       -5.61172264488681
H           -4.43376808108833        2.69514701493632       -5.52205391306403
C           -1.20274633152690        4.05994988315733        3.92399857243263
C           -1.58890690721807        2.81502234572605        4.37027517357329
C           -0.66308059771511        2.05648874245785        5.19610300464817
C            0.65704759712312        2.52221226227318        5.37812134745051
C            0.97595325556750        3.75919113077388        4.79358218491070
C            0.07625655814411        4.51770755103577        4.05041867980849
C           -1.06132502963942        0.87000475555183        5.88980432278046
C           -0.00546209204229        0.13592950545435        6.40165237935403
C            1.35807022090767        0.69524526450941        6.56082592574687
N            1.65794738929051        1.95174953449508        6.07313449892213
C           -2.38745614733763        0.30257096926092        6.19759164888960
C           -2.60060276908381       -1.14156283146707        6.19098711594699
N           -1.48075698225217       -1.86313804994697        6.33708394284356
C           -0.27064411418135       -1.25372177955639        6.50165354438449
C            0.78976273634163       -2.01146680027044        6.92786273978870
C            2.10275935384070       -1.54374010126522        7.08774531232428
C            2.37986803037694       -0.21146056598901        6.81255287871114
C           -3.58080625140190        1.02405277143203        6.38954900611843
C           -4.81258626154907        0.33469783901372        6.22972665691034
C           -4.99649407475876       -1.05997775575631        5.99918791008482
C           -3.80290430928837       -1.81666583343834        5.95732140080174
O           -3.77033447639623        2.36066244542832        6.70350191434788
O           -2.69357989402098        2.20825991133524        3.83767704212662
C            0.43693857952340        5.88115348888905        3.61368247264103
C           -6.35472716321972       -1.67244713100943        5.89969942387364
H            1.90837812750069        4.16707175996064        4.87126957944609
H           -1.89398697557358        4.79698937681364        3.63376152352513
H            3.45740732411836        0.10336258380462        6.66595698895659
H            0.64067687204567       -3.07846984675768        7.00800471132942
H           -3.69880614584957       -2.86880984419137        5.84994258448390
H           -5.71383315737069        1.00081737522193        6.23305666846150
O            1.52282130748791        6.15105755175156        3.22506167577411
O           -0.52743998913377        6.80461747677691        3.70756561422369
C           -0.16568240552914        8.04636514018110        3.27803080062229
C            3.17819452810218       -2.59471555740831        7.31795129257094
O            2.97784752686988       -3.78671120122230        7.30844740542358
O            4.50876166826609       -2.12839589331442        7.51603437207410
C            5.35752725794137       -3.15620920507015        7.73608723739448
O           -6.97528065907393       -1.99225149989440        6.90093425755874
O           -6.75277764370333       -2.12105441376789        4.61888785088235
C           -7.99561866942471       -2.80811527676366        4.82163406042259
C           -2.78862472234712        2.88812584181638        7.57941777387014
C           -2.61433011121178        2.14380734719614        2.45454549546483
H           -8.30154474636848       -3.12298134924944        3.79591175862917
H           -8.61211952483784       -2.10111353079463        5.34450853262967
H           -7.77247530450495       -3.70359495594072        5.51366750223984
H            6.34740571304120       -2.74213501524431        7.39736534916270
H            5.08742339856347       -3.91571239468761        6.94576665118742
H            5.28303087883399       -3.64431080058259        8.80024508674190
H           -1.60761480964478        1.86862347684158        2.11703995788895
H           -2.98506960516496        3.08623688868666        2.01376218146380
H           -3.34833130663659        1.39525661070437        2.18756814067089
H           -2.55426783517991        2.20595077713318        8.35402735790496
H           -3.13855325911917        3.89892094942446        7.99815366236016
H           -1.87404303755648        3.01601941329478        6.93151786985294
H           -0.09782848914582        7.97731527349784        2.18351313570021
H            0.75799742343130        8.37261859592469        3.79248161874924
H           -1.02556496704489        8.70098538977293        3.48845662928887
116
 energy: -22.892275929391 gnorm: 0.341485131015 xtb: 6.6.1 (8d0f1dd)
C           -3.44444710757598       -0.36965146238329       -1.75786491129818
C           -2.49211317447401       -0.80596078922380       -0.87352479773719
C           -1.88735986395164        0.17581936693734        0.02168883706854
C           -1.86429369305776        1.56228656973324       -0.32160382439069
C           -2.85651814143364        1.94490083003174       -1.21047293530732
C           -3.58389574078026        0.99037685992048       -2.00127004625864
C           -1.23364603542511       -0.20172205866839        1.23456035672217
C           -0.07817621117427        0.54209585767742        1.52002774285258
C            0.02290524954518        1.87060334166604        0.93829777154279
N           -0.93843876493083        2.36628575002928        0.13488698295711
C           -1.54973011853901       -1.35242166228841        2.00946654554446
C           -0.48980615423529       -1.94829620092334        2.78774626933153
N            0.73738348784983       -1.34485926778613        2.92120160578564
C            0.84616780926015       -0.03435671365791        2.41284293533030
C            1.96384452192271        0.75606499120599        2.76646066868784
C            2.08787295410215        2.08412664637870        2.24159904401879
C            1.11458356313607        2.65097278426460        1.44598053597860
C           -2.92770587866876       -1.76849192750666        2.09214868741552
C           -3.09764775582159       -2.89136344330358        2.87332130457392
C           -2.06548224378563       -3.59319574820992        3.50269243273264
C           -0.77830862663731       -3.18442146278361        3.45134844649735
O           -3.97306054211631       -1.15655522252535        1.40128530138828
O           -2.32256196308496       -2.19069653218956       -0.89240772890724
C           -4.59866977043878        1.56042005169741       -2.88970134064857
C           -2.25375857644351       -4.90175711212470        4.22544742971906
H           -3.27355474312898        2.95216885682013       -1.32402267467498
H           -4.06807089935323       -1.10421737801887       -2.24415623060555
H            1.34914659220903        3.66578139970521        1.11139981942010
H            2.71761530214398        0.50495032038311        3.50971274935052
H           -0.20343114497068       -3.67062147557552        4.22624553064019
H           -4.09229054935318       -3.15911538556750        3.20685592343658
O           -4.69392369597192        2.75814277950126       -3.06808180179891