Optimization of monomers started
      -----------------------------------------------------------      
     |                   =====================                   |     
     |                           x T B                           |     
     |                   =====================                   |     
     |                         S. Grimme                         |     
     |          Mulliken Center for Theoretical Chemistry        |     
     |                    University of Bonn                     |     
      -----------------------------------------------------------      

   * xtb version 6.7.1 (edcfbbe) compiled by 'runner@Mac-1732539442253.local' on 2024-11-25

   xtb is free software: you can redistribute it and/or modify it under
   the terms of the GNU Lesser General Public License as published by
   the Free Software Foundation, either version 3 of the License, or
   (at your option) any later version.
   
   xtb is distributed in the hope that it will be useful,
   but WITHOUT ANY WARRANTY; without even the implied warranty of
   MERCHANTABILITY or FITNESS FOR A PARTICULAR PURPOSE.  See the
   GNU Lesser General Public License for more details.
   
   Cite this work as:
   * C. Bannwarth, E. Caldeweyher, S. Ehlert, A. Hansen, P. Pracht,
     J. Seibert, S. Spicher, S. Grimme, WIREs Comput. Mol. Sci., 2020, 11,
     e01493. DOI: 10.1002/wcms.1493
   
   for GFN2-xTB:
   * C. Bannwarth, S. Ehlert and S. Grimme., J. Chem. Theory Comput., 2019,
     15, 1652-1671. DOI: 10.1021/acs.jctc.8b01176
   for GFN1-xTB:
   * S. Grimme, C. Bannwarth, P. Shushkov, J. Chem. Theory Comput., 2017,
     13, 1989-2009. DOI: 10.1021/acs.jctc.7b00118
   for GFN0-xTB:
   * P. Pracht, E. Caldeweyher, S. Ehlert, S. Grimme, ChemRxiv, 2019, preprint.
     DOI: 10.26434/chemrxiv.8326202.v1
   for GFN-FF:
   * S. Spicher and S. Grimme, Angew. Chem. Int. Ed., 2020, 59, 15665-15673.
     DOI: 10.1002/anie.202004239
   
   for ALPB and GBSA implicit solvation:
   * S. Ehlert, M. Stahn, S. Spicher, S. Grimme, J. Chem. Theory Comput.,
     2021, 17, 4250-4261. DOI: 10.1021/acs.jctc.1c00471
   
   for ddCOSMO and CPCM-X implicit solvation:
   * M. Stahn, S. Ehlert, S. Grimme, J. Phys. Chem. A,
     2023, XX, XXXX-XXXX. DOI: 10.1021/acs.jpca.3c04382
   
   for DFT-D4:
   * E. Caldeweyher, C. Bannwarth and S. Grimme, J. Chem. Phys., 2017,
     147, 034112. DOI: 10.1063/1.4993215
   * E. Caldeweyher, S. Ehlert, A. Hansen, H. Neugebauer, S. Spicher,
     C. Bannwarth and S. Grimme, J. Chem. Phys., 2019, 150, 154122.
     DOI: 10.1063/1.5090222
   * E. Caldeweyher, J.-M. Mewes, S. Ehlert and S. Grimme, Phys. Chem. Chem. Phys.
     2020, 22, 8499-8512. DOI: 10.1039/D0CP00502A
   
   for sTDA-xTB:
   * S. Grimme and C. Bannwarth, J. Chem. Phys., 2016, 145, 054103.
     DOI: 10.1063/1.4959605
   
   in the mass-spec context:
   * V. Asgeirsson, C. Bauer and S. Grimme, Chem. Sci., 2017, 8, 4879.
     DOI: 10.1039/c7sc00601b
   * J. Koopman and S. Grimme, ACS Omega 2019, 4, 12, 15120-15133.
     DOI: 10.1021/acsomega.9b02011
   
   for metadynamics refer to:
   * S. Grimme, J. Chem. Theory Comput., 2019, 155, 2847-2862
     DOI: 10.1021/acs.jctc.9b00143
   
   for SPH calculations refer to:
   * S. Spicher and S. Grimme, J. Chem. Theory Comput., 2021, 17, 1701-1714
     DOI: 10.1021/acs.jctc.0c01306
   
   for ONIOM refer to:
   * C. Plett, A. Katbashev, S. Ehlert, S. Grimme, M. Bursch,
     Phys. Chem. Chem. Phys., 2023, 25, 17860-17868. DOI: 10.1039/D3CP02178E
   
   for DIPRO refer to:
   * J. Kohn, N. Gildemeister, S. Grimme, D. Fazzi, A. Hansen,
     J. Chem. Phys., 2023, just accepted.
   
   for PTB refer to:
   * S. Grimme, M. Mueller, A. Hansen, J. Chem. Phys., 2023, 158, 124111.
     DOI: 10.1063/5.0137838
   
   with help from (in alphabetical order)
   P. Atkinson, C. Bannwarth, F. Bohle, G. Brandenburg, E. Caldeweyher
   M. Checinski, S. Dohm, S. Ehlert, S. Ehrlich, I. Gerasimov, C. Hölzer
   A. Katbashev, J. Kohn, J. Koopman, C. Lavigne, S. Lehtola, F. März, M. Müller,
   F. Musil, H. Neugebauer, J. Pisarek, C. Plett, P. Pracht, F. Pultar,
   J. Seibert, P. Shushkov, S. Spicher, M. Stahn, M. Steiner, T. Strunk,
   J. Stückrath, T. Rose, and J. Unsleber
   
 * started run on 2025/03/13 at 10:32:59.673     
   ID    Z sym.   atoms
    1    6 C      1-21, 26-39
    2    8 O      22-25
    3    1 H      40-78

           -------------------------------------------------
          |                Calculation Setup                |
           -------------------------------------------------

          program call               : xtb Katherine4.mol --opt tight --cycles 500 --chrg -1 --uhf 0 --spinpol --tblite
          coordinate file            : Katherine4.mol
          omp threads                :                     8

########################################################################
[WARNING] Please study the warnings concerning your input carefully
-1- prog_main: Charge in sdf/mol input was overwritten
########################################################################
repulsion energy          1.5548035381717E+00 Eh
dispersion energy         9.4526576677285E-04 Eh
interaction energy        0.0000000000000E+00 Eh
number of electrons       2.0400000000000E+02 e
integral cutoff           1.7347787504999E+01 bohr

------------------------------------------------------------
  cycle        total energy    energy error   density error
------------------------------------------------------------
      1     -111.0088987412  -1.1256465E+02   9.8305614E-02
      2     -111.3069458956  -2.9804715E-01   4.7240134E-02
      3     -111.3050696503   1.8762454E-03   2.6348093E-02
      4     -111.3536651051  -4.8595455E-02   1.1401019E-02
      5     -111.3582315565  -4.5664514E-03   5.5545907E-03
      6     -111.3617311164  -3.4995599E-03   2.3346832E-03
      7     -111.3623940219  -6.6290552E-04   1.0737393E-03
      8     -111.3625154669  -1.2144497E-04   3.6229140E-04
      9     -111.3625175622  -2.0952858E-06   2.0334525E-04
     10     -111.3625205815  -3.0192895E-06   8.1271375E-05
     11     -111.3625214804  -8.9893426E-07   3.7421360E-05
     12     -111.3625216083  -1.2786258E-07   2.0212893E-05
     13     -111.3625216396  -3.1342410E-08   8.7954893E-06
------------------------------------------------------------

electronic energy        -1.1291827044357E+02 Eh
total energy             -1.1136252163963E+02 Eh

 total:                                   0.664 sec
 - repulsion                              0.000 sec (  0%)
 - dispersion                             0.006 sec (  0%)
 - coulomb                                0.002 sec (  0%)
 - hamiltonian                            0.007 sec (  1%)
 - scc                                    0.649 sec ( 97%)

      ----------------------------------------------------------- 
     |                   =====================                   |
     |                        A N C O P T                        |
     |                   =====================                   |
     |               Approximate Normal Coordinate               |
     |                Rational Function Optimizer                |
      ----------------------------------------------------------- 
      ----------------------------------------------------------- 
     |                   =====================                   |
     |                        A N C O P T                        |
     |                   =====================                   |
     |               Approximate Normal Coordinate               |
     |                Rational Function Optimizer                |
      ----------------------------------------------------------- 

          ...................................................
          :                      SETUP                      :
          :.................................................:
          :   optimization level             tight          :
          :   max. optcycles                   500          :
          :   ANC micro-cycles                  20          :
          :   degrees of freedom               228          :
          :.................................................:
          :   RF solver                   davidson          :
          :   write xtbopt.log                true          :
          :   linear?                        false          :
          :   energy convergence         0.1000000E-05 Eh   :
          :   grad. convergence          0.8000000E-03 Eh/α :
          :   maxmium RF displ.          1.0000000          :
          :   Hlow (freq-cutoff)         0.1000000E-01      :
          :   Hmax (freq-cutoff)         5.0000000          :
          :   S6 in model hess.         20.0000000          :
          ...................................................

generating ANC from exact Hessian ...
Using Lindh-Hessian (1995)
 Shifting diagonal of input Hessian by    9.8971643734055547E-003
 Lowest  eigenvalues of input Hessian
    0.000000    0.000000    0.000000    0.000000    0.000000    0.000000
    0.010000    0.010080    0.010108    0.010285    0.010356    0.010471
    0.010880    0.011015    0.011255    0.011370    0.012163    0.012440
 Highest eigenvalues
    1.975688    1.998335    2.048022    2.051655    2.166543    2.194574


........................................................................
.............................. CYCLE    1 ..............................
........................................................................
------------------------------------------------------------
  cycle        total energy    energy error   density error
------------------------------------------------------------
      1     -111.3625215866  -1.1291827E+02   1.5873279E-05
      2     -111.3625215906  -4.0002277E-09   1.4221530E-05
------------------------------------------------------------

 total:                                   0.101 sec
 * total energy  :  -111.3625216 Eh     change        0.4906229E-07 Eh
   gradient norm :     0.2202598 Eh/α   predicted     0.0000000E+00 (-100.00%)
   displ. norm   :     0.4153381 α      lambda       -0.6486353E-01
   maximum displ.:     0.1151356 α      in ANC's #129, #49, #132, ...

........................................................................
.............................. CYCLE    2 ..............................
........................................................................
------------------------------------------------------------
  cycle        total energy    energy error   density error
------------------------------------------------------------
      1     -111.4047152352  -1.1300241E+02   6.3761056E-03
      2     -111.4052258019  -5.1056670E-04   5.1651821E-03
      3     -111.4080666071  -2.8408052E-03   2.4732123E-03
      4     -111.4081073824  -4.0775263E-05   1.0589086E-03
      5     -111.4082924382  -1.8505586E-04   1.9325890E-04
      6     -111.4082965777  -4.1395222E-06   9.4197327E-05
      7     -111.4082967687  -1.9096174E-07   3.6110047E-05
      8     -111.4082968587  -8.9996334E-08   1.2197430E-05
------------------------------------------------------------

 total:                                   0.680 sec
 * total energy  :  -111.4082969 Eh     change       -0.4577527E-01 Eh
   gradient norm :     0.0944668 Eh/α   predicted    -0.3804217E-01 ( -16.89%)
   displ. norm   :     0.4181813 α      lambda       -0.2281791E-01
   maximum displ.:     0.1893746 α      in ANC's #49, #19, #84, ...

........................................................................
.............................. CYCLE    3 ..............................
........................................................................
------------------------------------------------------------
  cycle        total energy    energy error   density error
------------------------------------------------------------
      1     -111.4204563580  -1.1306433E+02   4.1522483E-03
      2     -111.4209070542  -4.5069629E-04   3.2774598E-03
      3     -111.4217191723  -8.1211807E-04   1.6424730E-03
      4     -111.4217057067   1.3465624E-05   7.0578537E-04
      5     -111.4218072720  -1.0156529E-04   9.5154370E-05
      6     -111.4218079839  -7.1188838E-07   4.9284446E-05
      7     -111.4218080170  -3.3157818E-08   2.0497103E-05
      8     -111.4218080409  -2.3822253E-08   7.2775065E-06
------------------------------------------------------------

 total:                                   0.449 sec
 * total energy  :  -111.4218080 Eh     change       -0.1351118E-01 Eh
   gradient norm :     0.0201339 Eh/α   predicted    -0.1340410E-01 (  -0.79%)
   displ. norm   :     0.3546308 α      lambda       -0.3835817E-02
   maximum displ.:     0.1750041 α      in ANC's #19, #49, #21, ...

........................................................................
.............................. CYCLE    4 ..............................
........................................................................
------------------------------------------------------------
  cycle        total energy    energy error   density error
------------------------------------------------------------
      1     -111.4244726964  -1.1308227E+02   2.2766009E-03
      2     -111.4244856512  -1.2954825E-05   1.3664847E-03
      3     -111.4243880106   9.7640608E-05   7.6098482E-04
      4     -111.4245025489  -1.1453837E-04   1.1072349E-04
      5     -111.4245054402  -2.8912384E-06   2.6308116E-05
      6     -111.4245054825  -4.2372321E-08   1.3801553E-05
------------------------------------------------------------

 total:                                   0.241 sec
 * total energy  :  -111.4245055 Eh     change       -0.2697442E-02 Eh
   gradient norm :     0.0138190 Eh/α   predicted    -0.2159101E-02 ( -19.96%)
   displ. norm   :     0.3933229 α      lambda       -0.2005125E-02
   maximum displ.:     0.2182923 α      in ANC's #19, #21, #49, ...

........................................................................
.............................. CYCLE    5 ..............................
........................................................................
------------------------------------------------------------
  cycle        total energy    energy error   density error
------------------------------------------------------------
      1     -111.4258387459  -1.1309505E+02   2.1494821E-03
      2     -111.4258437406  -4.9946741E-06   1.2990281E-03
      3     -111.4257421023   1.0163827E-04   6.4850531E-04
      4     -111.4258541578  -1.1205548E-04   8.5932626E-05
      5     -111.4258558039  -1.6461095E-06   2.5931582E-05
      6     -111.4258558397  -3.5781909E-08   1.5188424E-05
------------------------------------------------------------

 total:                                   0.335 sec
 * total energy  :  -111.4258558 Eh     change       -0.1350357E-02 Eh
   gradient norm :     0.0091185 Eh/α   predicted    -0.1157699E-02 ( -14.27%)
   displ. norm   :     0.3285048 α      lambda       -0.7996538E-03
   maximum displ.:     0.1618048 α      in ANC's #19, #8, #11, ...

........................................................................
.............................. CYCLE    6 ..............................
........................................................................
------------------------------------------------------------
  cycle        total energy    energy error   density error
------------------------------------------------------------
      1     -111.4263993772  -1.1309853E+02   1.5623524E-03
      2     -111.4264035280  -4.1508250E-06   9.3033800E-04
      3     -111.4263735628   2.9965204E-05   3.8808959E-04
      4     -111.4264066672  -3.3104338E-05   6.2356213E-05
      5     -111.4264075389  -8.7176534E-07   2.5321225E-05
      6     -111.4264076373  -9.8329110E-08   1.0973258E-05
------------------------------------------------------------

 total:                                   0.234 sec
 * total energy  :  -111.4264076 Eh     change       -0.5517976E-03 Eh
   gradient norm :     0.0051570 Eh/α   predicted    -0.4429754E-03 ( -19.72%)
   displ. norm   :     0.2951057 α      lambda       -0.4252481E-03
   maximum displ.:     0.1343356 α      in ANC's #8, #13, #11, ...

........................................................................
.............................. CYCLE    7 ..............................
........................................................................
------------------------------------------------------------
  cycle        total energy    energy error   density error
------------------------------------------------------------
      1     -111.4267047528  -1.1309985E+02   1.2200858E-03
      2     -111.4267064605  -1.7077159E-06   7.4254015E-04
      3     -111.4266572614   4.9199113E-05   4.2288327E-04
      4     -111.4267120049  -5.4743452E-05   5.4896531E-05
      5     -111.4267125822  -5.7729531E-07   1.8039525E-05
------------------------------------------------------------

 total:                                   0.354 sec
 * total energy  :  -111.4267126 Eh     change       -0.3049449E-03 Eh
   gradient norm :     0.0047669 Eh/α   predicted    -0.2311470E-03 ( -24.20%)
   displ. norm   :     0.2772421 α      lambda       -0.2846629E-03
   maximum displ.:     0.1347204 α      in ANC's #8, #1, #13, ...

........................................................................
.............................. CYCLE    8 ..............................
........................................................................
------------------------------------------------------------
  cycle        total energy    energy error   density error
------------------------------------------------------------
      1     -111.4269228360  -1.1309914E+02   1.0195382E-03
      2     -111.4269244772  -1.6411343E-06   6.0690056E-04
      3     -111.4269130135   1.1463631E-05   2.2419884E-04
      4     -111.4269256242  -1.2610705E-05   3.9515344E-05
      5     -111.4269259199  -2.9565764E-07   1.7592053E-05
------------------------------------------------------------

 total:                                   0.257 sec
 * total energy  :  -111.4269259 Eh     change       -0.2133377E-03 Eh
   gradient norm :     0.0046915 Eh/α   predicted    -0.1532717E-03 ( -28.16%)
   displ. norm   :     0.2728374 α      lambda       -0.2230459E-03
   maximum displ.:     0.1349678 α      in ANC's #1, #8, #13, ...

........................................................................
.............................. CYCLE    9 ..............................
........................................................................
------------------------------------------------------------
  cycle        total energy    energy error   density error
------------------------------------------------------------
      1     -111.4270900593  -1.1309827E+02   9.1664829E-04
      2     -111.4270914182  -1.3589194E-06   5.4242525E-04
      3     -111.4270865127   4.9055174E-06   1.6428283E-04
      4     -111.4270919899  -5.4772396E-06   3.3370673E-05
      5     -111.4270921780  -1.8808488E-07   1.5343011E-05
------------------------------------------------------------

 total:                                   0.248 sec
 * total energy  :  -111.4270922 Eh     change       -0.1662581E-03 Eh
   gradient norm :     0.0037387 Eh/α   predicted    -0.1198251E-03 ( -27.93%)
   displ. norm   :     0.2449652 α      lambda       -0.1557416E-03
   maximum displ.:     0.1378156 α      in ANC's #1, #8, #13, ...

........................................................................
.............................. CYCLE   10 ..............................
........................................................................
------------------------------------------------------------
  cycle        total energy    energy error   density error
------------------------------------------------------------
      1     -111.4272062463  -1.1309765E+02   7.5865525E-04
      2     -111.4272073433  -1.0970063E-06   4.4565142E-04
      3     -111.4272037287   3.6146141E-06   1.4687844E-04
      4     -111.4272076860  -3.9573076E-06   3.1919192E-05
      5     -111.4272079240  -2.3808788E-07   1.4871178E-05
------------------------------------------------------------

 total:                                   0.237 sec
 * total energy  :  -111.4272079 Eh     change       -0.1157460E-03 Eh
   gradient norm :     0.0026096 Eh/α   predicted    -0.8258451E-04 ( -28.65%)
   displ. norm   :     0.1972389 α      lambda       -0.1044231E-03
   maximum displ.:     0.1239620 α      in ANC's #1, #8, #3, ...

........................................................................
.............................. CYCLE   11 ..............................
........................................................................
------------------------------------------------------------
  cycle        total energy    energy error   density error
------------------------------------------------------------
      1     -111.4272893468  -1.1309765E+02   5.3932254E-04
      2     -111.4272898636  -5.1678458E-07   3.2037976E-04
      3     -111.4272870261   2.8375416E-06   1.2447924E-04
      4     -111.4272901404  -3.1142813E-06   2.4534850E-05
      5     -111.4272902676  -1.2720001E-07   9.9138667E-06
------------------------------------------------------------

 total:                                   0.247 sec
 * total energy  :  -111.4272903 Eh     change       -0.8234351E-04 Eh
   gradient norm :     0.0023229 Eh/α   predicted    -0.5424659E-04 ( -34.12%)
   displ. norm   :     0.1893348 α      lambda       -0.9443550E-04
   maximum displ.:     0.1245423 α      in ANC's #1, #3, #2, ...

........................................................................
.............................. CYCLE   12 ..............................
........................................................................
------------------------------------------------------------
  cycle        total energy    energy error   density error
------------------------------------------------------------
      1     -111.4273681956  -1.1309802E+02   4.6490589E-04
      2     -111.4273684240  -2.2841328E-07   2.7827154E-04
      3     -111.4273604406   7.9833950E-06   1.8431371E-04
      4     -111.4273696342  -9.1935422E-06   2.1872918E-05
      5     -111.4273697241  -8.9886754E-08   8.2762532E-06
------------------------------------------------------------

 total:                                   0.317 sec
 * total energy  :  -111.4273697 Eh     change       -0.7945651E-04 Eh
   gradient norm :     0.0027027 Eh/α   predicted    -0.4891450E-04 ( -38.44%)
   displ. norm   :     0.2299948 α      lambda       -0.1122187E-03
   maximum displ.:     0.1503056 α      in ANC's #1, #3, #2, ...

........................................................................
.............................. CYCLE   13 ..............................
........................................................................
------------------------------------------------------------
  cycle        total energy    energy error   density error
------------------------------------------------------------
      1     -111.4274656560  -1.1309832E+02   5.2264680E-04
      2     -111.4274659646  -3.0866160E-07   3.1325624E-04
      3     -111.4274592163   6.7483353E-06   1.6127572E-04
      4     -111.4274666470  -7.4307333E-06   2.2453738E-05
      5     -111.4274667474  -1.0033527E-07   9.0673775E-06
------------------------------------------------------------

 total:                                   0.198 sec
 * total energy  :  -111.4274667 Eh     change       -0.9702329E-04 Eh
   gradient norm :     0.0030826 Eh/α   predicted    -0.5908441E-04 ( -39.10%)
   displ. norm   :     0.2972650 α      lambda       -0.1365698E-03
   maximum displ.:     0.1932451 α      in ANC's #1, #3, #2, ...

........................................................................
.............................. CYCLE   14 ..............................
........................................................................
------------------------------------------------------------
  cycle        total energy    energy error   density error
------------------------------------------------------------
      1     -111.4275832920  -1.1309840E+02   6.5870436E-04
      2     -111.4275837890  -4.9700333E-07   3.9622061E-04
      3     -111.4275751245   8.6644990E-06   1.8767283E-04
      4     -111.4275846529  -9.5284609E-06   2.6962241E-05
      5     -111.4275847965  -1.4359594E-07   1.1880787E-05
------------------------------------------------------------

 total:                                   0.303 sec
 * total energy  :  -111.4275848 Eh     change       -0.1180492E-03 Eh
   gradient norm :     0.0030841 Eh/α   predicted    -0.7432120E-04 ( -37.04%)
   displ. norm   :     0.3436607 α      lambda       -0.1435619E-03
   maximum displ.:     0.2253867 α      in ANC's #1, #3, #2, ...

........................................................................
.............................. CYCLE   15 ..............................
........................................................................
------------------------------------------------------------
  cycle        total energy    energy error   density error
------------------------------------------------------------
      1     -111.4277070569  -1.1309819E+02   7.5016959E-04
      2     -111.4277075901  -5.3316552E-07   4.4630034E-04
      3     -111.4277042160   3.3740684E-06   1.3293719E-04
      4     -111.4277080286  -3.8126539E-06   2.1108906E-05
      5     -111.4277080667  -3.8086142E-08   1.3348725E-05
------------------------------------------------------------

 total:                                   0.421 sec
 * total energy  :  -111.4277081 Eh     change       -0.1232702E-03 Eh
   gradient norm :     0.0027360 Eh/α   predicted    -0.8026362E-04 ( -34.89%)
   displ. norm   :     0.3534664 α      lambda       -0.1325532E-03
   maximum displ.:     0.2350868 α      in ANC's #1, #3, #2, ...

........................................................................
.............................. CYCLE   16 ..............................
........................................................................
------------------------------------------------------------
  cycle        total energy    energy error   density error
------------------------------------------------------------
      1     -111.4278212748  -1.1309810E+02   7.7305840E-04
      2     -111.4278217540  -4.7920015E-07   4.5800874E-04
      3     -111.4278186373   3.1167779E-06   1.1892714E-04
      4     -111.4278221170  -3.4797227E-06   2.2821975E-05
      5     -111.4278221750  -5.8023801E-08   1.3063084E-05
------------------------------------------------------------

 total:                                   0.279 sec
 * total energy  :  -111.4278222 Eh     change       -0.1141083E-03 Eh
   gradient norm :     0.0025753 Eh/α   predicted    -0.7456075E-04 ( -34.66%)
   displ. norm   :     0.3514916 α      lambda       -0.1213756E-03
   maximum displ.:     0.2363455 α      in ANC's #1, #3, #2, ...

........................................................................
.............................. CYCLE   17 ..............................
........................................................................
------------------------------------------------------------
  cycle        total energy    energy error   density error
------------------------------------------------------------
      1     -111.4279268084  -1.1309820E+02   7.6262229E-04
      2     -111.4279272760  -4.6758197E-07   4.5271074E-04
      3     -111.4279239189   3.3571149E-06   1.2198434E-04
      4     -111.4279276068  -3.6879957E-06   2.3609001E-05
      5     -111.4279276919  -8.5087805E-08   1.2642753E-05
------------------------------------------------------------

 total:                                   0.260 sec
 * total energy  :  -111.4279277 Eh     change       -0.1055169E-03 Eh
   gradient norm :     0.0024961 Eh/α   predicted    -0.6819025E-04 ( -35.38%)
   displ. norm   :     0.3672989 α      lambda       -0.1179582E-03
   maximum displ.:     0.2480375 α      in ANC's #1, #3, #2, ...

........................................................................
.............................. CYCLE   18 ..............................
........................................................................
------------------------------------------------------------
  cycle        total energy    energy error   density error
------------------------------------------------------------
      1     -111.4280294065  -1.1309838E+02   7.9336757E-04
      2     -111.4280298304  -4.2386347E-07   4.6980148E-04
      3     -111.4280263650   3.4654015E-06   1.1448052E-04
      4     -111.4280301534  -3.7883794E-06   2.4383412E-05
      5     -111.4280302347  -8.1316855E-08   1.2453506E-05
------------------------------------------------------------

 total:                                   0.205 sec
 * total energy  :  -111.4280302 Eh     change       -0.1025428E-03 Eh
   gradient norm :     0.0026021 Eh/α   predicted    -0.6693933E-04 ( -34.72%)
   displ. norm   :     0.3927134 α      lambda       -0.1149253E-03
   maximum displ.:     0.2660070 α      in ANC's #1, #3, #2, ...

........................................................................
.............................. CYCLE   19 ..............................
........................................................................
------------------------------------------------------------
  cycle        total energy    energy error   density error
------------------------------------------------------------
      1     -111.4281269595  -1.1309847E+02   8.2278150E-04
      2     -111.4281274569  -4.9740679E-07   4.8776717E-04
      3     -111.4281254746   1.9822435E-06   9.5176958E-05
      4     -111.4281276644  -2.1898121E-06   2.4530407E-05
      5     -111.4281277567  -9.2289540E-08   1.2846622E-05
------------------------------------------------------------

 total:                                   0.213 sec
 * total energy  :  -111.4281278 Eh     change       -0.9752203E-04 Eh
   gradient norm :     0.0024028 Eh/α   predicted    -0.6632530E-04 ( -31.99%)
   displ. norm   :     0.3872247 α      lambda       -0.9686004E-04
   maximum displ.:     0.2635382 α      in ANC's #1, #3, #2, ...

........................................................................
.............................. CYCLE   20 ..............................
........................................................................
------------------------------------------------------------
  cycle        total energy    energy error   density error
------------------------------------------------------------
      1     -111.4282063450  -1.1309846E+02   7.9080705E-04
      2     -111.4282067428  -3.9778645E-07   4.6828680E-04
      3     -111.4282065186   2.2414856E-07   4.6069664E-05
      4     -111.4282068719  -3.5332876E-07   1.8145168E-05
------------------------------------------------------------

 total:                                   0.172 sec
 * total energy  :  -111.4282069 Eh     change       -0.7911522E-04 Eh
   gradient norm :     0.0019000 Eh/α   predicted    -0.5569235E-04 ( -29.61%)
   displ. norm   :     0.4894641 α      lambda       -0.6592386E-04
   maximum displ.:     0.3367876 α      in ANC's #1, #3, #2, ...
 * RMSD in coord.:     0.5453725 α      energy gain  -0.6568523E-01 Eh

generating ANC from exact Hessian ...
Using Lindh-Hessian (1995)
 Shifting diagonal of input Hessian by    9.8591888734086575E-003
 Lowest  eigenvalues of input Hessian
    0.000000    0.000000    0.000000    0.000000    0.000000    0.000000
    0.010000    0.010099    0.010153    0.010326    0.010403    0.010514
    0.010987    0.011132    0.011384    0.011466    0.012544    0.012632
 Highest eigenvalues
    2.014881    2.040667    2.092986    2.095393    2.192430    2.220748


........................................................................
.............................. CYCLE   21 ..............................
........................................................................
------------------------------------------------------------
  cycle        total energy    energy error   density error
------------------------------------------------------------
      1     -111.4282738890  -1.1309867E+02   9.4106578E-04
      2     -111.4282745324  -6.4346004E-07   5.5748381E-04
      3     -111.4282736882   8.4419115E-07   7.3514010E-05
      4     -111.4282747453  -1.0570852E-06   2.2586733E-05
      5     -111.4282747888  -4.3509232E-08   1.3148218E-05
------------------------------------------------------------

 total:                                   0.346 sec
 * total energy  :  -111.4282748 Eh     change       -0.6791690E-04 Eh
   gradient norm :     0.0017162 Eh/α   predicted     0.0000000E+00 (-100.00%)
   displ. norm   :     0.0427753 α      lambda       -0.1616077E-04
   maximum displ.:     0.0249882 α      in ANC's #1, #20, #8, ...

........................................................................
.............................. CYCLE   22 ..............................
........................................................................
------------------------------------------------------------
  cycle        total energy    energy error   density error
------------------------------------------------------------
      1     -111.4282927768  -1.1309926E+02   1.4664418E-04
      2     -111.4282928771  -1.0029018E-07   8.9217514E-05
      3     -111.4282923885   4.8855030E-07   6.0967317E-05
      4     -111.4282930728  -6.8428957E-07   9.1254703E-06
------------------------------------------------------------

 total:                                   0.231 sec
 * total energy  :  -111.4282931 Eh     change       -0.1828395E-04 Eh
   gradient norm :     0.0005995 Eh/α   predicted    -0.8100837E-05 ( -55.69%)
   displ. norm   :     0.0957076 α      lambda       -0.2030877E-04
   maximum displ.:     0.0568850 α      in ANC's #1, #4, #7, ...

........................................................................
.............................. CYCLE   23 ..............................
........................................................................
------------------------------------------------------------
  cycle        total energy    energy error   density error
------------------------------------------------------------
      1     -111.4283145611  -1.1309968E+02   2.6583162E-04
      2     -111.4283146334  -7.2250756E-08   1.5890511E-04
      3     -111.4283125496   2.0837119E-06   9.2402768E-05
      4     -111.4283148848  -2.3351362E-06   1.0609798E-05
      5     -111.4283149007  -1.5957397E-08   4.9549758E-06
------------------------------------------------------------

 total:                                   0.213 sec
 * total energy  :  -111.4283149 Eh     change       -0.2182794E-04 Eh
   gradient norm :     0.0011462 Eh/α   predicted    -0.1019667E-04 ( -53.29%)
   displ. norm   :     0.1032906 α      lambda       -0.1419264E-04
   maximum displ.:     0.0660463 α      in ANC's #1, #4, #7, ...

........................................................................
.............................. CYCLE   24 ..............................
........................................................................
------------------------------------------------------------
  cycle        total energy    energy error   density error
------------------------------------------------------------
      1     -111.4283313293  -1.1309973E+02   2.5770617E-04
      2     -111.4283314046  -7.5283197E-08   1.5427487E-04
      3     -111.4283312250   1.7962816E-07   3.3449017E-05
      4     -111.4283314293  -2.0434459E-07   8.4628667E-06
------------------------------------------------------------

 total:                                   0.184 sec
 * total energy  :  -111.4283314 Eh     change       -0.1652858E-04 Eh
   gradient norm :     0.0010746 Eh/α   predicted    -0.7167883E-05 ( -56.63%)
   displ. norm   :     0.1096871 α      lambda       -0.1358116E-04
   maximum displ.:     0.0722856 α      in ANC's #1, #4, #7, ...

........................................................................
.............................. CYCLE   25 ..............................
........................................................................
------------------------------------------------------------
  cycle        total energy    energy error   density error
------------------------------------------------------------
      1     -111.4283479520  -1.1309961E+02   2.6273825E-04
      2     -111.4283479371   1.4902767E-08   1.6085967E-04
      3     -111.4283450017   2.9353660E-06   1.0567847E-04
      4     -111.4283482956  -3.2939323E-06   7.4681631E-06
      5     -111.4283482991  -3.4675338E-09   4.4715205E-06
------------------------------------------------------------

 total:                                   0.214 sec
 * total energy  :  -111.4283483 Eh     change       -0.1686980E-04 Eh
   gradient norm :     0.0007418 Eh/α   predicted    -0.6827519E-05 ( -59.53%)
   displ. norm   :     0.1349311 α      lambda       -0.1631643E-04
   maximum displ.:     0.0892961 α      in ANC's #1, #4, #7, ...

........................................................................
.............................. CYCLE   26 ..............................
........................................................................
------------------------------------------------------------
  cycle        total energy    energy error   density error
------------------------------------------------------------
      1     -111.4283683351  -1.1309935E+02   3.2328784E-04
      2     -111.4283684051  -7.0000112E-08   1.9319735E-04
      3     -111.4283677950   6.1011826E-07   5.1007852E-05
      4     -111.4283684593  -6.6429385E-07   9.9729795E-06
------------------------------------------------------------

 total:                                   0.240 sec
 * total energy  :  -111.4283685 Eh     change       -0.2016020E-04 Eh
   gradient norm :     0.0005867 Eh/α   predicted    -0.8226071E-05 ( -59.20%)
   displ. norm   :     0.1557142 α      lambda       -0.1690727E-04
   maximum displ.:     0.1034310 α      in ANC's #1, #4, #7, ...

........................................................................
.............................. CYCLE   27 ..............................
........................................................................
------------------------------------------------------------
  cycle        total energy    energy error   density error
------------------------------------------------------------
      1     -111.4283883179  -1.1309918E+02   3.6716618E-04
      2     -111.4283882762   4.1713761E-08   2.2260549E-04
      3     -111.4283826724   5.6037984E-06   1.4359116E-04
      4     -111.4283889185  -6.2461170E-06   8.2859534E-06
      5     -111.4283889206  -2.0509532E-09   5.1318034E-06
------------------------------------------------------------

 total:                                   0.253 sec
 * total energy  :  -111.4283889 Eh     change       -0.2046125E-04 Eh
   gradient norm :     0.0007679 Eh/α   predicted    -0.8549590E-05 ( -58.22%)
   displ. norm   :     0.1570785 α      lambda       -0.1448990E-04
   maximum displ.:     0.1051581 α      in ANC's #1, #4, #7, ...

........................................................................
.............................. CYCLE   28 ..............................
........................................................................
------------------------------------------------------------
  cycle        total energy    energy error   density error
------------------------------------------------------------
      1     -111.4284062269  -1.1309918E+02   3.6047481E-04
      2     -111.4284063105  -8.3573127E-08   2.1494276E-04
      3     -111.4284059879   3.2262037E-07   4.2895388E-05
      4     -111.4284063600  -3.7218875E-07   7.9309925E-06
------------------------------------------------------------

 total:                                   0.240 sec
 * total energy  :  -111.4284064 Eh     change       -0.1743949E-04 Eh
   gradient norm :     0.0006984 Eh/α   predicted    -0.7324796E-05 ( -58.00%)
   displ. norm   :     0.1387983 α      lambda       -0.1150423E-04
   maximum displ.:     0.0943634 α      in ANC's #1, #4, #7, ...

........................................................................
.............................. CYCLE   29 ..............................
........................................................................
------------------------------------------------------------
  cycle        total energy    energy error   density error
------------------------------------------------------------
      1     -111.4284202418  -1.1309934E+02   3.0275692E-04
      2     -111.4284202799  -3.8180005E-08   1.8063512E-04
      3     -111.4284191075   1.1723844E-06   6.9973887E-05
      4     -111.4284203919  -1.2843493E-06   6.5440537E-06
      5     -111.4284203936  -1.6889317E-09   4.1255594E-06
------------------------------------------------------------

 total:                                   0.221 sec
 * total energy  :  -111.4284204 Eh     change       -0.1403354E-04 Eh
   gradient norm :     0.0005470 Eh/α   predicted    -0.5804157E-05 ( -58.64%)
   displ. norm   :     0.1204765 α      lambda       -0.9421298E-05
   maximum displ.:     0.0838616 α      in ANC's #1, #4, #8, ...

........................................................................
.............................. CYCLE   30 ..............................
........................................................................
------------------------------------------------------------
  cycle        total energy    energy error   density error
------------------------------------------------------------
      1     -111.4284324500  -1.1309954E+02   2.5239465E-04
      2     -111.4284324897  -3.9642629E-08   1.5089591E-04
      3     -111.4284323090   1.8065593E-07   3.1075194E-05
      4     -111.4284325125  -2.0350478E-07   5.8259093E-06
------------------------------------------------------------

 total:                                   0.152 sec
 * total energy  :  -111.4284325 Eh     change       -0.1211891E-04 Eh
   gradient norm :     0.0003448 Eh/α   predicted    -0.4743417E-05 ( -60.86%)
   displ. norm   :     0.1123979 α      lambda       -0.8767709E-05
   maximum displ.:     0.0794684 α      in ANC's #1, #4, #8, ...

........................................................................
.............................. CYCLE   31 ..............................
........................................................................
------------------------------------------------------------
  cycle        total energy    energy error   density error
------------------------------------------------------------
      1     -111.4284436200  -1.1309965E+02   2.3634022E-04
      2     -111.4284436080   1.2056816E-08   1.4464303E-04
      3     -111.4284414228   2.1851481E-06   8.8966588E-05
      4     -111.4284438380  -2.4151710E-06   5.3966536E-06
      5     -111.4284438397  -1.6943886E-09   3.2822481E-06
------------------------------------------------------------

 total:                                   0.193 sec
 * total energy  :  -111.4284438 Eh     change       -0.1132719E-04 Eh
   gradient norm :     0.0003410 Eh/α   predicted    -0.4413310E-05 ( -61.04%)
   displ. norm   :     0.1104728 α      lambda       -0.8141122E-05
   maximum displ.:     0.0789438 α      in ANC's #1, #4, #8, ...

........................................................................
.............................. CYCLE   32 ..............................
........................................................................
------------------------------------------------------------
  cycle        total energy    energy error   density error
------------------------------------------------------------
      1     -111.4284538256  -1.1309966E+02   2.3738363E-04
      2     -111.4284538548  -2.9176249E-08   1.4230287E-04
      3     -111.4284535306   3.2411901E-07   3.7663839E-05
      4     -111.4284538849  -3.5429666E-07   5.9419012E-06
------------------------------------------------------------

 total:                                   0.175 sec
 * total energy  :  -111.4284539 Eh     change       -0.1004524E-04 Eh
   gradient norm :     0.0003813 Eh/α   predicted    -0.4097723E-05 ( -59.21%)
   displ. norm   :     0.0940222 α      lambda       -0.6164204E-05
   maximum displ.:     0.0686929 α      in ANC's #1, #4, #8, ...

........................................................................
.............................. CYCLE   33 ..............................
........................................................................
------------------------------------------------------------
  cycle        total energy    energy error   density error
------------------------------------------------------------
      1     -111.4284610691  -1.1309960E+02   2.1084351E-04
      2     -111.4284610530   1.6093509E-08   1.2922911E-04
      3     -111.4284592386   1.8144324E-06   7.9851291E-05
      4     -111.4284612389  -2.0003772E-06   4.1195361E-06
      5     -111.4284612389   8.1442408E-11   2.3785186E-06
------------------------------------------------------------

 total:                                   0.210 sec
 * total energy  :  -111.4284612 Eh     change       -0.7353931E-05 Eh
   gradient norm :     0.0003743 Eh/α   predicted    -0.3094514E-05 ( -57.92%)
   displ. norm   :     0.0677946 α      lambda       -0.4158017E-05
   maximum displ.:     0.0508473 α      in ANC's #1, #4, #2, ...

........................................................................
.............................. CYCLE   34 ..............................
........................................................................
------------------------------------------------------------
  cycle        total energy    energy error   density error
------------------------------------------------------------
      1     -111.4284664329  -1.1309953E+02   1.5548285E-04
      2     -111.4284664418  -8.8507477E-09   9.2681760E-05
      3     -111.4284663683   7.3462729E-08   1.8322308E-05
------------------------------------------------------------

 total:                                   0.120 sec
 * total energy  :  -111.4284664 Eh     change       -0.5129447E-05 Eh
   gradient norm :     0.0002540 Eh/α   predicted    -0.2084131E-05 ( -59.37%)
   displ. norm   :     0.0548872 α      lambda       -0.3429950E-05
   maximum displ.:     0.0413062 α      in ANC's #1, #3, #2, ...

........................................................................
.............................. CYCLE   35 ..............................
........................................................................
------------------------------------------------------------
  cycle        total energy    energy error   density error
------------------------------------------------------------
      1     -111.4284699797  -1.1309948E+02   1.4555612E-04
      2     -111.4284700100  -3.0214338E-08   9.6213093E-05
      3     -111.4284705830  -5.7308335E-07   6.5346563E-05
      4     -111.4284709868  -4.0376855E-07   1.5453775E-05
------------------------------------------------------------

 total:                                   0.147 sec
 * total energy  :  -111.4284710 Eh     change       -0.4618504E-05 Eh
   gradient norm :     0.0001950 Eh/α   predicted    -0.1721751E-05 ( -62.72%)
   displ. norm   :     0.0588440 α      lambda       -0.3812053E-05
   maximum displ.:     0.0424513 α      in ANC's #1, #3, #2, ...

........................................................................
.............................. CYCLE   36 ..............................
........................................................................
------------------------------------------------------------
  cycle        total energy    energy error   density error
------------------------------------------------------------
      1     -111.4284752416  -1.1309944E+02   1.5270800E-04
      2     -111.4284752177   2.3892611E-08   9.6211549E-05
      3     -111.4284753213  -1.0362646E-07   7.2975408E-05
      4     -111.4284760473  -7.2598668E-07   1.3009064E-05
------------------------------------------------------------

 total:                                   0.227 sec
 * total energy  :  -111.4284760 Eh     change       -0.5060500E-05 Eh
   gradient norm :     0.0002244 Eh/α   predicted    -0.1910850E-05 ( -62.24%)
   displ. norm   :     0.0704413 α      lambda       -0.4166704E-05
   maximum displ.:     0.0492315 α      in ANC's #1, #3, #2, ...

........................................................................
.............................. CYCLE   37 ..............................
........................................................................
------------------------------------------------------------
  cycle        total energy    energy error   density error
------------------------------------------------------------
      1     -111.4284809238  -1.1309942E+02   1.7278755E-04
      2     -111.4284809414  -1.7604322E-08   1.0273920E-04
      3     -111.4284802581   6.8329120E-07   8.1727346E-05
      4     -111.4284814020  -1.1438879E-06   1.1843437E-05
      5     -111.4284814366  -3.4568927E-08   2.1647422E-06
------------------------------------------------------------

 total:                                   0.293 sec
 * total energy  :  -111.4284814 Eh     change       -0.5389243E-05 Eh
   gradient norm :     0.0002351 Eh/α   predicted    -0.2089077E-05 ( -61.24%)
   displ. norm   :     0.0731870 α      lambda       -0.3642507E-05
   maximum displ.:     0.0508301 α      in ANC's #1, #3, #2, ...

........................................................................
.............................. CYCLE   38 ..............................
........................................................................
------------------------------------------------------------
  cycle        total energy    energy error   density error
------------------------------------------------------------
      1     -111.4284860647  -1.1309943E+02   1.6650935E-04
      2     -111.4284860766  -1.1843497E-08   9.8807264E-05
      3     -111.4284859826   9.3998295E-08   1.8268346E-05
------------------------------------------------------------

 total:                                   0.164 sec
 * total energy  :  -111.4284860 Eh     change       -0.4546006E-05 Eh
   gradient norm :     0.0002186 Eh/α   predicted    -0.1829104E-05 ( -59.76%)
   displ. norm   :     0.0634064 α      lambda       -0.2804815E-05
   maximum displ.:     0.0442708 α      in ANC's #1, #3, #2, ...

........................................................................
.............................. CYCLE   39 ..............................
........................................................................
------------------------------------------------------------
  cycle        total energy    energy error   density error
------------------------------------------------------------
      1     -111.4284883512  -1.1309947E+02   1.5828364E-04
      2     -111.4284881690   1.8221505E-07   1.0300077E-04
      3     -111.4284889121  -7.4308386E-07   7.6396378E-05
      4     -111.4284896852  -7.7306858E-07   9.6568654E-06
------------------------------------------------------------

 total:                                   0.164 sec
 * total energy  :  -111.4284897 Eh     change       -0.3702613E-05 Eh
   gradient norm :     0.0002095 Eh/α   predicted    -0.1407443E-05 ( -61.99%)
   displ. norm   :     0.0578632 α      lambda       -0.2521201E-05
   maximum displ.:     0.0406724 α      in ANC's #1, #3, #2, ...

........................................................................
.............................. CYCLE   40 ..............................
........................................................................
------------------------------------------------------------
  cycle        total energy    energy error   density error
------------------------------------------------------------
      1     -111.4284928433  -1.1309949E+02   1.2963607E-04
      2     -111.4284929172  -7.3904900E-08   7.6404669E-05
      3     -111.4284926459   2.7123475E-07   5.3777386E-05
      4     -111.4284930601  -4.1417528E-07   9.2263532E-06
------------------------------------------------------------

 total:                                   0.192 sec
 * total energy  :  -111.4284931 Eh     change       -0.3374943E-05 Eh
   gradient norm :     0.0001496 Eh/α   predicted    -0.1264743E-05 ( -62.53%)
   displ. norm   :     0.0633756 α      lambda       -0.2798791E-05
   maximum displ.:     0.0446029 α      in ANC's #1, #3, #2, ...

........................................................................
.............................. CYCLE   41 ..............................
........................................................................
------------------------------------------------------------
  cycle        total energy    energy error   density error
------------------------------------------------------------
      1     -111.4284964635  -1.1309954E+02   1.3663677E-04
      2     -111.4284964088   5.4703051E-08   8.4118042E-05
      3     -111.4284958198   5.8898993E-07   6.9319678E-05
      4     -111.4284968423  -1.0225210E-06   4.9687578E-06
      5     -111.4284968464  -4.0828922E-09   1.6553207E-06
------------------------------------------------------------

 total:                                   0.223 sec
 * total energy  :  -111.4284968 Eh     change       -0.3786275E-05 Eh
   gradient norm :     0.0001389 Eh/α   predicted    -0.1405323E-05 ( -62.88%)
   displ. norm   :     0.0714780 α      lambda       -0.2989418E-05
   maximum displ.:     0.0504657 α      in ANC's #1, #3, #2, ...

........................................................................
.............................. CYCLE   42 ..............................
........................................................................
------------------------------------------------------------
  cycle        total energy    energy error   density error
------------------------------------------------------------
      1     -111.4285007274  -1.1309954E+02   1.4226292E-04
      2     -111.4285007334  -5.9786061E-09   8.4514818E-05
      3     -111.4285007014   3.1984499E-08   1.2171442E-05
------------------------------------------------------------

 total:                                   0.172 sec
 * total energy  :  -111.4285007 Eh     change       -0.3855031E-05 Eh
   gradient norm :     0.0001474 Eh/α   predicted    -0.1501511E-05 ( -61.05%)
   displ. norm   :     0.0683565 α      lambda       -0.2449070E-05
   maximum displ.:     0.0490286 α      in ANC's #1, #3, #2, ...
 * RMSD in coord.:     0.1896157 α      energy gain  -0.2938295E-03 Eh

generating ANC from exact Hessian ...
Using Lindh-Hessian (1995)
 Shifting diagonal of input Hessian by    9.8599922796824384E-003
 Lowest  eigenvalues of input Hessian
    0.000000    0.000000    0.000000    0.000000    0.000000    0.000000
    0.010000    0.010100    0.010152    0.010327    0.010406    0.010516
    0.010988    0.011131    0.011391    0.011459    0.012558    0.012629
 Highest eigenvalues
    2.015162    2.040538    2.092897    2.095318    2.192854    2.221110


........................................................................
.............................. CYCLE   43 ..............................
........................................................................
------------------------------------------------------------
  cycle        total energy    energy error   density error
------------------------------------------------------------
      1     -111.4285033558  -1.1309955E+02   1.4126753E-04
      2     -111.4285033249   3.0879647E-08   8.7827868E-05
      3     -111.4285029892   3.3569052E-07   6.9300233E-05
      4     -111.4285038034  -8.1420234E-07   7.7519243E-06
------------------------------------------------------------

 total:                                   0.194 sec
 * total energy  :  -111.4285038 Eh     change       -0.3101996E-05 Eh
   gradient norm :     0.0001920 Eh/α   predicted     0.0000000E+00 (-100.00%)
   displ. norm   :     0.0104334 α      lambda       -0.2923485E-07
   maximum displ.:     0.0082716 α      in ANC's #1, #8, #6, ...

........................................................................
.............................. CYCLE   44 ..............................
........................................................................
------------------------------------------------------------
  cycle        total energy    energy error   density error
------------------------------------------------------------
      1     -111.4285044231  -1.1309956E+02   3.6859394E-05
      2     -111.4285044243  -1.2363301E-09   2.9408209E-05
      3     -111.4285046270  -2.0270407E-07   1.1998067E-05
------------------------------------------------------------

 total:                                   0.141 sec
 * total energy  :  -111.4285046 Eh     change       -0.8236059E-06 Eh
   gradient norm :     0.0001560 Eh/α   predicted    -0.3013732E-06 ( -63.41%)
   displ. norm   :     0.0275437 α      lambda       -0.1374187E-05
   maximum displ.:     0.0191535 α      in ANC's #1, #8, #6, ...

   *** GEOMETRY OPTIMIZATION CONVERGED AFTER 44 ITERATIONS ***

------------------------------------------------------------------------
 total energy gain   :        -0.0659830 Eh      -41.4049 kcal/mol
 total RMSD          :         0.6575550 a0        0.3480 Å
 total power (kW/mol):        -3.9372343 (step)  -16.0004 (real)
------------------------------------------------------------------------

 ANCopt (total)                0 d,  0 h,  0 min, 10.827 sec
 optimizer setup                ...        0 min,  0.001 sec (  0.008%)
 model hessian                  ...        0 min,  0.086 sec (  0.792%)
 ANC generation                 ...        0 min,  0.041 sec (  0.374%)
 coordinate transformation      ...        0 min,  0.001 sec (  0.011%)
 single point calculation       ...        0 min, 10.680 sec ( 98.641%)
 optimization log               ...        0 min,  0.006 sec (  0.056%)
 hessian update                 ...        0 min,  0.003 sec (  0.024%)
 rational function              ...        0 min,  0.008 sec (  0.078%)

================
 final structure:
================
 xtb: 6.7.1 (edcfbbe)
          03132510333D

 78 82  0     0  0            999 V2000
   -0.9443    1.8363   -0.1824 C   0  0  0  0  0  0  0  0  0  0  0  0
   -0.9900    0.4679   -0.0694 C   0  0  0  0  0  0  0  0  0  0  0  0
   -0.0216   -0.2307    0.7032 C   0  0  0  0  0  0  0  0  0  0  0  0
    1.0958    0.5177    1.1241 C   0  0  0  0  0  0  0  0  0  0  0  0
    1.1179    1.9123    0.9906 C   0  0  0  0  0  0  0  0  0  0  0  0
    0.0882    2.5971    0.3949 C   0  0  0  0  0  0  0  0  0  0  0  0
   -0.0799   -1.6360    0.9462 C   0  0  0  0  0  0  0  0  0  0  0  0
    1.1392   -2.3002    1.1788 C   0  0  0  0  0  0  0  0  0  0  0  0
    2.3165   -1.5871    1.5171 C   0  0  0  0  0  0  0  0  0  0  0  0
    2.2886   -0.1349    1.6578 C   0  0  0  0  0  0  0  0  0  0  0  0
   -1.2705   -2.4229    0.9811 C   0  0  0  0  0  0  0  0  0  0  0  0
   -1.2061   -3.8190    0.7973 C   0  0  0  0  0  0  0  0  0  0  0  0
    0.0749   -4.5160    0.7240 C   0  0  0  0  0  0  0  0  0  0  0  0
    1.2380   -3.7119    1.0847 C   0  0  0  0  0  0  0  0  0  0  0  0
    2.4544   -4.3416    1.3045 C   0  0  0  0  0  0  0  0  0  0  0  0
    3.6070   -3.6453    1.6518 C   0  0  0  0  0  0  0  0  0  0  0  0
    3.5061   -2.2658    1.7583 C   0  0  0  0  0  0  0  0  0  0  0  0
   -2.5447   -1.8945    1.3282 C   0  0  0  0  0  0  0  0  0  0  0  0
   -3.6723   -2.6770    1.2632 C   0  0  0  0  0  0  0  0  0  0  0  0
   -3.6157   -4.0400    0.9219 C   0  0  0  0  0  0  0  0  0  0  0  0
   -2.3725   -4.5932    0.7426 C   0  0  0  0  0  0  0  0  0  0  0  0
   -2.5533   -0.6067    1.8142 O   0  0  0  0  0  0  0  0  0  0  0  0
   -1.8953   -0.3131   -0.7520 O   0  0  0  0  0  0  0  0  0  0  0  0
    3.2351    0.5044    2.1390 O   0  0  0  0  0  0  0  0  0  0  0  0
    0.1621   -5.7192    0.4397 O   0  0  0  0  0  0  0  0  0  0  0  0
   -3.7697   -0.0250    2.1699 C   0  0  0  0  0  0  0  0  0  0  0  0
   -2.8530    0.3070   -1.5538 C   0  0  0  0  0  0  0  0  0  0  0  0
   -4.9125   -4.8301    0.8262 C   0  0  0  0  0  0  0  0  0  0  0  0
   -4.6727   -6.2882    0.4265 C   0  0  0  0  0  0  0  0  0  0  0  0
   -5.6250   -4.8198    2.1867 C   0  0  0  0  0  0  0  0  0  0  0  0
   -5.8173   -4.1882   -0.2355 C   0  0  0  0  0  0  0  0  0  0  0  0
    0.0351    4.1138    0.2857 C   0  0  0  0  0  0  0  0  0  0  0  0
   -1.2673    4.6189    0.9241 C   0  0  0  0  0  0  0  0  0  0  0  0
    1.2065    4.7860    1.0063 C   0  0  0  0  0  0  0  0  0  0  0  0
    0.0805    4.5290   -1.1920 C   0  0  0  0  0  0  0  0  0  0  0  0
    4.8994   -4.4111    1.8968 C   0  0  0  0  0  0  0  0  0  0  0  0
    6.0647   -3.4921    2.2730 C   0  0  0  0  0  0  0  0  0  0  0  0
    5.2811   -5.1740    0.6204 C   0  0  0  0  0  0  0  0  0  0  0  0
    4.6822   -5.4064    3.0454 C   0  0  0  0  0  0  0  0  0  0  0  0
    5.5945   -5.9698    3.2407 H   0  0  0  0  0  0  0  0  0  0  0  0
    3.8886   -6.1089    2.8067 H   0  0  0  0  0  0  0  0  0  0  0  0
    4.4025   -4.8737    3.9523 H   0  0  0  0  0  0  0  0  0  0  0  0
    6.9631   -4.0865    2.4394 H   0  0  0  0  0  0  0  0  0  0  0  0
    5.8464   -2.9427    3.1856 H   0  0  0  0  0  0  0  0  0  0  0  0
    6.2704   -2.7807    1.4767 H   0  0  0  0  0  0  0  0  0  0  0  0
    6.2013   -5.7379    0.7730 H   0  0  0  0  0  0  0  0  0  0  0  0
    5.4342   -4.4754   -0.1999 H   0  0  0  0  0  0  0  0  0  0  0  0
    4.4962   -5.8676    0.3320 H   0  0  0  0  0  0  0  0  0  0  0  0
   -6.7493   -4.7452   -0.3309 H   0  0  0  0  0  0  0  0  0  0  0  0
   -5.3131   -4.1868   -1.1996 H   0  0  0  0  0  0  0  0  0  0  0  0
   -6.0591   -3.1603    0.0218 H   0  0  0  0  0  0  0  0  0  0  0  0
   -6.5395   -5.4109    2.1428 H   0  0  0  0  0  0  0  0  0  0  0  0
   -5.8878   -3.8089    2.4877 H   0  0  0  0  0  0  0  0  0  0  0  0
   -4.9744   -5.2425    2.9493 H   0  0  0  0  0  0  0  0  0  0  0  0
   -5.6264   -6.8078    0.3341 H   0  0  0  0  0  0  0  0  0  0  0  0
   -4.0767   -6.8016    1.1765 H   0  0  0  0  0  0  0  0  0  0  0  0
   -4.1569   -6.3456   -0.5286 H   0  0  0  0  0  0  0  0  0  0  0  0
   -3.5302    0.9923    2.4822 H   0  0  0  0  0  0  0  0  0  0  0  0
   -4.2503   -0.5521    3.0054 H   0  0  0  0  0  0  0  0  0  0  0  0
   -4.4722    0.0157    1.3271 H   0  0  0  0  0  0  0  0  0  0  0  0
   -3.4552   -0.5003   -1.9726 H   0  0  0  0  0  0  0  0  0  0  0  0
   -2.3964    0.8763   -2.3749 H   0  0  0  0  0  0  0  0  0  0  0  0
   -3.5051    0.9778   -0.9790 H   0  0  0  0  0  0  0  0  0  0  0  0
    0.0680    5.6149   -1.2836 H   0  0  0  0  0  0  0  0  0  0  0  0
   -0.7699    4.1313   -1.7400 H   0  0  0  0  0  0  0  0  0  0  0  0
    0.9895    4.1516   -1.6557 H   0  0  0  0  0  0  0  0  0  0  0  0
    1.2238    4.5052    2.0562 H   0  0  0  0  0  0  0  0  0  0  0  0
    1.1079    5.8697    0.9413 H   0  0  0  0  0  0  0  0  0  0  0  0
    2.1533    4.5030    0.5537 H   0  0  0  0  0  0  0  0  0  0  0  0
   -1.3193    5.7064    0.8771 H   0  0  0  0  0  0  0  0  0  0  0  0
   -1.3104    4.3136    1.9675 H   0  0  0  0  0  0  0  0  0  0  0  0
   -2.1388    4.2139    0.4164 H   0  0  0  0  0  0  0  0  0  0  0  0
    2.4613   -5.4173    1.1939 H   0  0  0  0  0  0  0  0  0  0  0  0
    4.3506   -1.6524    2.0338 H   0  0  0  0  0  0  0  0  0  0  0  0
    1.9954    2.4055    1.3772 H   0  0  0  0  0  0  0  0  0  0  0  0
   -1.7067    2.3482   -0.7504 H   0  0  0  0  0  0  0  0  0  0  0  0
   -4.6317   -2.2460    1.5076 H   0  0  0  0  0  0  0  0  0  0  0  0
   -2.2266   -5.6464    0.5635 H   0  0  0  0  0  0  0  0  0  0  0  0
  1  2  2  0  0  0  0
  1 76  1  0  0  0  0
  2  3  1  0  0  0  0
  2 23  1  0  0  0  0
  3  4  2  0  0  0  0
  3  7  1  0  0  0  0
  4  5  1  0  0  0  0
  5  6  2  0  0  0  0
  5 75  1  0  0  0  0
  6 32  1  0  0  0  0
  6  1  1  0  0  0  0
  7  8  1  0  0  0  0
  8  9  2  0  0  0  0
  9 10  1  0  0  0  0
 10  4  1  0  0  0  0
 10 24  2  0  0  0  0
 11 12  2  0  0  0  0
 11 18  1  0  0  0  0
 11  7  1  0  0  0  0
 12 13  1  0  0  0  0
 13 14  1  0  0  0  0
 13 25  2  0  0  0  0
 14  8  1  0  0  0  0
 14 15  2  0  0  0  0
 15 16  1  0  0  0  0
 15 73  1  0  0  0  0
 16 36  1  0  0  0  0
 16 17  2  0  0  0  0
 17  9  1  0  0  0  0
 17 74  1  0  0  0  0
 18 19  2  0  0  0  0
 19 20  1  0  0  0  0
 19 77  1  0  0  0  0
 20 28  1  0  0  0  0
 20 21  2  0  0  0  0
 21 12  1  0  0  0  0
 21 78  1  0  0  0  0
 22 26  1  0  0  0  0
 22 18  1  0  0  0  0
 23 27  1  0  0  0  0
 26 58  1  0  0  0  0
 26 59  1  0  0  0  0
 26 60  1  0  0  0  0
 27 61  1  0  0  0  0
 27 62  1  0  0  0  0
 27 63  1  0  0  0  0
 28 29  1  0  0  0  0
 28 30  1  0  0  0  0
 28 31  1  0  0  0  0
 29 55  1  0  0  0  0
 29 56  1  0  0  0  0
 29 57  1  0  0  0  0
 30 52  1  0  0  0  0
 30 53  1  0  0  0  0
 30 54  1  0  0  0  0
 31 49  1  0  0  0  0
 31 50  1  0  0  0  0
 31 51  1  0  0  0  0
 32 33  1  0  0  0  0
 32 34  1  0  0  0  0
 32 35  1  0  0  0  0
 33 70  1  0  0  0  0
 33 71  1  0  0  0  0
 33 72  1  0  0  0  0
 34 67  1  0  0  0  0
 34 68  1  0  0  0  0
 34 69  1  0  0  0  0
 35 64  1  0  0  0  0
 35 65  1  0  0  0  0
 35 66  1  0  0  0  0
 36 37  1  0  0  0  0
 36 38  1  0  0  0  0
 36 39  1  0  0  0  0
 37 43  1  0  0  0  0
 37 44  1  0  0  0  0
 37 45  1  0  0  0  0
 38 46  1  0  0  0  0
 38 47  1  0  0  0  0
 38 48  1  0  0  0  0
 39 40  1  0  0  0  0
 39 41  1  0  0  0  0
 39 42  1  0  0  0  0
M  CHG  1   7  -1
M  END

 Bond Distances (Angstroems)
 ---------------------------
C1-C2=1.3738         C1-C6=1.4064         C1-H76=1.0798        C2-C1=1.3738         C2-C3=1.4222         C2-O23=1.3768        
C3-C2=1.4222         C3-C4=1.4092         C3-C7=1.4274         C4-C3=1.4092         C4-C5=1.4011         C4-C10=1.4607        
C5-C4=1.4011         C5-C6=1.3726         C5-H75=1.0783        C6-C1=1.4064         C6-C5=1.3726         C6-C32=1.5216        
C7-C3=1.4274         C7-C8=1.4076         C7-C11=1.4276        C8-C7=1.4076         C8-C9=1.4174         C8-C14=1.4183        
C9-C8=1.4174         C9-C10=1.4592        C9-C17=1.3907        C10-C4=1.4607        C10-C9=1.4592        C10-O24=1.2395       
C11-C7=1.4276        C11-C12=1.4096       C11-C18=1.4224       C12-C11=1.4096       C12-C13=1.4601       C12-C21=1.4010       
C13-C12=1.4601       C13-C14=1.4593       C13-O25=1.2394       C14-C8=1.4183        C14-C13=1.4593       C14-C15=1.3872       
C15-C14=1.3872       C15-C16=1.3907       C15-H73=1.0814       C16-C15=1.3907       C16-C17=1.3872       C16-C36=1.5221       
C17-C9=1.3907        C17-C16=1.3872       C17-H74=1.0795       C18-C11=1.4224       C18-C19=1.3740       C18-O22=1.3765       
C19-C18=1.3740       C19-C20=1.4062       C19-H77=1.0798       C20-C19=1.4062       C20-C21=1.3725       C20-C28=1.5216       
C21-C12=1.4010       C21-C20=1.3725       C21-H78=1.0783       O22-C18=1.3765       O22-C26=1.3945       O23-C2=1.3768        
O23-C27=1.3945       O24-C10=1.2395       O25-C13=1.2394       C26-O22=1.3945       C26-H58=1.0908       C26-H59=1.0986       
C26-H60=1.0979       C27-O23=1.3945       C27-H61=1.0908       C27-H62=1.0986       C27-H63=1.0980       C28-C20=1.5216       
C28-C29=1.5308       C28-C30=1.5358       C28-C31=1.5356       C29-C28=1.5308       C29-H55=1.0900       C29-H56=1.0869       
C29-H57=1.0869       C30-C28=1.5358       C30-H52=1.0898       C30-H53=1.0870       C30-H54=1.0880       C31-C28=1.5356       
C31-H49=1.0899       C31-H50=1.0880       C31-H51=1.0869       C32-C6=1.5216        C32-C33=1.5358       C32-C34=1.5309       
C32-C35=1.5356       C33-C32=1.5358       C33-H70=1.0898       C33-H71=1.0880       C33-H72=1.0869       C34-C32=1.5309       
C34-H67=1.0870       C34-H68=1.0900       C34-H69=1.0868       C35-C32=1.5356       C35-H64=1.0898       C35-H65=1.0870       
C35-H66=1.0880       C36-C16=1.5221       C36-C37=1.5311       C36-C38=1.5352       C36-C39=1.5353       C37-C36=1.5311       
C37-H43=1.0901       C37-H44=1.0873       C37-H45=1.0874       C38-C36=1.5352       C38-H46=1.0899       C38-H47=1.0883       
C38-H48=1.0864       C39-C36=1.5353       C39-H40=1.0899       C39-H41=1.0864       C39-H42=1.0883       H40-C39=1.0899       
H41-C39=1.0864       H42-C39=1.0883       H43-C37=1.0901       H44-C37=1.0873       H45-C37=1.0874       H46-C38=1.0899       
H47-C38=1.0883       H48-C38=1.0864       H49-C31=1.0899       H50-C31=1.0880       H51-C31=1.0869       H52-C30=1.0898       
H53-C30=1.0870       H54-C30=1.0880       H55-C29=1.0900       H56-C29=1.0869       H57-C29=1.0869       H58-C26=1.0908       
H59-C26=1.0986       H60-C26=1.0979       H61-C27=1.0908       H62-C27=1.0986       H63-C27=1.0980       H64-C35=1.0898       
H65-C35=1.0870       H66-C35=1.0880       H67-C34=1.0870       H68-C34=1.0900       H69-C34=1.0868       H70-C33=1.0898       
H71-C33=1.0880       H72-C33=1.0869       H73-C15=1.0814       H74-C17=1.0795       H75-C5=1.0783        H76-C1=1.0798        
H77-C19=1.0798       H78-C21=1.0783       
 C  H  Rav=1.0880 sigma=0.0049  Rmin=1.0783  Rmax=1.0986    39
 C  C  Rav=1.4496 sigma=0.0607  Rmin=1.3725  Rmax=1.5358    37
 O  C  Rav=1.3368 sigma=0.0693  Rmin=1.2394  Rmax=1.3945     6

 selected bond angles (degree)
 --------------------
C6-C1-C2=121.97                H76-C1-C2=119.47               H76-C1-C6=118.55               C3-C2-C1=120.75                
O23-C2-C1=123.10               O23-C2-C3=116.01               C4-C3-C2=116.19                C7-C3-C2=123.25                
C7-C3-C4=120.29                C5-C4-C3=120.84                C10-C4-C3=121.29               C10-C4-C5=117.81               
C6-C5-C4=121.74                H75-C5-C4=115.72               H75-C5-C6=122.54               C5-C6-C1=117.32                
C32-C6-C1=118.95               C32-C6-C5=123.69               C8-C7-C3=117.21                C11-C7-C3=125.52               
C11-C7-C8=117.27               C9-C8-C7=121.43                C14-C8-C7=121.27               C14-C8-C9=117.30               
C10-C9-C8=120.52               C17-C9-C8=120.42               C17-C9-C10=119.03              C9-C10-C4=115.15               
O24-C10-C4=122.35              O24-C10-C9=122.42              

 selected dihedral angles (degree)
 ---------------------------------
C3-C2-C1-C6=  3.34            C3-C2-C1-H76=181.79           O23-C2-C1-C6=187.88           O23-C2-C1-H76=  6.33          
C4-C3-C2-C1=348.76            C4-C3-C2-O23=164.53           C7-C3-C2-C1=174.75            C7-C3-C2-O23=350.51           
C5-C4-C3-C2= 11.07            C5-C4-C3-C7=185.27            C10-C4-C3-C2=193.77           C10-C4-C3-C7=  7.98           
C6-C5-C4-C3=357.03            C6-C5-C4-C10=174.41           H75-C5-C4-C3=177.51           H75-C5-C4-C10=354.90          
C5-C6-C1-C2=  5.14            C5-C6-C1-H76=186.67           C32-C6-C1-C2=182.97           C32-C6-C1-H76=  4.50          
C1-C6-C5-C4=354.69            C1-C6-C5-H75=174.18           C32-C6-C5-C4=176.98           C32-C6-C5-H75=356.46          
C8-C7-C3-C2=152.63            C8-C7-C3-C4=338.85            C11-C7-C3-C2=332.24           C11-C7-C3-C4=158.46           
C9-C8-C7-C3= 16.64            C9-C8-C7-C11=197.00           C14-C8-C7-C3=196.59           C14-C8-C7-C11= 16.95          
C10-C9-C8-C7=  1.13           C10-C9-C8-C14=181.17          C17-C9-C8-C7=179.22           C17-C9-C8-C14=359.27          
C9-C10-C4-C3=  9.52           C9-C10-C4-C5=192.14           O24-C10-C4-C3=186.32          O24-C10-C4-C5=  8.94          
C4-C10-C9-C8=345.97           C4-C10-C9-C17=167.85          O24-C10-C9-C8=169.17          O24-C10-C9-C17=351.05         
           -------------------------------------------------
          |                Final Singlepoint                |
           -------------------------------------------------
repulsion energy          1.6702256012932E+00 Eh
dispersion energy         8.3233820398900E-04 Eh
interaction energy        0.0000000000000E+00 Eh
number of electrons       2.0400000000000E+02 e
integral cutoff           1.7347787504999E+01 bohr

------------------------------------------------------------
  cycle        total energy    energy error   density error
------------------------------------------------------------
      1     -111.4285044827  -1.1309956E+02   2.1660662E-05
      2     -111.4285044521   3.0559107E-08   2.3632791E-05
      3     -111.4285046356  -1.8344309E-07   4.0944386E-07
------------------------------------------------------------

electronic energy        -1.1309956257509E+02 Eh
total energy             -1.1142850463559E+02 Eh

 total:                                   0.129 sec
 - repulsion                              0.000 sec (  0%)
 - dispersion                             0.006 sec (  4%)
 - coulomb                                0.004 sec (  2%)
 - hamiltonian                            0.007 sec (  5%)
 - scc                                    0.111 sec ( 86%)

           -------------------------------------------------
          |                Property Printout                |
           -------------------------------------------------
           -------------------------------------------------
          |                Geometry Summary                 |
           -------------------------------------------------

      molecular mass/u    :      523.6830654
   center of mass at/Å    :       -0.1760584      -1.5947015       0.9461211
  moments of inertia/u·Å² :        0.5562426E+04   0.5692894E+04   0.1045346E+05
rotational constants/cm⁻¹ :        0.3030626E-02   0.2961171E-02   0.1612637E-02

 * 75 selected distances

     #   Z          #   Z                                           value/Å
     1   6 C        2   6 C                                       1.3738366
     2   6 C        3   6 C                                       1.4221535
     3   6 C        4   6 C                                       1.4091860
     4   6 C        5   6 C                                       1.4011062
     1   6 C        6   6 C                                       1.4064193
     5   6 C        6   6 C                                       1.3726302
     3   6 C        7   6 C                                       1.4273579
     7   6 C        8   6 C                                       1.4076299
     8   6 C        9   6 C                                       1.4173944
     7   6 C       11   6 C                                       1.4275860
    11   6 C       12   6 C                                       1.4095928
     8   6 C       14   6 C                                       1.4183248
    14   6 C       15   6 C                                       1.3872031
    15   6 C       16   6 C                                       1.3907034
     9   6 C       17   6 C                                       1.3907408
    16   6 C       17   6 C                                       1.3872461
    11   6 C       18   6 C                                       1.4223621
    18   6 C       19   6 C                                       1.3740284
    19   6 C       20   6 C                                       1.4062111
    12   6 C       21   6 C                                       1.4010202
    20   6 C       21   6 C                                       1.3724837
    18   6 C       22   8 O                                       1.3764856
     2   6 C       23   8 O                                       1.3767536
    10   6 C       24   8 O                                       1.2394642
    13   6 C       25   8 O                                       1.2393914
    22   8 O       26   6 C                                       1.3944918
    23   8 O       27   6 C                                       1.3944661
    28   6 C       29   6 C                                       1.5308402
    28   6 C       30   6 C                                       1.5358044
    28   6 C       31   6 C                                       1.5356048
    32   6 C       33   6 C                                       1.5358275 (max)
    32   6 C       34   6 C                                       1.5308533
    32   6 C       35   6 C                                       1.5356196
    36   6 C       37   6 C                                       1.5310523
    36   6 C       38   6 C                                       1.5352071
    36   6 C       39   6 C                                       1.5352629
    39   6 C       40   1 H                                       1.0899095
    39   6 C       41   1 H                                       1.0864257
    39   6 C       42   1 H                                       1.0883357
    37   6 C       43   1 H                                       1.0900575
    37   6 C       44   1 H                                       1.0873375
    37   6 C       45   1 H                                       1.0874051
    38   6 C       46   1 H                                       1.0899344
    38   6 C       47   1 H                                       1.0883301
    38   6 C       48   1 H                                       1.0863605
    31   6 C       49   1 H                                       1.0898516
    31   6 C       50   1 H                                       1.0879859
    31   6 C       51   1 H                                       1.0869259
    30   6 C       52   1 H                                       1.0897790
    30   6 C       53   1 H                                       1.0869805
    30   6 C       54   1 H                                       1.0879695
    29   6 C       55   1 H                                       1.0900333
    29   6 C       56   1 H                                       1.0869040
    29   6 C       57   1 H                                       1.0869318
    26   6 C       58   1 H                                       1.0908230
Note: The following floating-point exceptions are signalling: IEEE_UNDERFLOW_FLAG
normal termination of xtb
    26   6 C       59   1 H                                       1.0986180
    26   6 C       60   1 H                                       1.0978935
    27   6 C       61   1 H                                       1.0907817
    27   6 C       62   1 H                                       1.0985717
    27   6 C       63   1 H                                       1.0980084
    35   6 C       64   1 H                                       1.0898079
    35   6 C       65   1 H                                       1.0870395
    35   6 C       66   1 H                                       1.0879546
    34   6 C       67   1 H                                       1.0869676
    34   6 C       68   1 H                                       1.0900427
    34   6 C       69   1 H                                       1.0868494
    33   6 C       70   1 H                                       1.0898447
    33   6 C       71   1 H                                       1.0879936
    33   6 C       72   1 H                                       1.0868905
[...]
    81   6 C       82   6 C                                       1.4113543
    82   6 C       83   6 C                                       1.3989086
    79   6 C       84   6 C                                       1.3995654
    83   6 C       84   6 C                                       1.3765712
    81   6 C       85   6 C                                       1.4328674
    85   6 C       86   6 C                                       1.4048029
    86   6 C       87   6 C                                       1.4189237
    85   6 C       89   6 C                                       1.4277128
    89   6 C       90   6 C                                       1.4101845
    86   6 C       92   6 C                                       1.4209592
    92   6 C       93   6 C                                       1.3867225
    93   6 C       94   6 C                                       1.3909306
    87   6 C       95   6 C                                       1.3897349
    94   6 C       95   6 C                                       1.3875021
    89   6 C       96   6 C                                       1.4205942
    96   6 C       97   6 C                                       1.3753431
    97   6 C       98   6 C                                       1.4038669
    90   6 C       99   6 C                                       1.3994849
    98   6 C       99   6 C                                       1.3757838
    96   6 C      100   8 O                                       1.3787226
    80   6 C      101   8 O                                       1.3704905
    88   6 C      102   8 O                                       1.2418459
    91   6 C      103   8 O                                       1.2417438
   100   8 O      104   6 C                                       1.3946016
   101   8 O      105   6 C                                       1.4002352
   106   6 C      107   6 C                                       1.5351697
   106   6 C      108   6 C                                       1.5358838
   106   6 C      109   6 C                                       1.5322490
   110   6 C      111   6 C                                       1.5363925
   110   6 C      112   6 C                                       1.5346209
   110   6 C      113   6 C                                       1.5312776
   114   6 C      115   6 C                                       1.5313265
   114   6 C      116   6 C                                       1.5352644
   114   6 C      117   6 C                                       1.5354655
   117   6 C      118   1 H                                       1.0906956
   117   6 C      119   1 H                                       1.0863789
   117   6 C      120   1 H                                       1.0884726
   115   6 C      121   1 H                                       1.0907913
   115   6 C      122   1 H                                       1.0874434
   115   6 C      123   1 H                                       1.0872782
Note: The following floating-point exceptions are signalling: IEEE_UNDERFLOW_FLAG
normal termination of xtb
   116   6 C      124   1 H                                       1.0907070
   116   6 C      125   1 H                                       1.0882108
   116   6 C      126   1 H                                       1.0863055
   109   6 C      127   1 H                                       1.0903939
   109   6 C      128   1 H                                       1.0878669
   109   6 C      129   1 H                                       1.0889819
   108   6 C      130   1 H                                       1.0903078
   108   6 C      131   1 H                                       1.0892283
   108   6 C      132   1 H                                       1.0864020
   107   6 C      133   1 H                                       1.0905327
   107   6 C      134   1 H                                       1.0857611
   107   6 C      135   1 H                                       1.0876282
   104   6 C      136   1 H                                       1.0910816
   104   6 C      137   1 H                                       1.0996582
   104   6 C      138   1 H                                       1.0967714
   105   6 C      139   1 H                                       1.0903658
   105   6 C      140   1 H                                       1.0919162
   105   6 C      141   1 H                                       1.0972804
   113   6 C      142   1 H                                       1.0902722
   113   6 C      143   1 H                                       1.0885904
   113   6 C      144   1 H                                       1.0876953
   112   6 C      145   1 H                                       1.0871600
   112   6 C      146   1 H                                       1.0899808
   112   6 C      147   1 H                                       1.0870707
   111   6 C      148   1 H                                       1.0904023
   111   6 C      149   1 H                                       1.0863662
   111   6 C      150   1 H                                       1.0887902
    93   6 C      151   1 H                                       1.0818688
    95   6 C      152   1 H                                       1.0798884
    83   6 C      153   1 H                                       1.0805675
    79   6 C      154   1 H                                       1.0760584 (min)
    97   6 C      155   1 H                                       1.0776828
    99   6 C      156   1 H                                       1.0801540

 * 3 distinct bonds (by element types)

   Z      Z             #   av. dist./Å        max./Å        min./Å
   1 H    6 C          78     1.0880647     1.0996582     1.0760584
   6 C    6 C          60     1.4412858     1.5368274     1.3733287
   6 C    8 O          12     1.3373827     1.4002352     1.2361186


optimized geometry written to: xtbopt.mol


           -------------------------------------------------
          | TOTAL ENERGY             -222.817657096856 Eh   |
          | GRADIENT NORM               0.000099928213 Eh/α |
           -------------------------------------------------

------------------------------------------------------------------------
 * finished run on 2025/03/13 at 10:35:30.954     
------------------------------------------------------------------------
 total:
 * wall-time:     0 d,  0 h,  1 min, 53.106 sec
 *  cpu-time:     0 d,  0 h,  5 min, 48.002 sec
 * ratio c/w:     3.077 speedup
 SCF:
 * wall-time:     0 d,  0 h,  0 min,  2.253 sec
 *  cpu-time:     0 d,  0 h,  0 min,  8.050 sec
 * ratio c/w:     3.573 speedup
 ANC optimizer:
 * wall-time:     0 d,  0 h,  1 min, 50.845 sec
 *  cpu-time:     0 d,  0 h,  5 min, 39.947 sec
 * ratio c/w:     3.067 speedup

      -----------------------------------------------------------      
     |                   =====================                   |     
     |                           x T B                           |     
     |                   =====================                   |     
     |                         S. Grimme                         |     
     |          Mulliken Center for Theoretical Chemistry        |     
     |                    University of Bonn                     |     
      -----------------------------------------------------------      

   * xtb version 6.7.1 (edcfbbe) compiled by 'runner@Mac-1732539442253.local' on 2024-11-25

   xtb is free software: you can redistribute it and/or modify it under
   the terms of the GNU Lesser General Public License as published by
   the Free Software Foundation, either version 3 of the License, or
   (at your option) any later version.
   
   xtb is distributed in the hope that it will be useful,
   but WITHOUT ANY WARRANTY; without even the implied warranty of
   MERCHANTABILITY or FITNESS FOR A PARTICULAR PURPOSE.  See the
   GNU Lesser General Public License for more details.
   
   Cite this work as:
   * C. Bannwarth, E. Caldeweyher, S. Ehlert, A. Hansen, P. Pracht,
     J. Seibert, S. Spicher, S. Grimme, WIREs Comput. Mol. Sci., 2020, 11,
     e01493. DOI: 10.1002/wcms.1493
   
   for GFN2-xTB:
   * C. Bannwarth, S. Ehlert and S. Grimme., J. Chem. Theory Comput., 2019,
     15, 1652-1671. DOI: 10.1021/acs.jctc.8b01176
   for GFN1-xTB:
   * S. Grimme, C. Bannwarth, P. Shushkov, J. Chem. Theory Comput., 2017,
     13, 1989-2009. DOI: 10.1021/acs.jctc.7b00118
   for GFN0-xTB:
   * P. Pracht, E. Caldeweyher, S. Ehlert, S. Grimme, ChemRxiv, 2019, preprint.
     DOI: 10.26434/chemrxiv.8326202.v1
   for GFN-FF:
   * S. Spicher and S. Grimme, Angew. Chem. Int. Ed., 2020, 59, 15665-15673.
     DOI: 10.1002/anie.202004239
   
   for ALPB and GBSA implicit solvation:
   * S. Ehlert, M. Stahn, S. Spicher, S. Grimme, J. Chem. Theory Comput.,
     2021, 17, 4250-4261. DOI: 10.1021/acs.jctc.1c00471
   
   for ddCOSMO and CPCM-X implicit solvation:
   * M. Stahn, S. Ehlert, S. Grimme, J. Phys. Chem. A,
     2023, XX, XXXX-XXXX. DOI: 10.1021/acs.jpca.3c04382
   
   for DFT-D4:
   * E. Caldeweyher, C. Bannwarth and S. Grimme, J. Chem. Phys., 2017,
     147, 034112. DOI: 10.1063/1.4993215
   * E. Caldeweyher, S. Ehlert, A. Hansen, H. Neugebauer, S. Spicher,
     C. Bannwarth and S. Grimme, J. Chem. Phys., 2019, 150, 154122.
     DOI: 10.1063/1.5090222
   * E. Caldeweyher, J.-M. Mewes, S. Ehlert and S. Grimme, Phys. Chem. Chem. Phys.
     2020, 22, 8499-8512. DOI: 10.1039/D0CP00502A
   
   for sTDA-xTB:
   * S. Grimme and C. Bannwarth, J. Chem. Phys., 2016, 145, 054103.
     DOI: 10.1063/1.4959605
   
   in the mass-spec context:
   * V. Asgeirsson, C. Bauer and S. Grimme, Chem. Sci., 2017, 8, 4879.
     DOI: 10.1039/c7sc00601b
   * J. Koopman and S. Grimme, ACS Omega 2019, 4, 12, 15120-15133.
     DOI: 10.1021/acsomega.9b02011
   
   for metadynamics refer to:
   * S. Grimme, J. Chem. Theory Comput., 2019, 155, 2847-2862
     DOI: 10.1021/acs.jctc.9b00143
   
   for SPH calculations refer to:
   * S. Spicher and S. Grimme, J. Chem. Theory Comput., 2021, 17, 1701-1714
     DOI: 10.1021/acs.jctc.0c01306
   
   for ONIOM refer to:
   * C. Plett, A. Katbashev, S. Ehlert, S. Grimme, M. Bursch,
     Phys. Chem. Chem. Phys., 2023, 25, 17860-17868. DOI: 10.1039/D3CP02178E
   
   for DIPRO refer to:
   * J. Kohn, N. Gildemeister, S. Grimme, D. Fazzi, A. Hansen,
     J. Chem. Phys., 2023, just accepted.
   
   for PTB refer to:
   * S. Grimme, M. Mueller, A. Hansen, J. Chem. Phys., 2023, 158, 124111.
     DOI: 10.1063/5.0137838
   
   with help from (in alphabetical order)
   P. Atkinson, C. Bannwarth, F. Bohle, G. Brandenburg, E. Caldeweyher
   M. Checinski, S. Dohm, S. Ehlert, S. Ehrlich, I. Gerasimov, C. Hölzer
   A. Katbashev, J. Kohn, J. Koopman, C. Lavigne, S. Lehtola, F. März, M. Müller,
   F. Musil, H. Neugebauer, J. Pisarek, C. Plett, P. Pracht, F. Pultar,
   J. Seibert, P. Shushkov, S. Spicher, M. Stahn, M. Steiner, T. Strunk,
   J. Stückrath, T. Rose, and J. Unsleber
   
 * started run on 2025/03/13 at 10:35:30.986     
   ID    Z sym.   atoms
    1    6 C      1-21, 26-39, 79-99, 104-117
    2    8 O      22-25, 100-103
    3    1 H      40-78, 118-156

           -------------------------------------------------
          |                Calculation Setup                |
           -------------------------------------------------

          program call               : xtb opt_dimer.mol --dipro 0.3 --chrg -2 --uhf 0 --spinpol --tblite
          coordinate file            : opt_dimer.mol
          omp threads                :                     8


molecular fragmentation (1/2 indicates fragments):
111111111111111111111111111111111111111111111111111111111111111111111111
111111222222222222222222222222222222222222222222222222222222222222222222
222222222222
# atoms in fragment 1/2:    78    78
 fragment masses (1/2) :      523.68      523.68
CMA distance (Bohr)    :  14.446
constraining FC (au)   :  0.0500
########################################################################
[WARNING] Please study the warnings concerning your input carefully
-1- prog_main: Charge in sdf/mol input was overwritten
########################################################################
Wavefunction read from restart file
           -------------------------------------------------
          |                    D I P R O                    |
           -------------------------------------------------
Calculation for dimer 
--------------------- 
  
charge of dimer :  -2.
unpaired e- of dimer :  0
repulsion energy          3.3364293428276E+00 Eh
dispersion energy         1.0443344048762E-02 Eh
number of electrons       4.0800000000000E+02 e
integral cutoff           1.7347787504999E+01 bohr

------------------------------------------------------------
  cycle        total energy    energy error   density error
------------------------------------------------------------
      1     -222.1581754218  -2.2550505E+02   1.3554263E-01
      2     -222.7345282348  -5.7635281E-01   6.1976161E-02
      3     -222.7533036963  -1.8775462E-02   3.0164203E-02
      4     -222.8044479431  -5.1144247E-02   1.4324665E-02
      5     -222.8132237145  -8.7757714E-03   5.7931101E-03
      6     -222.8163587353  -3.1350208E-03   3.0030353E-03
      7     -222.8175518984  -1.1931631E-03   1.0746601E-03
      8     -222.8176451115  -9.3213117E-05   5.0135959E-04
      9     -222.8176484484  -3.3368549E-06   2.3693799E-04
     10     -222.8176551066  -6.6581882E-06   1.0112876E-04
     11     -222.8176566851  -1.5785758E-06   4.8718134E-05
     12     -222.8176568464  -1.6122556E-07   2.2867548E-05
     13     -222.8176568659  -1.9577698E-08   9.5815160E-06
------------------------------------------------------------

electronic energy        -2.2616452955281E+02 Eh
total energy             -2.2281765686593E+02 Eh

 total:                                   1.089 sec
 - repulsion                              0.000 sec (  0%)
 - dispersion                             0.008 sec (  0%)
 - coulomb                                0.002 sec (  0%)
 - hamiltonian                            0.007 sec (  0%)
 - scc                                    1.072 sec ( 98%)

Found 2 fragments!
Fragment 1:  1-78
Fragment 2:  79-156

[Info] Fragment spin read from .UHFfrag
Calculation for fragment 1
 ------------------------------
   
charge of fragment :  -1.
unpaired e- of fragment :  0
------------------------------------------------------------
  cycle        total energy    energy error   density error
------------------------------------------------------------
      1     -111.0959349250  -1.1276575E+02   1.3649059E-01
      2     -111.3856556750  -2.8972075E-01   6.2343133E-02
      3     -111.3956224943  -9.9668193E-03   3.0203471E-02
      4     -111.4202485851  -2.4626091E-02   1.4163369E-02
      5     -111.4242884901  -4.0399050E-03   5.6722440E-03
      6     -111.4257147733  -1.4262832E-03   2.9615025E-03
      7     -111.4263294644  -6.1469116E-04   1.0935853E-03
      8     -111.4263840404  -5.4575934E-05   5.1228630E-04
      9     -111.4263854380  -1.3976336E-06   2.6993924E-04
     10     -111.4263913150  -5.8769401E-06   1.0371617E-04
     11     -111.4263920946  -7.7969595E-07   4.7741176E-05
     12     -111.4263921535  -5.8883671E-08   2.2149362E-05
     13     -111.4263921623  -8.8068788E-09   8.4992737E-06
------------------------------------------------------------

 total:                                   0.258 sec
Calculation for fragment 2
 ------------------------------
   
charge of fragment :   0.
unpaired e- of fragment :  0
------------------------------------------------------------
  cycle        total energy    energy error   density error
------------------------------------------------------------
      1     -110.7830895164  -1.1245141E+02   1.3858644E-01
      2     -111.1057512374  -3.2266172E-01   6.3621222E-02
      3     -111.0963335229   9.4177145E-03   3.5207938E-02
      4     -111.1248741879  -2.8540665E-02   1.7299010E-02
      5     -111.1499218264  -2.5047638E-02   5.8837499E-03
      6     -111.1520477935  -2.1259671E-03   2.4099009E-03
      7     -111.1523166979  -2.6890440E-04   9.7645661E-04
      8     -111.1523438600  -2.7162046E-05   3.9855193E-04
      9     -111.1523455099  -1.6499181E-06   1.7723936E-04
     10     -111.1523465817  -1.0717907E-06   6.4249935E-05
     11     -111.1523467478  -1.6611452E-07   3.4648976E-05
     12     -111.1523467805  -3.2707561E-08   1.6651104E-05
------------------------------------------------------------

 total:                                   0.252 sec
   
   ::::::::::::::::::::::::::::::::::::::::::::::
   ::     D I P R O      C O U P L I N G S     ::
   ::::::::::::::::::::::::::::::::::::::::::::::
   
energy threshhold for near-degenerate orbitals near HOMO and LUMO considered for DIPRO:  0.300 eV
no. of orbitals within energy window of frag 1         2
no. of orbitals within energy window of frag 2         4
   
  Fragment 1 HOMO   Fragment 2 SOMO-2
--------------------------------------
E_mon(orb) frag1 frag2              -4.195    -5.144 eV
J(AB):               -0.012 eV
S(AB):             0.00064760 Eh
|J(AB,eff)|:            0.009 eV
   
  Fragment 1 HOMO   Fragment 2 SOMO-1
--------------------------------------
E_mon(orb) frag1 frag2              -4.195    -4.936 eV
J(AB):               -0.006 eV
S(AB):             0.00033730 Eh
|J(AB,eff)|:            0.005 eV
   
  Fragment 1 HOMO   Fragment 2 SOMO 
--------------------------------------
E_mon(orb) frag1 frag2              -4.195    -4.820 eV
J(AB):               -0.001 eV
S(AB):             0.00002836 Eh
|J(AB,eff)|:            0.000 eV
   
  Fragment 1 HOMO   Fragment 2 LUMO 
--------------------------------------
E_mon(orb) frag1 frag2              -4.195    -3.891 eV
J(AB):               -0.006 eV
S(AB):             0.00030584 Eh
|J(AB,eff)|:            0.004 eV
   
  Fragment 1 LUMO   Fragment 2 SOMO-2
--------------------------------------
E_mon(orb) frag1 frag2              -2.781    -5.144 eV
J(AB):                0.000 eV
S(AB):            -0.00002295 Eh
|J(AB,eff)|:            0.000 eV
   
  Fragment 1 LUMO   Fragment 2 SOMO-1
--------------------------------------
E_mon(orb) frag1 frag2              -2.781    -4.936 eV
J(AB):               -0.000 eV
S(AB):            -0.00002222 Eh
|J(AB,eff)|:            0.000 eV
   
  Fragment 1 LUMO   Fragment 2 SOMO 
--------------------------------------
E_mon(orb) frag1 frag2              -2.781    -4.820 eV
J(AB):               -0.000 eV
S(AB):            -0.00000128 Eh
|J(AB,eff)|:            0.000 eV
   
  Fragment 1 LUMO   Fragment 2 LUMO 
--------------------------------------
E_mon(orb) frag1 frag2              -2.781    -3.891 eV
J(AB):               -0.001 eV
S(AB):             0.00006119 Eh
|J(AB,eff)|:            0.001 eV
   
..............................................................................
:  total |J(AB,eff)| for hole transport (occ. MOs) :               0.010 eV  :
:  total |J(AB,eff)| for charge transport (unocc. MOs) :           0.001 eV  :
:  total |J(AB,eff)| for charge transfer (CT) :                    0.004 eV  :
..............................................................................
  
 Please remember, DIPRO is not available for restart!
   
normal termination of dipro
----------------------------------------------------------
 * finished run on 2025/03/13 at 10:35:32.601     
----------------------------------------------------------
 dipro:
 * wall-time:     0 d,  0 h,  0 min,  1.611 sec
 *  cpu-time:     0 d,  0 h,  0 min,  5.105 sec
 * ratio c/w:     3.170 speedup
Reorganization energy (electron): 0.18484966158282465 eV
Reorganization energy (hole): 0.18530780433271327 eV
Electron Transfer integral J: 0.001 eV
Hole Transfer integral J: 0.01 eV
