156
 energy: -222.780638092263 gnorm: 0.111639173575 xtb: 6.7.1 (edcfbbe)
C           -1.60660000000000        1.98300000000000       -0.05060000000000
C           -1.73100000000000        0.62900000000000        0.24540000000000
C           -0.87970000000000        0.06610000000000        1.25250000000000
C            0.22470000000000        0.83540000000000        1.68820000000000
C            0.32370000000000        2.17610000000000        1.32010000000000
C           -0.60670000000000        2.78330000000000        0.50150000000000
C           -1.06560000000000       -1.27100000000000        1.77730000000000
C            0.05000000000000       -1.92990000000000        2.36940000000000
C            1.20590000000000       -1.19850000000000        2.74680000000000
C            1.28000000000000        0.23800000000000        2.50350000000000
C           -2.33510000000000       -1.97200000000000        1.77180000000000
C           -2.34820000000000       -3.38700000000000        1.81820000000000
C           -1.14890000000000       -4.11750000000000        2.22730000000000
C            0.01370000000000       -3.32590000000000        2.62520000000000
C            1.09460000000000       -3.93260000000000        3.24990000000000
C            2.21540000000000       -3.21490000000000        3.65410000000000
C            2.25030000000000       -1.85280000000000        3.38160000000000
C           -3.59760000000000       -1.29450000000000        1.85380000000000
C           -4.75200000000000       -2.02280000000000        1.57990000000000
C           -4.74270000000000       -3.40690000000000        1.40010000000000
C           -3.54100000000000       -4.07150000000000        1.57160000000000
O           -3.60790000000000        0.03720000000000        2.29470000000000
O           -2.60290000000000       -0.21650000000000       -0.45550000000000
O            2.20410000000000        0.91840000000000        2.94880000000000
O           -1.14550000000000       -5.34620000000000        2.29950000000000
C           -4.89090000000000        0.60280000000000        2.44560000000000
C           -3.56370000000000        0.43760000000000       -1.25460000000000
C           -6.04010000000000       -4.13920000000000        1.00860000000000
C           -5.89970000000000       -5.66850000000000        1.15520000000000
C           -7.21670000000000       -3.68060000000000        1.89660000000000
C           -6.36020000000000       -3.81350000000000       -0.46190000000000
C           -0.48130000000000        4.28460000000000        0.18870000000000
C           -0.46510000000000        5.08190000000000        1.50900000000000
C            0.82670000000000        4.53920000000000       -0.58350000000000
C           -1.66110000000000        4.79320000000000       -0.66480000000000
C            3.42060000000000       -3.89860000000000        4.32100000000000
C            3.98280000000000       -3.00640000000000        5.44640000000000
C            4.51320000000000       -4.13400000000000        3.26410000000000
C            3.02300000000000       -5.25300000000000        4.94130000000000
H            3.85050000000000       -5.68010000000000        5.51150000000000
H            2.74890000000000       -5.97850000000000        4.17400000000000
H            2.17680000000000       -5.13570000000000        5.61850000000000
H            4.74740000000000       -3.53230000000000        6.02190000000000
H            3.18810000000000       -2.71180000000000        6.13110000000000
H            4.43970000000000       -2.09770000000000        5.05290000000000
H            5.38860000000000       -4.61690000000000        3.70400000000000
H            4.83570000000000       -3.19040000000000        2.82000000000000
H            4.14300000000000       -4.77230000000000        2.45940000000000
H           -7.27340000000000       -4.31640000000000       -0.78830000000000
H           -5.54600000000000       -4.13390000000000       -1.11480000000000
H           -6.49790000000000       -2.74010000000000       -0.60370000000000
H           -8.12450000000000       -4.23980000000000        1.65830000000000
H           -7.44280000000000       -2.62310000000000        1.75340000000000
H           -6.99960000000000       -3.83720000000000        2.95430000000000
H           -6.83730000000000       -6.17110000000000        0.90690000000000
H           -5.63850000000000       -5.94570000000000        2.17830000000000
H           -5.13380000000000       -6.06250000000000        0.48480000000000
H           -4.78870000000000        1.61820000000000        2.82870000000000
H           -5.48030000000000        0.02170000000000        3.15540000000000
H           -5.39770000000000        0.64580000000000        1.48200000000000
H           -4.27270000000000       -0.30110000000000       -1.62810000000000
H           -3.08420000000000        0.92130000000000       -2.10560000000000
H           -4.10850000000000        1.17080000000000       -0.66030000000000
H           -1.57870000000000        5.86810000000000       -0.84240000000000
H           -2.61450000000000        4.61400000000000       -0.16360000000000
H           -1.68490000000000        4.30320000000000       -1.64020000000000
H            1.69770000000000        4.24360000000000        0.00390000000000
H            0.93670000000000        5.59710000000000       -0.83270000000000
H            0.84310000000000        3.97000000000000       -1.51510000000000
H           -0.41710000000000        6.15660000000000        1.31890000000000
H            0.39610000000000        4.81790000000000        2.12460000000000
H           -1.36650000000000        4.88320000000000        2.09230000000000
H            1.03810000000000       -4.99160000000000        3.42340000000000
H            3.11010000000000       -1.27020000000000        3.65850000000000
H            1.16590000000000        2.74030000000000        1.67760000000000
H           -2.28080000000000        2.41800000000000       -0.76240000000000
H           -5.68950000000000       -1.50420000000000        1.51570000000000
H           -3.50190000000000       -5.14470000000000        1.52880000000000
C            0.43750000000000        1.26910000000000        5.85080000000000
C            0.18340000000000       -0.06830000000000        6.17210000000000
C            0.95310000000000       -0.68320000000000        7.21880000000000
C            2.03760000000000        0.05430000000000        7.75360000000000
C            2.25120000000000        1.36830000000000        7.37550000000000
C            1.45640000000000        1.99880000000000        6.42980000000000
C            0.75830000000000       -2.04890000000000        7.64360000000000
C            1.87070000000000       -2.74740000000000        8.22580000000000
C            2.98370000000000       -2.03930000000000        8.72720000000000
C            3.01130000000000       -0.58000000000000        8.64670000000000
C           -0.44870000000000       -2.80010000000000        7.40410000000000
C           -0.37520000000000       -4.20880000000000        7.25350000000000
C            0.79680000000000       -4.94460000000000        7.72680000000000
C            1.90200000000000       -4.15970000000000        8.27290000000000
C            3.00920000000000       -4.80630000000000        8.79220000000000
C            4.10230000000000       -4.11380000000000        9.29130000000000
C            4.06280000000000       -2.72670000000000        9.25610000000000
C           -1.75340000000000       -2.19650000000000        7.35210000000000
C           -2.78240000000000       -2.92720000000000        6.74650000000000
C           -2.61320000000000       -4.23910000000000        6.33460000000000
C           -1.43710000000000       -4.89100000000000        6.68740000000000
O           -1.92770000000000       -0.95240000000000        7.93390000000000
O           -0.73790000000000       -0.81640000000000        5.46340000000000
O            3.84180000000000        0.07650000000000        9.25900000000000
O            0.83420000000000       -6.16630000000000        7.70530000000000
C           -3.22900000000000       -0.42610000000000        7.82400000000000
C           -1.58020000000000       -0.09070000000000        4.59890000000000
C           -3.71760000000000       -4.97630000000000        5.56900000000000
C           -3.10110000000000       -6.00120000000000        4.59410000000000
C           -4.63060000000000       -5.70120000000000        6.56860000000000
C           -4.55040000000000       -3.98000000000000        4.73920000000000
C            1.72720000000000        3.42940000000000        5.94350000000000
C            0.50990000000000        4.31510000000000        6.26050000000000
C            2.97050000000000        4.03520000000000        6.62060000000000
C            1.96370000000000        3.40210000000000        4.42210000000000
C            5.31970000000000       -4.89240000000000        9.80810000000000
C            6.40860000000000       -3.94970000000000       10.35440000000000
C            5.91690000000000       -5.71110000000000        8.64930000000000
C            4.88050000000000       -5.83740000000000       10.94130000000000
H            5.73140000000000       -6.38790000000000       11.34240000000000
H            4.15000000000000       -6.56480000000000       10.59020000000000
H            4.42730000000000       -5.27480000000000       11.75710000000000
H            7.25930000000000       -4.51780000000000       10.73070000000000
H            6.02590000000000       -3.34380000000000       11.17520000000000
H            6.77700000000000       -3.28340000000000        9.57500000000000
H            6.79400000000000       -6.26960000000000        8.97550000000000
H            6.21640000000000       -5.05650000000000        7.83160000000000
H            5.19320000000000       -6.42360000000000        8.25590000000000
H           -5.23630000000000       -4.51060000000000        4.08260000000000
H           -3.90400000000000       -3.36070000000000        4.11830000000000
H           -5.14680000000000       -3.32420000000000        5.37120000000000
H           -5.42990000000000       -6.23260000000000        6.05260000000000
H           -5.08550000000000       -4.99290000000000        7.26040000000000
H           -4.06490000000000       -6.42500000000000        7.15430000000000
H           -3.86660000000000       -6.44540000000000        3.95990000000000
H           -2.60650000000000       -6.81330000000000        5.12340000000000
H           -2.36630000000000       -5.52590000000000        3.94560000000000
H           -3.24800000000000        0.55860000000000        8.29180000000000
H           -3.94000000000000       -1.07500000000000        8.33670000000000
H           -3.50060000000000       -0.32000000000000        6.77350000000000
H           -2.31220000000000       -0.77850000000000        4.17310000000000
H           -0.99440000000000        0.33750000000000        3.78730000000000
H           -2.10260000000000        0.69280000000000        5.14780000000000
H            2.25670000000000        4.38190000000000        4.04740000000000
H            1.06360000000000        3.09650000000000        3.89290000000000
H            2.74180000000000        2.68400000000000        4.16260000000000
H            2.84230000000000        4.08780000000000        7.70130000000000
H            3.15310000000000        5.04730000000000        6.26020000000000
H            3.85920000000000        3.44270000000000        6.40540000000000
H            0.67570000000000        5.33900000000000        5.92650000000000
H            0.31650000000000        4.33500000000000        7.33250000000000
H           -0.38630000000000        3.94380000000000        5.76520000000000
H            3.01180000000000       -5.88080000000000        8.78110000000000
H            4.89110000000000       -2.14640000000000        9.61680000000000
H            3.08960000000000        1.87820000000000        7.81200000000000
H           -0.13980000000000        1.73420000000000        5.07630000000000
H           -3.73280000000000       -2.45470000000000        6.59690000000000
H           -1.32080000000000       -5.94520000000000        6.51640000000000
156
 energy: -222.797203847385 gnorm: 0.046385963498 xtb: 6.7.1 (edcfbbe)
C           -1.60345130340183        1.98119742493865       -0.05094838773514
C           -1.73311184044521        0.64132880971529        0.26478680977973
C           -0.89385551533671        0.06053126161917        1.25895434017003
C            0.21886252403515        0.82770074074948        1.68092426228423
C            0.33118297862622        2.16906504349124        1.30903895038939
C           -0.60167608335276        2.78456780505161        0.50104464998086
C           -1.07617119224986       -1.26540732476535        1.77252020380062
C            0.03223169140576       -1.92085352396963        2.36357514985759
C            1.19600006324087       -1.20250179685990        2.73356881164078
C            1.28238549674020        0.23292719921859        2.49498660071158
C           -2.33077490570336       -1.96122257205080        1.76540959584677
C           -2.34568924262084       -3.37348869163654        1.81330450738883
C           -1.14358299172708       -4.11305686458999        2.20637244700223
C            0.00419880925609       -3.31334542213101        2.62455468891018
C            1.08777506420641       -3.92667443646545        3.24732417571506
C            2.21548730874459       -3.21792129888421        3.64680625927831
C            2.24562865581684       -1.85664495169083        3.36873922444392
C           -3.59650435503391       -1.30652577982711        1.82300662511125
C           -4.74857159406725       -2.02762685007957        1.57167488761846
C           -4.73573196741035       -3.41495319522993        1.38570234092341
C           -3.53472067562729       -4.06955540866019        1.56987147713013
O           -3.61440338815847        0.02335940113140        2.23607940720203
O           -2.60925199329763       -0.19448530435485       -0.42093590589868
O            2.23654526329894        0.90621243209318        2.90324064571726
O           -1.13285645772949       -5.35072631966569        2.25234772063050
C           -4.88326846901429        0.59567077561735        2.42848682488108
C           -3.55991017445023        0.43590103292870       -1.24118967409503
C           -6.03327391925418       -4.13940816063690        1.00893597354434
C           -5.90194283457995       -5.66261620148181        1.15186346549473
C           -7.21114784535758       -3.68379161145659        1.88979935346250
C           -6.35766343725974       -3.81342499911592       -0.45794461488373
C           -0.48440933126703        4.27960433833621        0.18917593126988
C           -0.46590848865211        5.07683355610476        1.50397453725199
C            0.82057180684259        4.53736644548585       -0.58049682556585
C           -1.65610553700109        4.79395565451501       -0.66157509787688
C            3.41264837447895       -3.89719740810329        4.32023022386339
C            3.97792909490398       -3.00784186096364        5.43876779061135
C            4.50460552535254       -4.13074401266612        3.26321236712610
C            3.02441352803923       -5.24853753334031        4.93609297812523
H            3.85731836580511       -5.66087834048423        5.50616828135381
H            2.75602528923094       -5.97489084890118        4.17033449328795
H            2.18214986225660       -5.13071219934699        5.61253513195190
H            4.73631995497406       -3.54290562983837        6.01101758209637
H            3.18500890521024       -2.71564668719594        6.12117993461725
H            4.43776313396541       -2.10277489459116        5.04672153002455
H            5.37587139543839       -4.61233314968765        3.71026791760469
H            4.82495737133852       -3.18696993171488        2.82261486334645
H            4.13392788378819       -4.76988704096005        2.46168656549927
H           -7.27136576214280       -4.31735349373106       -0.77887656635989
H           -5.54207758747919       -4.13438945406868       -1.10443813471283
H           -6.49206390772844       -2.74120067162343       -0.59509115209954
H           -8.11372498999379       -4.24805905378747        1.64754934803830
H           -7.43640982150851       -2.62881457394759        1.74627551193012
H           -6.98675432461528       -3.83903146896641        2.94334815578104
H           -6.84577454588132       -6.15223935742062        0.90452838921345
H           -5.63744088082490       -5.93382122509152        2.17229272217110
H           -5.13857925658547       -6.05364051553892        0.48233751395731
H           -4.73920255626643        1.60532892472103        2.81840667912442
H           -5.47306380358193        0.02157634194842        3.15176407997159
H           -5.42644562528792        0.65782136549531        1.48000894298191
H           -4.24813318637178       -0.33137175276940       -1.60077108723178
H           -3.08779583250004        0.91479663413570       -2.10644403069839
H           -4.12420145496827        1.18149735704535       -0.67279354037978
H           -1.56287345276081        5.86799646060753       -0.83006549145459
H           -2.60593787310873        4.61411346417402       -0.15932089406316
H           -1.67671176243704        4.30727334570554       -1.63612032307431
H            1.68457336178061        4.23798628901555        0.00904563845763
H            0.92557908393353        5.59584059530147       -0.82570602721124
H            0.83386118346372        3.96692788492873       -1.50887195600306
H           -0.41776047266972        6.14954737375790        1.30723826815794
H            0.39218221289593        4.80731105077536        2.11486486117626
H           -1.36620799228173        4.87465482688251        2.08285667501737
H            1.02002636389114       -4.98859302914270        3.41900983687892
H            3.09817230052893       -1.26054341428766        3.65499918144545
H            1.17974846654794        2.72308509370200        1.67745119915668
H           -2.27931100741269        2.41619618500825       -0.76612730402800
H           -5.69340393162346       -1.51057721987686        1.52433722224381
H           -3.48118500265476       -5.14479808276357        1.54889236264132
C            0.44702943693718        1.26512038241365        5.85748324640901
C            0.19219105121346       -0.05748841516059        6.18977763826149
C            0.94892782276711       -0.68751215752458        7.22291735305300
C            2.03502040485122        0.04887458085104        7.75397681906815
C            2.26279113469162        1.36948141363763        7.37461116327411
C            1.47468681796481        2.00223132834694        6.43552621990128
C            0.75201892327775       -2.04656683478749        7.64151875079694
C            1.85315758758422       -2.73544532804840        8.21110594556225
C            2.97524796976001       -2.03140417303930        8.71415585428334
C            3.00887444229522       -0.57187602941096        8.65375381958067
C           -0.44410339791713       -2.79583152875194        7.40124075404652
C           -0.37620455013313       -4.20230049265773        7.25816891172464
C            0.79205743622828       -4.94817204166253        7.72382672102220
C            1.88654876347161       -4.15226448823551        8.27667326402841
C            3.00126246797441       -4.79904832941069        8.79259362008395
C            4.10161713723283       -4.10840604394326        9.28764410824012
C            4.05654996092485       -2.72027879578575        9.24814243191645
C           -1.74193519093738       -2.20998589492107        7.33066620995334
C           -2.77284634464298       -2.93241236698618        6.75171545649686
C           -2.60925484338859       -4.25166334443417        6.33409349344489
C           -1.44205054958999       -4.89645896819735        6.69484672392922
O           -1.92200447571111       -0.96823235036117        7.91041822125343
O           -0.73182849806699       -0.80003271595931        5.49425423960890
O            3.85418742550221        0.08935847618444        9.27086333117567
O            0.83080630955385       -6.18525820485346        7.70402053674482
C           -3.21695185571028       -0.43037694649254        7.82051468223902
C           -1.57571033961058       -0.09275409123092        4.61983890011588
C           -3.71496486584219       -4.97705331630859        5.57192362903429
C           -3.11299805227474       -6.00634898925487        4.60533169662418
C           -4.63078676427694       -5.69939326287497        6.57025053757566
C           -4.55010622004963       -3.98556171034953        4.74891604592060
C            1.73083011776530        3.43025552155853        5.95321183781962
C            0.51353988861724        4.31403538375026        6.26592974489313
C            2.96748240599182        4.04132098329274        6.62242199778359
C            1.96372047531445        3.41453512009413        4.43689786271884
C            5.31453035218123       -4.88515563166050        9.80662881459578
C            6.40693905109782       -3.95551847424423       10.35370416753677
C            5.91303068088936       -5.70740739206864        8.65392901428022
C            4.88135269005324       -5.83278703231035       10.93682040035117
H            5.73632853989340       -6.38218660846162       11.33435242422882
H            4.14992464605339       -6.55560130259233       10.58276778285098
H            4.42879220593995       -5.26701795589147       11.74978031582684
H            7.25178405869218       -4.53587618277127       10.72751578650761
H            6.02302058014534       -3.35046919417946       11.17296956275671
H            6.77443677557896       -3.29150597649682        9.57396486256773
H            6.79047347676574       -6.26519420984948        8.98503438591216
H            6.21167648952466       -5.04966122146889        7.83928381730420
H            5.18625169637939       -6.41574053202596        8.26232360464346
H           -5.22884202732415       -4.52361191977087        4.09054413020608
H           -3.90075403934713       -3.37000745102022        4.13120470496676
H           -5.15168556904572       -3.33318566058010        5.38046736592709
H           -5.42911696455755       -6.23017142980857        6.04974395622486
H           -5.08302273789714       -4.98863197659627        7.26155263868752
H           -4.06011390269204       -6.42071094261274        7.15260795090084
H           -3.88733821790855       -6.44280835997730        3.97522942696228
H           -2.62210835938566       -6.81728934532766        5.13627328825455
H           -2.37727467332297       -5.53971987583241        3.95809362404239
H           -3.20448881247505        0.55049386865862        8.29967798187037
H           -3.94260488085727       -1.06866478902382        8.33803196917075
H           -3.51639941010004       -0.30997786029513        6.77546867262000
H           -2.29128469765815       -0.80486285041829        4.21232621828804
H           -1.01345259950450        0.34055876151240        3.79185595196317
H           -2.11318239834453        0.70034420722547        5.14965541890551
H            2.25634305683688        4.39944428389195        4.06942607493755
H            1.06400269196494        3.10619968092991        3.91193404020612
H            2.73826173441017        2.69656079906785        4.18016395745275
H            2.84002698968015        4.09148509752127        7.70234271093317
H            3.13916543671136        5.05272167234813        6.25185265342449
H            3.85072154784722        3.44594491987450        6.40112946485343
H            0.68180057777947        5.33730389064011        5.92710463606493
H            0.32135025629603        4.33155211204309        7.33790009477163
H           -0.37761208338095        3.93666304162477        5.76823321875508
H            2.99754453621091       -5.87896985410610        8.77769127034156
H            4.87919316279036       -2.12921115357913        9.61633557249503
H            3.10411135406118        1.86952118094463        7.82331552927418
H           -0.13528723870616        1.73048027962364        5.08099404912495
H           -3.72884656450080       -2.45898868184018        6.60803379254954
H           -1.31649218889751       -5.95301785042186        6.52901382595969
156
 energy: -222.803997903213 gnorm: 0.016323975420 xtb: 6.7.1 (edcfbbe)
C           -1.60294390612204        1.98686163552594       -0.04693038494789
C           -1.73587400091184        0.65750707416134        0.28151832099657
C           -0.90341286419572        0.06029450914510        1.26432497275499
C            0.21714685605510        0.82411493585247        1.67245275384415
C            0.33737884391807        2.16659057651856        1.30197581499370
C           -0.59584192934653        2.79051103825207        0.50281343536306
C           -1.08563609535361       -1.25941981583992        1.76526832565484
C            0.01791419255359       -1.91351042212610        2.35507668190032
C            1.18739273840267       -1.20456385980192        2.72048424212015
C            1.29889478766499        0.22563953467977        2.46366360538298
C           -2.32794843108090       -1.95605534342986        1.74978708812201
C           -2.34470937314872       -3.36570197807492        1.80437464154983
C           -1.14105549089089       -4.10998158115646        2.18557229193041
C           -0.00482347158445       -3.30421259229038        2.61875637424538
C            1.07803498435387       -3.92116973520334        3.24298613639826
C            2.20874816073997       -3.21874732457396        3.64373130575084
C            2.23535760154070       -1.85814956186542        3.36205762307704
C           -3.59805903812692       -1.31944561618425        1.78870876032135
C           -4.74775127914559       -2.03573797589618        1.55769571521328
C           -4.73311686287917       -3.42811400549206        1.37733894063410
C           -3.53160189088377       -4.07240784796671        1.57054047841393
O           -3.61851180962330        0.01283790626896        2.16703935182039
O           -2.61904712564413       -0.17138485983681       -0.38556469843720
O            2.27355352987485        0.89316086428641        2.84127411749821
O           -1.11738756603979       -5.35272096579560        2.18688018686280
C           -4.86943865990463        0.59379744301109        2.40689961431625
C           -3.56136433797867        0.42739343902792       -1.22732622514137
C           -6.02802106023752       -4.14288144075955        1.00542039418298
C           -5.90152306199841       -5.66154382814430        1.14679430718884
C           -7.20261372193258       -3.68646334648361        1.88559719921539
C           -6.35186635978892       -3.81254719465443       -0.45970137920336
C           -0.48301233943950        4.27768188806245        0.18910549471498
C           -0.46594394676136        5.07059847344888        1.50299320805010
C            0.82026059835915        4.53531047965385       -0.57925211727234
C           -1.65148622180757        4.79407595796370       -0.65826988297659
C            3.40229681012940       -3.89424215705585        4.31408920337744
C            3.96834558531147       -3.00786228042929        5.42961617981653
C            4.49459791731310       -4.12531567662750        3.25643761387606
C            3.02269529962077       -5.24322378465217        4.92930785188159
H            3.86208673187256       -5.64255410804289        5.49781211032140
H            2.76090668750075       -5.97136610356388        4.16496489754220
H            2.18305522019909       -5.13042057651311        5.60730583892284
H            4.72223144872850       -3.55117727470947        5.99852403463532
H            3.17815859315819       -2.71514322431249        6.11237017714803
H            4.43256661943737       -2.10675892792893        5.03795152330693
H            5.36271553293288       -4.60526477079529        3.70969298709501
H            4.81170375653989       -3.18072781111481        2.81896849052517
H            4.12347199763576       -4.76566803738671        2.45785303004741
H           -7.26670645801464       -4.31552323091527       -0.77590751666262
H           -5.53618996145664       -4.13432334685599       -1.10291166268807
H           -6.48377165422346       -2.74064749781261       -0.59072245437444
H           -8.09891611779969       -4.25677013666118        1.63902960358786
H           -7.43129267445015       -2.63425925444741        1.73910037008995
H           -6.97452910750518       -3.84038520618442        2.93696888665488
H           -6.85031630422003       -6.14006218501946        0.90067214561105
H           -5.63608416703261       -5.92963037882716        2.16581096438335
H           -5.14053426171730       -6.05147976299235        0.47726635100412
H           -4.67923313627932        1.59542489627049        2.80178090463706
H           -5.45182899758878        0.02709633848862        3.14727168456091
H           -5.45990351705271        0.67834649122236        1.48145809118092
H           -4.22635648910317       -0.37046856304423       -1.56749106044150
H           -3.09517729623885        0.89515252920641       -2.10716671396095
H           -4.14817908995915        1.18726621317016       -0.69283382589609
H           -1.54813236560973        5.86773841874655       -0.81677492313346
H           -2.60039157370914        4.61554783312819       -0.15696494984062
H           -1.67040590833858        4.31399544354578       -1.63452150797145
H            1.67871549670346        4.23201366491263        0.01228672700977
H            0.92083196095866        5.59416376537006       -0.82039498895267
H            0.82923656438010        3.96511791245683       -1.50632587788504