274
 energy: -391.729719081531 gnorm: 0.158915472397 xtb: 6.7.1 (edcfbbe)
C           -2.48640000000000       -2.66110000000000        1.13730000000000
C           -2.79040000000000       -1.38170000000000        0.67740000000000
C           -3.90230000000000       -1.18620000000000       -0.21470000000000
C           -4.56100000000000       -2.36720000000000       -0.67320000000000
C           -4.16910000000000       -3.63230000000000       -0.18750000000000
C           -3.17470000000000       -3.79720000000000        0.74540000000000
C           -4.53850000000000        0.07590000000000       -0.51040000000000
C           -5.79490000000000        0.02290000000000       -1.13880000000000
C           -6.26870000000000       -1.19570000000000       -1.69320000000000
N           -5.64090000000000       -2.36700000000000       -1.49110000000000
C           -4.14400000000000        1.39270000000000       -0.08940000000000
C           -5.13450000000000        2.40700000000000        0.04150000000000
N           -6.35890000000000        2.31200000000000       -0.51710000000000
C           -6.63490000000000        1.17420000000000       -1.18400000000000
C           -7.86010000000000        1.08660000000000       -1.86110000000000
C           -8.29180000000000       -0.07400000000000       -2.47820000000000
C           -7.49290000000000       -1.20070000000000       -2.37980000000000
C           -2.78740000000000        1.79350000000000        0.11850000000000
C           -2.52470000000000        2.95020000000000        0.85250000000000
C           -3.52520000000000        3.86180000000000        1.16670000000000
C           -4.79730000000000        3.60410000000000        0.70430000000000
O           -1.96930000000000       -0.41020000000000        1.21760000000000
O           -1.76330000000000        1.11570000000000       -0.51270000000000
B           -0.97520000000000        0.29890000000000        0.39890000000000
C            0.54680000000000       -2.80060000000000       -0.42850000000000
C            0.81390000000000       -1.53070000000000        0.08560000000000
C            1.97440000000000       -1.32610000000000        0.91710000000000
C            2.67630000000000       -2.50760000000000        1.31500000000000
C            2.31510000000000       -3.76360000000000        0.78310000000000
C            1.30780000000000       -3.92160000000000       -0.13510000000000
C            2.64500000000000       -0.06410000000000        1.15180000000000
C            3.94890000000000       -0.12870000000000        1.67890000000000
C            4.44210000000000       -1.34230000000000        2.22780000000000
N            3.79350000000000       -2.50990000000000        2.08190000000000
C            2.27120000000000        1.24290000000000        0.67570000000000
C            3.29530000000000        2.18690000000000        0.37100000000000
N            4.54660000000000        2.09120000000000        0.86800000000000
C            4.82570000000000        0.99510000000000        1.60120000000000
C            6.09810000000000        0.89800000000000        2.18740000000000
C            6.55030000000000       -0.25340000000000        2.81090000000000
C            5.71580000000000       -1.35760000000000        2.81580000000000
C            0.92310000000000        1.68650000000000        0.50040000000000
C            0.66960000000000        2.76780000000000       -0.34260000000000
C            1.68790000000000        3.55910000000000       -0.85850000000000
C            2.97410000000000        3.29820000000000       -0.43760000000000
O           -0.09950000000000        1.10930000000000        1.22280000000000
O           -0.08620000000000       -0.58610000000000       -0.37060000000000
C           -2.97310000000000       -5.13730000000000        1.46810000000000
C           -1.63780000000000       -5.14880000000000        2.23940000000000
C           -2.98240000000000       -6.31170000000000        0.47310000000000
C           -4.12610000000000       -5.32020000000000        2.47030000000000
C           -3.20750000000000        5.18910000000000        1.86310000000000
C           -4.24340000000000        5.45070000000000        2.97160000000000
C           -1.80150000000000        5.16450000000000        2.49230000000000
C           -3.26170000000000        6.32550000000000        0.82880000000000
C           -9.65810000000000       -0.09270000000000       -3.17830000000000
C           -9.91580000000000       -1.43460000000000       -3.88970000000000
C           -9.71100000000000        1.02980000000000       -4.23170000000000
C          -10.76200000000000        0.12730000000000       -2.12850000000000
C            1.18320000000000       -5.22920000000000       -0.93440000000000
C           -0.03760000000000       -5.19430000000000       -1.87320000000000
C            1.05950000000000       -6.43960000000000        0.00810000000000
C            2.44880000000000       -5.39320000000000       -1.79670000000000
C            1.39190000000000        4.73930000000000       -1.79450000000000
C            2.34850000000000        4.69270000000000       -3.00020000000000
C            1.58510000000000        6.05920000000000       -1.03170000000000
C           -0.05460000000000        4.68550000000000       -2.32570000000000
C            7.99780000000000       -0.37260000000000        3.31180000000000
C            8.55350000000000        1.00210000000000        3.73130000000000
C            8.07610000000000       -1.31730000000000        4.52710000000000
C            8.86590000000000       -0.93870000000000        2.17620000000000
H          -11.74880000000000        0.10950000000000       -2.59000000000000
H          -10.64400000000000        1.08720000000000       -1.62740000000000
H          -10.73030000000000       -0.65210000000000       -1.36770000000000
H          -10.87200000000000       -1.41750000000000       -4.41210000000000
H           -9.94710000000000       -2.25840000000000       -3.17750000000000
H           -9.13970000000000       -1.64180000000000       -4.62580000000000
H          -10.66050000000000        1.01820000000000       -4.76590000000000
H           -8.91130000000000        0.90930000000000       -4.96180000000000
H           -9.60120000000000        2.01150000000000       -3.77370000000000
H           -4.00440000000000       -6.23770000000000        3.04530000000000
H           -5.08480000000000       -5.36710000000000        1.95510000000000
H           -4.16510000000000       -4.48310000000000        3.16570000000000
H           -1.42410000000000       -6.13930000000000        2.64020000000000
H           -1.66300000000000       -4.45680000000000        3.07890000000000
H           -0.81300000000000       -4.85360000000000        1.59370000000000
H           -2.81390000000000       -7.25610000000000        0.98990000000000
H           -2.20300000000000       -6.20100000000000       -0.27600000000000
H           -3.93680000000000       -6.38940000000000       -0.04510000000000
H           -0.17560000000000       -6.15420000000000       -2.36980000000000
H            0.08750000000000       -4.43840000000000       -2.64800000000000
H           -0.94820000000000       -4.96310000000000       -1.32490000000000
H            2.39220000000000       -6.29380000000000       -2.40740000000000
H            3.34090000000000       -5.46340000000000       -1.17570000000000
H            2.57310000000000       -4.54010000000000       -2.46310000000000
H            1.02490000000000       -7.36850000000000       -0.56070000000000
H            0.15200000000000       -6.38700000000000        0.60370000000000
H            1.90630000000000       -6.50260000000000        0.68980000000000
H           -3.97820000000000        6.33000000000000        3.55760000000000
H           -4.30550000000000        4.59740000000000        3.64370000000000
H           -5.23660000000000        5.61760000000000        2.55770000000000
H            1.40660000000000        6.91520000000000       -1.68180000000000
H            2.59830000000000        6.14100000000000       -0.64040000000000
H            0.88990000000000        6.12430000000000       -0.19540000000000
H           -1.61110000000000        6.08560000000000        3.04010000000000
H           -1.02770000000000        5.07800000000000        1.73050000000000
H           -1.69670000000000        4.32910000000000        3.18300000000000
H           -3.03770000000000        7.28580000000000        1.29270000000000
H           -4.24890000000000        6.39320000000000        0.37340000000000
H           -2.53720000000000        6.15680000000000        0.03270000000000
H            2.12420000000000        5.49180000000000       -3.70620000000000
H            2.25730000000000        3.74250000000000       -3.52560000000000
H            3.38610000000000        4.80810000000000       -2.69100000000000
H           -0.23170000000000        5.48200000000000       -3.04790000000000
H           -0.77740000000000        4.81140000000000       -1.52040000000000
H           -0.25320000000000        3.73540000000000       -2.82090000000000
H            8.83720000000000       -0.28450000000000        1.30530000000000
H            8.50800000000000       -1.92040000000000        1.86740000000000
H            9.90410000000000       -1.03990000000000        2.49090000000000
H            7.36090000000000       -1.01860000000000        5.28890000000000
H            9.07030000000000       -1.30030000000000        4.97280000000000
H            7.86170000000000       -2.34830000000000        4.25070000000000
H            7.88390000000000        1.48880000000000        4.43620000000000
H            8.67990000000000        1.66120000000000        2.87390000000000
H            9.52740000000000        0.89950000000000        4.20910000000000
H            6.74210000000000        1.75250000000000        2.10110000000000
H            6.05890000000000       -2.29110000000000        3.22000000000000
H            2.94350000000000       -4.60040000000000        1.02610000000000
H            3.77440000000000        3.95060000000000       -0.73290000000000
H           -5.57190000000000        4.33760000000000        0.82890000000000
H           -4.74810000000000       -4.47900000000000       -0.50600000000000
H           -8.48290000000000        1.96170000000000       -1.87310000000000
H           -7.81650000000000       -2.13500000000000       -2.79750000000000
H           -0.28190000000000       -2.87220000000000       -1.10750000000000
H           -1.69900000000000       -2.72520000000000        1.86430000000000
H           -1.50900000000000        3.13810000000000        1.13890000000000
H           -0.35280000000000        2.98160000000000       -0.58030000000000
C           -0.43150000000000       -2.33460000000000        6.41540000000000
C           -0.66810000000000       -1.13230000000000        5.74700000000000
C           -1.82520000000000       -1.00260000000000        4.89590000000000
C           -2.56320000000000       -2.20430000000000        4.65490000000000
C           -2.23430000000000       -3.39210000000000        5.34180000000000
C           -1.22500000000000       -3.46180000000000        6.26840000000000
C           -2.45870000000000        0.23760000000000        4.49800000000000
C           -3.76760000000000        0.14430000000000        3.98720000000000
C           -4.30110000000000       -1.11550000000000        3.60570000000000
N           -3.68580000000000       -2.27300000000000        3.89930000000000
C           -2.04040000000000        1.58430000000000        4.79110000000000
C           -3.03180000000000        2.59420000000000        4.96450000000000
N           -4.28920000000000        2.47180000000000        4.48910000000000
C           -4.60890000000000        1.29520000000000        3.91480000000000
C           -5.88850000000000        1.15980000000000        3.35210000000000
C           -6.37980000000000       -0.04990000000000        2.88930000000000
C           -5.57870000000000       -1.16980000000000        3.02890000000000
C           -0.67780000000000        2.00280000000000        4.90490000000000
C           -0.38590000000000        3.18130000000000        5.59050000000000
C           -1.37500000000000        4.06940000000000        5.99260000000000
C           -2.67080000000000        3.79540000000000        5.61170000000000
O            0.25320000000000       -0.15860000000000        6.08510000000000
O            0.32400000000000        1.29710000000000        4.27310000000000
B            1.17300000000000        0.58240000000000        5.20700000000000
C            2.61500000000000       -2.49270000000000        4.87770000000000
C            2.94630000000000       -1.17110000000000        5.16810000000000
C            4.06200000000000       -0.88580000000000        6.03140000000000
C            4.69090000000000       -2.01120000000000        6.64580000000000
C            4.27160000000000       -3.32000000000000        6.32710000000000
C            3.27710000000000       -3.58300000000000        5.41710000000000
C            4.73030000000000        0.38800000000000        6.15920000000000
C            5.98240000000000        0.38870000000000        6.79800000000000
C            6.42200000000000       -0.75550000000000        7.51470000000000
N            5.76730000000000       -1.92840000000000        7.46410000000000
C            4.37290000000000        1.64510000000000        5.56100000000000
C            5.39020000000000        2.60700000000000        5.30190000000000
N            6.60800000000000        2.55910000000000        5.88050000000000
C            6.85100000000000        1.51540000000000        6.69730000000000
C            8.06870000000000        1.49340000000000        7.39410000000000
C            8.46690000000000        0.41400000000000        8.16380000000000
C            7.64030000000000       -0.69510000000000        8.20810000000000
C            3.02850000000000        2.04780000000000        5.28790000000000
C            2.80060000000000        3.09660000000000        4.39690000000000
C            3.82640000000000        3.93110000000000        3.97010000000000
C            5.08820000000000        3.70930000000000        4.47740000000000
O            1.98490000000000        1.49220000000000        6.00140000000000
O            2.14660000000000       -0.26290000000000        4.50040000000000
C           -1.13390000000000       -4.66050000000000        7.22710000000000
C            0.09520000000000       -4.54450000000000        8.14820000000000
C           -1.05500000000000       -5.98460000000000        6.44630000000000
C           -2.39700000000000       -4.67350000000000        8.10850000000000
C           -1.03410000000000        5.35790000000000        6.75430000000000
C           -1.99940000000000        5.52680000000000        7.94210000000000
C            0.40510000000000        5.31880000000000        7.30670000000000
C           -1.16380000000000        6.56120000000000        5.80760000000000
C           -7.83320000000000       -0.19110000000000        2.41150000000000
C           -7.94600000000000       -1.28570000000000        1.33230000000000
C           -8.35100000000000        1.13170000000000        1.81460000000000
C           -8.71140000000000       -0.57610000000000        3.61330000000000
C            3.04870000000000       -5.00030000000000        4.87130000000000
C            1.71570000000000       -5.08240000000000        4.10070000000000
C            3.03000000000000       -6.03720000000000        6.00900000000000
C            4.19970000000000       -5.33460000000000        3.90660000000000
C            3.54730000000000        5.15610000000000        3.09320000000000
C            4.59720000000000        5.23640000000000        1.96990000000000
C            3.62280000000000        6.42350000000000        3.96040000000000
C            2.14560000000000        5.07810000000000        2.45900000000000
C            9.80650000000000        0.39250000000000        8.91400000000000
C           10.56550000000000        1.72520000000000        8.76550000000000
C            9.54750000000000        0.14630000000000       10.41150000000000
C           10.68640000000000       -0.73510000000000        8.34490000000000
H           -9.75310000000000       -0.69120000000000        3.31530000000000
H           -8.66240000000000        0.18820000000000        4.38810000000000
H           -8.37810000000000       -1.51660000000000        4.05080000000000
H           -8.94180000000000       -1.29890000000000        0.89020000000000
H           -7.76020000000000       -2.27720000000000        1.74200000000000
H           -7.22700000000000       -1.11180000000000        0.53620000000000
H           -9.32960000000000        0.99560000000000        1.35510000000000
H           -7.67090000000000        1.50160000000000        1.05130000000000
H           -8.45460000000000        1.90120000000000        2.57810000000000
H           -2.36310000000000       -5.49010000000000        8.82900000000000
H           -3.29580000000000       -4.79460000000000        7.50520000000000
H           -2.48990000000000       -3.73890000000000        8.66100000000000
H            0.20850000000000       -5.43760000000000        8.76200000000000
H           -0.00030000000000       -3.69280000000000        8.82110000000000
H            1.00730000000000       -4.41250000000000        7.57030000000000
H           -1.04610000000000       -6.83370000000000        7.12930000000000
H           -0.15010000000000       -6.03810000000000        5.84680000000000
H           -1.90790000000000       -6.10640000000000        5.78030000000000
H            1.48110000000000       -6.11130000000000        3.82920000000000
H            1.75780000000000       -4.50380000000000        3.18010000000000
H            0.89620000000000       -4.68930000000000        4.69930000000000
H            4.06020000000000       -6.31580000000000        3.45400000000000
H            5.15640000000000       -5.33430000000000        4.42770000000000
H            4.25740000000000       -4.59550000000000        3.10880000000000
H            2.83660000000000       -7.03570000000000        5.61750000000000
H            2.25460000000000       -5.81170000000000        6.73640000000000
H            3.98300000000000       -6.07190000000000        6.53420000000000
H           -1.74240000000000        6.40750000000000        8.53000000000000
H           -1.95570000000000        4.65820000000000        8.59840000000000
H           -3.02860000000000        5.64400000000000        7.60670000000000
H            3.42680000000000        7.31510000000000        3.36530000000000
H            4.60800000000000        6.52990000000000        4.41280000000000
H            2.88820000000000        6.38480000000000        4.76410000000000
H            0.61080000000000        6.19980000000000        7.91400000000000
H            1.13860000000000        5.30180000000000        6.50150000000000
H            0.55930000000000        4.43910000000000        7.93100000000000
H           -0.94790000000000        7.49310000000000        6.32940000000000
H           -2.17110000000000        6.63100000000000        5.39930000000000
H           -0.46420000000000        6.47320000000000        4.97710000000000
H            4.35940000000000        6.03350000000000        1.26650000000000
H            4.64080000000000        4.29790000000000        1.42140000000000
H            5.59180000000000        5.43310000000000        2.36710000000000
H            1.98320000000000        5.91670000000000        1.78450000000000
H            1.36450000000000        5.11900000000000        3.21720000000000
H            2.02350000000000        4.15640000000000        1.89220000000000
H           10.86230000000000       -0.58510000000000        7.28000000000000
H           10.21400000000000       -1.70810000000000        8.47190000000000
H           11.65340000000000       -0.76580000000000        8.84620000000000
H            8.90490000000000        0.92410000000000       10.82290000000000
H           10.48080000000000        0.14710000000000       10.97390000000000
H            9.05980000000000       -0.81310000000000       10.57740000000000
H            9.97630000000000        2.55650000000000        9.15150000000000
H           10.80680000000000        1.92590000000000        7.72210000000000
H           11.50330000000000        1.69960000000000        9.31980000000000
H            8.70170000000000        2.35500000000000        7.29720000000000
H            7.94510000000000       -1.56800000000000        8.75490000000000
H            4.82970000000000       -4.13080000000000        6.75710000000000
H            5.88210000000000        4.39950000000000        4.26100000000000
H           -3.44820000000000        4.50820000000000        5.81410000000000
H           -2.88930000000000       -4.23360000000000        5.21140000000000
H           -6.50660000000000        2.03710000000000        3.32720000000000
H           -5.95160000000000       -2.13810000000000        2.75310000000000
H            1.82810000000000       -2.63380000000000        4.16110000000000
H            0.39740000000000       -2.34240000000000        7.09790000000000
H            0.64370000000000        3.39210000000000        5.79770000000000
H            1.79220000000000        3.26700000000000        4.07550000000000
274
 energy: -391.756906308894 gnorm: 0.072910287886 xtb: 6.7.1 (edcfbbe)
C           -2.48900220610131       -2.65908831007984        1.14688587148793
C           -2.77017496300914       -1.37799281043796        0.67841634173590
C           -3.88613279863596       -1.17242278847993       -0.19416122211813
C           -4.55555464198223       -2.35818854803641       -0.65808774514936
C           -4.17633058520250       -3.63440293647851       -0.18291082312089
C           -3.19502464356203       -3.79915438545171        0.76624175540949
C           -4.52383445321279        0.07968118710549       -0.50486594711630
C           -5.78249548544087        0.02480979615903       -1.13615642506407
C           -6.26283954570537       -1.19532884957623       -1.68270170928237
N           -5.62957451266768       -2.35314083503359       -1.46991596470565
C           -4.11923891940326        1.39233601732544       -0.10304737928387
C           -5.12205850563072        2.40454018689119        0.03600963604555
N           -6.33878554549043        2.29878280952800       -0.51827948830948
C           -6.62437882129189        1.17241577948492       -1.18844501821582
C           -7.85817521596428        1.08798022871596       -1.86117988251299
C           -8.29331745615877       -0.07885806133669       -2.47853147463962
C           -7.48968625285748       -1.20647079080202       -2.38079265060673
C           -2.77776280818107        1.79369705186795        0.10135341387666
C           -2.52215983591157        2.94964851219569        0.83453736635364
C           -3.52796880862205        3.86553343367225        1.15953445144809
C           -4.80168911737562        3.60734302505686        0.70279095099167
O           -1.96680154313993       -0.42379689336709        1.22467141250860
O           -1.77405604138518        1.10830278767820       -0.51269980248516
B           -0.97199801277777        0.29200169890040        0.40229024223129
C            0.54301052377008       -2.79627767360994       -0.42939277300234
C            0.78735878790176       -1.52439460185124        0.09348555334559
C            1.95658865282677       -1.30990488579478        0.89945691250705
C            2.66958971281283       -2.49473989883119        1.29953777485057
C            2.32041061390676       -3.76270395876306        0.78091339672595
C            1.32373638174789       -3.91844214641578       -0.15348986749508
C            2.63084833962493       -0.06008097665998        1.14630928997737
C            3.93678616860872       -0.12679061143576        1.67488925268006
C            4.43506964437222       -1.33899655374409        2.21852691350356
N            3.78177903812057       -2.49276498185296        2.06018787756309
C            2.24660027619730        1.24203632653217        0.68805106301500
C            3.28231124583795        2.18144793675854        0.37521050664009
N            4.52535005110613        2.07565063759387        0.86909424929865
C            4.81595580777130        0.99153789129414        1.60204808085676
C            6.09691954354730        0.90018086339354        2.18434430466179
C            6.55677149763120       -0.25870929038737        2.80024755532231
C            5.71422561049985       -1.36252080985538        2.81320753534810
C            0.91391826490774        1.69097277321219        0.51902386828202
C            0.66813002585809        2.77019295683343       -0.32713439572476
C            1.69192970424155        3.55870538823823       -0.86028893706729
C            2.97822812103881        3.29765883211908       -0.44042877984488
O           -0.08976754692841        1.10943898919004        1.22328871288540
O           -0.09018015808123       -0.59958885916865       -0.37729859199106
C           -2.97139248446389       -5.13937398820809        1.46737407922141
C           -1.64223223798362       -5.14724115295175        2.23825177932611
C           -2.98386502194100       -6.31045606777324        0.47391098753005
C           -4.12611480101117       -5.31492980349267        2.46624342807430
C           -3.20834809358830        5.18400354446938        1.86314938762908
C           -4.24415489087227        5.44813080287318        2.96646322980149
C           -1.80541829518120        5.16394048745985        2.48613823300312
C           -3.26376414659116        6.31825314955684        0.82722928366545
C           -9.65381104092255       -0.09654235540241       -3.17949044322829
C           -9.91416417218293       -1.43291984042156       -3.88799999803892
C           -9.70635627969258        1.02697397476848       -4.22759989874024
C          -10.75378561678284        0.12686875489143       -2.12885256872314
C            1.18053186164469       -5.22871175932198       -0.93357143835249
C           -0.03462892045558       -5.19423503916919       -1.87097572545943
C            1.06165095358411       -6.43783680187648        0.00608532860236
C            2.44728843892949       -5.38803172611229       -1.79161417911415
C            1.39108692467257        4.73306520765147       -1.79554673390929
C            2.34775760980287        4.68950027665766       -2.99712199046926
C            1.58614362022629        6.05261218665833       -1.03408609761133
C           -0.05087485740333        4.68377783205636       -2.32418804364869
C            7.99562321740275       -0.37044239181908        3.31327419198458
C            8.55316758204839        1.00006249495426        3.72506038270446
C            8.07573829545584       -1.31667503632603        4.52094496012190
C            8.85754767715938       -0.93778596796689        2.17460349400067
H          -11.73655080265408        0.10774367756038       -2.59695213669836
H          -10.63697983287772        1.08657853473939       -1.62997049722180
H          -10.72328515428027       -0.65464427708237       -1.37142618981455
H          -10.87080065483909       -1.40265675000891       -4.40639800409326
H           -9.95076667656609       -2.25483294090279       -3.17583410772463
H           -9.14029984453350       -1.63804596838919       -4.62516532297571
H          -10.65765245454721        1.00841703709728       -4.75663187191069
H           -8.90877317573578        0.90412567681772       -4.95789344602078
H           -9.59917553229837        2.00767799712576       -3.77042479604644
H           -3.99607330380282       -6.23434343771408        3.03564848307041
H           -5.08205566930857       -5.36702436905723        1.94818528429805
H           -4.15922316094521       -4.47452041307217        3.15732312675459
H           -1.43661406538737       -6.14156367504481        2.63177210313277
H           -1.67319194579685       -4.46185148480018        3.08144705037326
H           -0.81784877318832       -4.85198092480788        1.59304008715878
H           -2.81431155850364       -7.24966819550208        0.99810607260496
H           -2.20444938607626       -6.19751968876618       -0.27395620941492
H           -3.93830002804927       -6.38824248251672       -0.04065910705996
H           -0.16329968632962       -6.15803605165630       -2.36059238663054
H            0.09483954094077       -4.44237828910542       -2.64722904491049
H           -0.94565741213574       -4.96510770248058       -1.32335210362767
H            2.38168427739202       -6.28938895298682       -2.39895848221962
H            3.33781475938564       -5.46096499909879       -1.17102140996147
H            2.56880192707906       -4.53624652174093       -2.45851353986906
H            1.02912411293428       -7.36120930871118       -0.57026469236552
H            0.15402336925299       -6.38341391508990        0.59877510326801
H            1.90827539613599       -6.49795605021667        0.68567762363902
H           -3.96938633908119        6.32828906392143        3.54579306238362
H           -4.30726837259981        4.59425738030322        3.63529370732182
H           -5.23320491853500        5.62220350707255        2.54973508113801
H            1.40593415298136        6.90337057745625       -1.68971605697486
H            2.59846033905056        6.13331851248541       -0.64399741792981
H            0.88909668528787        6.11710872761241       -0.20044237015004
H           -1.62840702702862        6.08748222746690        3.03220726235897
H           -1.03164060543729        5.08371754195988        1.72489295410720
H           -1.70026747012081        4.33170786605300        3.17807974100679
H           -3.03841453102019        7.27392325476956        1.29848194725511