116
 energy: -22.928061455056 gnorm: 0.329736929581 xtb: 6.6.1 (8d0f1dd)
C           -3.31122850772930        0.79849766164622       -0.92477639677520
C           -2.44380812530352       -0.12270372891954       -0.27661132624697
C           -1.41337090092821        0.39579727573559        0.56335275196199
C           -0.89266158675590        1.65801491088749        0.27377586709581
C           -1.72665675402493        2.51431363229076       -0.49448366572522
C           -2.95444148494349        2.13954154133227       -1.01494489940871
C           -0.74098268209890       -0.43411532818871        1.49825021926784
C            0.56872586496315        0.03782116815119        1.86248088067890
C            1.03782416582094        1.29402317993033        1.50887470833621
N            0.31238977034758        2.07067427098208        0.65193736800696
C           -1.29695700510141       -1.39996043042223        2.41574187746061
C           -0.38243517664656       -2.18060797534842        3.13232615520648
N            0.91308504082021       -1.90366887689689        3.30325166013478
C            1.37712470144904       -0.74872102533751        2.81811050966982
C            2.52149331701875       -0.17739833758153        3.39379298866852
C            2.95849061756259        1.02681208890480        2.95105897606587
C            2.24288949469137        1.78498308775960        2.03503020483770
C           -2.74860936222260       -1.74497937691422        2.38401158947411
C           -3.09416315450955       -2.91614440870436        3.00571134491758
C           -2.16786021984049       -3.77788778654213        3.63251872101904
C           -0.85708937311598       -3.40495313382985        3.68547234358092
O           -3.71994433332149       -0.94984598373544        1.67726658385724
O           -2.55702603277562       -1.47241711578389       -0.57241635275616
C           -3.84297843593025        3.13357444054366       -1.60938954875544
C           -2.68769581069131       -5.03867041417370        4.30484659386931
H           -1.39666850744143        3.51251503834900       -0.76806311868865
H           -4.27662633836220        0.55105838579656       -1.33106614114542
H            2.66329581305412        2.73912661909249        1.72562431984580
H            3.05775395548473       -0.69369546277216        4.16536137542516
H           -0.24710966264510       -4.12034095424229        4.22946223699121
H           -4.11477991332403       -3.04712728052358        3.03244694615357
O           -4.21824883374556        4.03433712717988       -0.87713382485991
O           -4.44510595673734        2.90643496899600       -2.81853501752979
C           -5.44216520282800        3.83300025693726       -3.02488532025093
C            4.23586651889298        1.50004220933226        3.59165660008449
O            5.05927614697201        0.66079890002952        3.91714215179376
O            4.47001334453535        2.86385149488593        3.72605651435371
C            5.79457498613219        3.08584475587818        4.15829123132174
O           -3.82227255313510       -5.27347675879771        4.16636005494405
O           -1.85023202017753       -5.79767454267276        5.06656077253571
C           -2.55119635829503       -6.86252441382958        5.62930343183426
C           -5.07197156564436       -1.42399175670916        1.58830531863830
C           -1.33089900128490       -2.23622472573986       -0.99264499351172
H           -2.54510546830388       -7.76426885143998        4.99136022291012
H           -3.57194749219491       -6.44405511486021        5.74196173723541
H           -2.09133598235598       -7.02043774843818        6.64022264233588
H            5.72707967266424        3.46798026205549        5.10135971236643
H            6.34060091246885        3.78468702308830        3.50069950143490
H            6.17933064298187        2.03010500085905        4.19342358084693
H           -0.91862729772622       -2.57650129080332       -0.01361370304871
H           -0.49769766914251       -1.60651221708571       -1.34094446550576
H           -1.52632419730509       -2.94569707152159       -1.75361447637286
H           -5.11788846557077       -2.41810833635233        1.17520213188926
H           -5.67929807973498       -0.69619639428435        1.04301666067831
H           -5.57598832326623       -1.42383358739762        2.57928294206544
H           -6.13050215934830        3.76035386975488       -2.23272855695873
H           -5.86615610071888        3.45938329385866       -4.02668959924245
H           -5.13479557532099        4.87790991548477       -2.98314551356402
C           -1.38192942069774        3.73616555005018        2.91232598411686
C           -1.84821468128685        2.59982427735607        3.49755545445181
C           -1.05946531454833        2.05730632010638        4.60922730982276
C            0.19893954712228        2.69376791964407        4.86302140881997
C            0.50425395911860        3.94630308659851        4.28768785650746
C           -0.26031777722226        4.46998310053134        3.25072669343212
C           -1.20488993561782        0.74454293276906        5.14851520323437
C           -0.06287609782692        0.02744069315890        5.60930570802864
C            1.19208754369866        0.71421540266195        5.78882868583885
N            1.19428660993148        2.06344359410476        5.62744624321596
C           -2.41361422770794        0.07928500213936        5.25249410304426
C           -2.45851584031083       -1.32662100968547        5.60237876023992
N           -1.29466212405906       -1.98318595734370        5.89916817085159
C           -0.14475655767527       -1.32117560077092        5.98824682881008
C            0.97209270935794       -1.98958449505532        6.53157704134458
C            2.21982707914082       -1.36973967291181        6.68703967237737
C            2.30561929262884       -0.09745313075593        6.26436900324455
C           -3.73018485967715        0.71367583494582        5.25810242262992
C           -4.89964478833448       -0.06184623426677        5.21204641615509
C           -4.82617965800088       -1.39228978090841        5.46901303780036
C           -3.67144193418464       -1.98914944386360        5.67265433266067
O           -3.75568638935321        2.07705011038914        5.52067969627343
O           -2.94192434743730        1.91263938797883        3.01658762327703
C            0.21273512614467        5.50086066357994        2.34765104514621
C           -6.06660304520411       -2.17604633098929        5.80641622556876
H            1.41756699010566        4.38133362238595        4.66974005703471
H           -1.82880610647429        4.11982501512100        2.06992133318584
H            3.26888037378556        0.32655662585251        6.31721410015598
H            0.87146188387207       -3.08471526305024        6.57830423410869
H           -3.67716811065157       -3.05999292755990        5.83019634570050
H           -5.77379677507622        0.43595144608221        4.71017130754348
O            1.34459852619901        5.82615848916894        2.44941456579099
O           -0.74718748219123        6.07961784856304        1.59848183464284
C           -0.21473095568964        7.24015934882472        1.05753806029483
C            3.53228080814219       -2.00967610361154        7.02506769044485
O            3.64093082622715       -3.14437803815732        7.50071391725347
O            4.56565258381079       -1.22937033368332        6.69086985080897
C            5.72579357310716       -1.80692399125161        7.22246151275881
O           -7.04801223588612       -1.95726935745904        5.14194115322235
O           -6.01514389321278       -2.93743591896022        6.94765316328794
C           -7.21292732384718       -3.62681918543340        7.15115816329978
C           -4.95459780685163        2.65960679932188        5.86868674392943
C           -3.68284113682406        2.59129188358641        2.05479246020704
H           -7.43119628931628       -4.22607794725959        6.20622607140901
H           -8.06548455146707       -2.91765848248592        7.29781126410398
H           -7.07314693247270       -4.33087306029711        7.91223421050944
H            6.57332189837178       -1.29353136199234        6.78341268688262
H            5.74663761932316       -2.84282155125561        6.88089468184451
H            5.69426191474290       -1.72781984964892        8.29460302186842
H           -4.10481209541493        3.44288266176275        2.60483747673152
H           -4.49244774344916        1.87419893016926        1.82433103764650
H           -3.18901540870812        2.85154642679373        1.06781919454921
H           -5.55414326821421        2.76698137191684        4.93950725322359
H           -4.78658370641210        3.62090640967288        6.25983200635257
H           -5.43485580473958        1.97242995129449        6.65265772412460
H            0.89164886030839        7.38838561720231        1.13776105146914
H           -0.62894889903848        8.04195665205089        1.64837664327952
H           -0.59282546386754        7.45699159724320        0.03719083132488
116
 energy: -22.710562586332 gnorm: 0.472995209893 xtb: 6.6.1 (8d0f1dd)
C           -3.12113976949266        0.33677312635623       -0.91467099314160
C           -2.32025718533141       -0.44662738523781       -0.07199696690917
C           -1.30478182755765        0.18008820241263        0.63533296101152
C           -1.13882527898116        1.58215409929675        0.55765220900234
C           -2.14121818787638        2.33321040640811       -0.14772683765992
C           -3.00831920508160        1.73437141908577       -1.05911500514759
C           -0.61711446048337       -0.52638178335504        1.74001588365680
C            0.59876527850095        0.11994959956931        2.14024345418186
C            0.83431738449888        1.51681138361696        1.83394533874528
N           -0.07679383214768        2.35025604498252        1.15810772250347
C           -0.96123015662960       -1.79189064288367        2.39374333036369
C            0.03376241361631       -2.49887374539841        3.11638200512280
N            1.30512494858477       -2.03488055766666        3.19970916926867
C            1.53719432844278       -0.78328503883304        2.78496994369733
C            2.72268791108731       -0.15302063843514        3.08574175605059
C            2.94757316399605        1.17085434691365        2.96423447147875
C            2.05752107875102        2.05524503833359        2.32683074185176
C           -2.29547509751588       -2.33325299379103        2.54212154837117
C           -2.56806177245590       -3.50489246462798        3.28757742563544
C           -1.48174742751295       -3.98128514221842        3.99356593768954
C           -0.19706714016034       -3.57967999225053        3.82713716118025
O           -3.22007472373503       -1.48674795677725        2.06986502509516
O           -2.64573532022433       -1.90659435046106       -0.18460678639394
C           -4.17037455198791        2.70841295608847       -1.48103640215155
C           -1.70619152965259       -5.01878394071510        4.94631489898026
H           -2.05738569297934        3.45844545159073       -0.26520691627848
H           -3.61905967854343       -0.33540969639872       -1.58329875060876
H            2.17788668797512        3.05837368345286        2.06784630051372
H            3.46176796701982       -0.61324990754388        3.80861852496909
H            0.71814142089832       -4.07525242966171        4.25305379843628
H           -3.65353664207102       -3.49960489108271        3.38604407883944
O           -4.49776194184900        3.79466921586537       -0.94170305492699
O           -4.67827415195918        2.24353298783813       -2.68375898132722
C           -5.42532873845961        3.29414947853652       -3.28070212381653
C            4.23446278154146        1.70292158871079        3.35253178181356
O            5.07007853499587        0.97265313233021        3.85307694692891
O            4.56221708738481        2.93197395782573        2.85250416389079
C            5.30690808920335        3.58985272319642        3.89659626638479
O           -2.81319149816423       -5.54562132177964        5.04766494362631
O           -0.64329878083748       -5.30131285732761        5.74341540659423
C           -1.11776101527728       -5.90250249934168        6.86666814311112
C           -4.60920979895823       -1.96726346075532        1.77837488021241
C           -1.68970549904907       -2.74563939382376       -0.77534565885223
H           -1.55092293638883       -6.86778332443114        6.71473390107588
H           -1.80871143363305       -5.30522612120431        7.34249011863927
H           -0.36300756103302       -6.24308402813143        7.62657869290061
H            4.52378969837612        3.74409566410227        4.60696827302224
H            5.78796313481356        4.44045430502220        3.55014851691271
H            5.99172116724985        2.84214867571056        4.07391922844985
H           -2.09935698075171       -3.73103384465185       -0.76946519505444
H           -0.68682315375321       -2.52394271542536       -0.28537804347572
H           -1.36468735487037       -2.49422898643276       -1.76643997235803
H           -4.81330044399898       -1.38914695237030        0.88615682488822
H           -5.19178281153596       -1.80752956675480        2.67696216539673
H           -4.60308215299361       -3.00767747828313        1.43677115544715
H           -6.18898007042465        3.61857651561474       -2.74031895732909
H           -5.88894190881244        2.82977768383591       -4.30943226155882
H           -4.62493829686044        4.14496170142922       -3.26914859395639
C           -1.74503863575425        3.93651085312848        3.22040094014741
C           -1.89382655535354        2.68119007829731        3.87041899260905
C           -1.05207552281848        2.16605830723961        4.85408064897266
C            0.26071096586989        2.83287041500104        4.96146228342674
C            0.44790864345155        4.04266717986662        4.30852681685342
C           -0.44447481754460        4.49988588845186        3.34844866309147
C           -1.36093160841679        0.97009298617585        5.49532490373196
C           -0.29602304553615        0.33630653308278        6.01543107787239
C            1.02421864226452        0.87921103367652        5.80944231083324
N            1.42878596881450        2.06423603987697        5.28347069711814
C           -2.72899804994199        0.41633715347322        5.70513925578677
C           -2.78649421797816       -0.99802700343973        5.72464763349395
N           -1.78564818492629       -1.67447046659818        6.16601566301173
C           -0.55401833082366       -1.09779214123395        6.22478674640464
C            0.54418424075602       -1.90461964524296        6.69568192846524
C            1.81357981677188       -1.37670812012365        6.53210858520448
C            2.06540047855075       -0.07744087183297        6.05797118529272
C           -3.90088882220118        1.16458638555544        5.66221756324866
C           -5.03457818653669        0.49781518328045        5.22860565485879
C           -5.22891331518251       -0.91111562987475        5.11067643170080
C           -4.09039833121339       -1.67531907254626        5.57679452075009
O           -4.14965134789639        2.48001526239631        6.05033699837123
O           -2.87693037254208        1.86301549672779        3.45845194443191
C           -0.05999308487711        5.82030766536410        2.73945338534559
C           -6.58840788492774       -1.26035996509212        4.58931279743877
H            1.46120682195639        4.51908735783165        4.20420882516796
H           -2.25430495280005        4.35145851369987        2.35680585162639
H            3.01161391140220        0.33981116554313        6.01659447615138
H            0.44881432615711       -2.99172646996189        6.70987735215599
H           -4.11047327646964       -2.81540042223665        5.60116450572078
H           -5.74980370503376        1.14493080618841        4.86671452346414
O            0.74774027256626        6.50274717337758        3.35821822296779
O           -0.48680508117077        6.01801730450504        1.46042459620806
C            0.36081168677360        7.04980650170476        0.84904993286901
C            2.91253609840328       -2.31173233726474        6.68522947085000
O            2.77551967451786       -3.33670095061032        7.28022298086417
O            4.12434506165018       -1.99112738011596        5.96472107001366
C            4.90473796347044       -3.15313171137412        5.91589922956172
O           -7.55582661057332       -0.49046169535797        4.51628157100050
O           -6.73292760465911       -2.64116152418513        4.36171340298031
C           -7.74915796076345       -3.02302592129751        3.61288159639574
C           -3.25782291672130        2.61752847103242        7.21360857297542
C           -4.03136470806393        2.47442401137562        2.87816105927407
H           -7.46499173078873       -2.59320756944864        2.66504917902903
H           -8.72044192785059       -2.44636070568834        3.94647410814930
H           -7.84656064833430       -4.15356625937105        3.48773877685187
H            5.36904151438462       -3.41643729035749        6.88262046546727
H            5.80328757513347       -2.85845345388337        5.35688305321307
H            4.35521508783712       -4.22426434084248        5.60626748242291
H           -4.79419188013177        1.69668865414006        2.71122012079013
H           -3.72238241849875        2.66814482937889        1.87624615800560
H           -4.62955377696014        3.16626493471347        3.48499161966978
H           -3.01346220015246        1.84076847317124        8.03489322080462
H           -3.56751451706382        3.46133340898559        7.85612065776067
H           -2.14227924679553        2.57112393506267        6.91420661638896
H            1.07882322242965        6.72366018328407        0.04353231377984
H            1.05618594166304        7.60511522032910        1.60826814072210
H           -0.43175997154137        7.73932759064366        0.42937121114333
116
 energy: -22.758901703372 gnorm: 0.474728904661 xtb: 6.6.1 (8d0f1dd)
C           -2.76320546105918        0.06982357851896       -0.85280674886634
C           -1.83149096371197       -0.62278404810153       -0.23647151442920
C           -0.76387593278009        0.11026558165622        0.45482192861678
C           -0.57279884269643        1.55101428137108        0.35831107223312
C           -1.66570408238587        2.10865691259317       -0.37161108455404
C           -2.73666293035784        1.45310988718011       -0.80218212337675
C            0.06445501870408       -0.55932188704710        1.39057233945464
C            1.26606735987807        0.13282727389885        1.64269519129368
C            1.46724481403245        1.50968637137818        1.22720531569389
N            0.59235882768870        2.22850828675778        0.47513585947106
C           -0.43784856223472       -1.67837477813412        2.21724649133738
C            0.71213970266439       -2.42317168149527        2.71018617061939
N            1.93290212904117       -1.82782505313345        2.79862321042390
C            2.16006112997016       -0.55028592219442        2.48240402933868
C            3.29451598810016        0.21627608336171        2.86279290908992
C            3.48608265951484        1.51524180112880        2.48992287011105
C            2.60718195465793        2.14461177864689        1.67775553271602
C           -1.78749854068403       -2.09554418585840        2.54410342357732
C           -2.00801593076422       -3.33934392845807        3.03038437331526
C           -0.89364807420625       -4.12612178052141        3.52203092780354
C            0.37221109693905       -3.63025675216018        3.27496005732282
O           -2.89925157014344       -1.31746010663695        2.34768081236101
O           -1.96525886768913       -2.07105795669894       -0.31207894773276
C           -3.73360896940405        2.20222125151666       -1.47563537005263
C           -1.15355718936300       -5.46132104681765        4.18030092031806
H           -1.87592814708012        3.19069373345040       -0.51221334206862
H           -3.54631575931517       -0.49478841001467       -1.25999722630031
H            2.97554389392391        3.15069167301844        1.40780098604535
H            4.20866959518361       -0.34396176700153        3.03444204995321
H            1.17021377261454       -4.14614547856958        3.91400368177591
H           -3.00220350606718       -3.59934239358900        3.40762373532141
O           -3.82290543845861        3.41241551563648       -1.51379271207884
O           -4.64702575507839        1.38566943693394       -1.99037424489895
C           -5.68000169661448        2.17840371073836       -2.29059484678702
C            4.68429348602255        2.38634377373797        3.07619291897799
O            5.20900078118972        2.00980680822685        4.10825193355176
O            4.99139134792543        3.47725331174244        2.40707141603367
C            6.11432133827297        4.14090306980807        2.70903489194628
O           -2.23975953835349       -5.95091444017708        4.16177327438103
O            0.04189846228678       -6.02413955734591        4.82056388397575
C           -0.26425528986974       -7.25367876124560        5.27091459992487
C           -4.15153219297903       -1.58303835319363        3.11461754681731
C           -0.78009304864373       -2.73451984899660       -0.93715218779133
H           -0.12470336787593       -7.92748540870930        4.31218376053220
H           -1.33291880558303       -7.28998909683206        5.56514361509201
H            0.60709328354246       -7.41243096122629        6.02358813817856
H            6.92931438868092        3.63358044856430        2.19997455898687
H            6.18965248380004        4.24304905159767        3.81990751651124
H            5.77065430990518        5.23501629117989        2.47662888460742
H            0.11736538898271       -2.61156848127786       -0.35447850123047
H           -0.71040681329035       -2.35591494653872       -1.98229890525530
H           -0.90298562864590       -3.83338240749644       -1.06365540292503
H           -4.66658715620461       -0.55523073254527        2.94174681784277
H           -3.91682604951672       -1.70257770567722        4.17973168295446
H           -4.68672597617614       -2.40933202734424        2.70746697418577
H           -5.80541255286162        3.04471560300171       -1.74702114629579
H           -6.52971503815357        1.45406293814115       -1.93193727440625
H           -5.57007745613913        2.27391639564730       -3.40267739549221
C           -1.88695730352086        3.85199521625223        2.85258973641899
C           -2.34500146466738        2.74527427653809        3.40419845464145
C           -1.44229403189372        2.14064165242874        4.45462593403929
C           -0.05810163722468        2.43215808447173        4.54913900564019
C            0.36240727504053        3.62855830916125        3.91260488559453
C           -0.58187422760340        4.33675791848487        3.10540675103360
C           -1.89875573721471        0.98018767888060        5.23539416734982
C           -0.85952783996755        0.10134245777719        5.75604152966278
C            0.48774752875720        0.52020954871160        5.68584717893339
N            0.76862054735132        1.78618641942904        5.24779107631357
C           -3.25390468376831        0.61432478483764        5.51612294795905
C           -3.48889532598664       -0.71780377256419        5.92770582535873
N           -2.51484629220173       -1.66402052148968        6.06460952782654
C           -1.27587740823534       -1.20769641073545        6.21771726144513
C           -0.39663681727742       -2.09184839361251        6.71389793104593
C            0.89190457159471       -1.61590846309784        6.66939439160882
C            1.33647809142194       -0.29493007599528        6.41321763776286
C           -4.35085240701183        1.51961288435264        5.87999256758797
C           -5.67080098983834        1.03687139236534        5.96740429269568
C           -5.79664313411416       -0.37404554180243        5.68832290046110
C           -4.78413277392922       -1.22073557330165        5.95151255829604
O           -4.33292506989858        2.91284313399042        5.95157233102857
O           -3.44214219152430        2.00669948512889        3.06186647525883
C            0.11860049889228        5.55469101921446        2.56114216058844
C           -7.18819878726667       -0.97739886761677        5.65162306801849
H            1.45650194693865        3.83955950155400        4.01776859184624
H           -2.49587871020373        4.50518999207936        2.30563668591826
H            2.36302650209223       -0.03868500440283        6.33222039811797
H           -0.74979037400039       -3.11062858341234        6.99929558722507
H           -5.00714011548292       -2.26226500392165        6.29005544137616
H           -6.51737265014024        1.59051000904568        6.08480603228639
O            1.35429614593776        5.43722123325781        2.38963978520056
O           -0.46588802687350        6.74914277372330        2.23916595506378
C            0.70954603829134        7.50066414907531        1.95981028448005
C            1.88885925440510       -2.63609969627797        7.08933108139858
O            1.50921874005469       -3.79429966923138        7.39514846877897
O            3.15325707685625       -2.20582652715410        7.10267534867976
C            4.04961552496655       -3.26309627078850        7.20686518687933
O           -8.25801561042357       -0.53438794677945        6.08540984700452
O           -7.21863573573120       -1.98965120730277        4.70859513830999
C           -8.59165212878862       -2.34681018078777        4.45565053333212
C           -3.95395029922470        3.38791516584164        7.25331500678903
C           -4.61363923052259        2.78750147310631        2.94221078541429
H           -8.99891527125882       -1.48591353898286        3.94204870256399
H           -9.08016525220462       -2.30257525907487        5.33326472276358
H           -8.39748756017319       -3.35228701160031        3.88321902182378
H            3.61416714707265       -4.03159696362003        6.53805658982016
H            4.06568002516343       -3.61643187829933        8.27359340616044
H            4.98136684485017       -3.02948532712438        6.86215158029975
H           -5.35823160531018        2.01265568118896        2.79200980008490
H           -4.52975306700335        3.57334014124456        2.22086809853589
H           -4.76434979221799        3.13546134556721        3.94999931436520
H           -2.91877863443191        3.57152280695494        7.22316366892912
H           -4.20116738351773        2.59651434326137        7.92379077721564
H           -4.57785825593613        4.22062228098129        7.59765249097064
H            1.27217411175572        6.95322080680069        1.24043204940093
H            1.24199527638729        7.67230908980574        2.97310760661930
H            0.51202851078903        8.54029089914253        1.64261682722582
116
 energy: -22.777452713134 gnorm: 0.450247061502 xtb: 6.6.1 (8d0f1dd)
C           -2.55707242857223        0.21339919348573       -0.74151056153457
C           -1.68023610332728       -0.55555634845754        0.04963336314352
C           -0.68402582137503        0.26119391942413        0.68808569053286
C           -0.59915357413574        1.63846580961253        0.56445110965438
C           -1.67543103296636        2.36666550662044        0.01734219588717
C           -2.72638557411044        1.64542304579844       -0.51088428177665
C            0.16962746982766       -0.33136059771612        1.69695066335136
C            1.29638216885205        0.44158819266813        1.91066973766583
C            1.50388598005115        1.69270056103000        1.38676201661871
N            0.35181606825885        2.38943117938274        1.09951467842850
C           -0.03855169292638       -1.60223001610155        2.42262979566517
C            1.19167345146631       -2.13786480458334        2.93613429228285
N            2.38799283343274       -1.39910334867099        3.13294559705900
C            2.37318112216680       -0.18712571914905        2.70934060991445
C            3.59221420306325        0.41169860988725        2.94951883740760
C            3.74694762841088        1.69188502324192        2.40485606196097
C            2.72892797229782        2.27897563879822        1.61567903254149
C           -1.27405835669952       -2.41125186164248        2.49417830911011
C           -1.20488777243248       -3.78059619114357        2.73372065690807
C            0.01003430068947       -4.27666311785678        3.18670117521181
C            1.15668082739321       -3.46637374634862        3.36494213933255
O           -2.48300732853545       -1.71277478070028        2.37267699951512
O           -1.61771869411120       -1.92096732703580       -0.09958487081458
C           -3.88398070481298        2.43408778547214       -1.17606109629360
C           -0.02115243311257       -5.74521776967229        3.48084360485644
H           -1.47110725237611        3.50657575058972        0.06759427226331
H           -3.34541070217350       -0.28785443907362       -1.23355254155105
H            2.86273726776313        3.41061743409113        1.26917680697041
H            4.41737293339491       -0.14255096697093        3.43719950163547
H            2.07892363587562       -3.75242140426196        4.04751803311712
H           -2.08371307461290       -4.44067879440249        2.91308240143368
O           -4.02724460555309        3.58694898758946       -0.82808211893782