Optimization of monomers started
Stacking dimer
Calculating transfer integral
Reorganization energy (electron): 0.07612449483123392 eV
Reorganization energy (hole): 0.1971069739905966 eV
Electron Transfer integral J: 0.007 eV
Hole Transfer integral J: 0.002 eV
=                   |     
     |                         S. Grimme                         |     
     |          Mulliken Center for Theoretical Chemistry        |     
     |                    University of Bonn                     |     
      -----------------------------------------------------------      

   * xtb version 6.7.1 (43a0e4e5b5d943adc66b4aa6563d39c792f6153b) compiled by 'joseph@Linux' on 2024/10/21

   xtb is free software: you can redistribute it and/or modify it under
   the terms of the GNU Lesser General Public License as published by
   the Free Software Foundation, either version 3 of the License, or
   (at your option) any later version.
   
   xtb is distributed in the hope that it will be useful,
   but WITHOUT ANY WARRANTY; without even the implied warranty of
   MERCHANTABILITY or FITNESS FOR A PARTICULAR PURPOSE.  See the
   GNU Lesser General Public License for more details.
   
   Cite this work as:
   * C. Bannwarth, E. Caldeweyher, S. Ehlert, A. Hansen, P. Pracht,
     J. Seibert, S. Spicher, S. Grimme, WIREs Comput. Mol. Sci., 2020, 11,
     e01493. DOI: 10.1002/wcms.1493
   
   for GFN2-xTB:
   * C. Bannwarth, S. Ehlert and S. Grimme., J. Chem. Theory Comput., 2019,
     15, 1652-1671. DOI: 10.1021/acs.jctc.8b01176
   for GFN1-xTB:
   * S. Grimme, C. Bannwarth, P. Shushkov, J. Chem. Theory Comput., 2017,
     13, 1989-2009. DOI: 10.1021/acs.jctc.7b00118
   for GFN0-xTB:
   * P. Pracht, E. Caldeweyher, S. Ehlert, S. Grimme, ChemRxiv, 2019, preprint.
     DOI: 10.26434/chemrxiv.8326202.v1
   for GFN-FF:
   * S. Spicher and S. Grimme, Angew. Chem. Int. Ed., 2020, 59, 15665-15673.
     DOI: 10.1002/anie.202004239
   
   for ALPB and GBSA implicit solvation:
   * S. Ehlert, M. Stahn, S. Spicher, S. Grimme, J. Chem. Theory Comput.,
     2021, 17, 4250-4261. DOI: 10.1021/acs.jctc.1c00471
   
   for ddCOSMO and CPCM-X implicit solvation:
   * M. Stahn, S. Ehlert, S. Grimme, J. Phys. Chem. A,
     2023, XX, XXXX-XXXX. DOI: 10.1021/acs.jpca.3c04382
   
   for DFT-D4:
   * E. Caldeweyher, C. Bannwarth and S. Grimme, J. Chem. Phys., 2017,
     147, 034112. DOI: 10.1063/1.4993215
   * E. Caldeweyher, S. Ehlert, A. Hansen, H. Neugebauer, S. Spicher,
     C. Bannwarth and S. Grimme, J. Chem. Phys., 2019, 150, 154122.
     DOI: 10.1063/1.5090222
   * E. Caldeweyher, J.-M. Mewes, S. Ehlert and S. Grimme, Phys. Chem. Chem. Phys.
     2020, 22, 8499-8512. DOI: 10.1039/D0CP00502A
   
   for sTDA-xTB:
   * S. Grimme and C. Bannwarth, J. Chem. Phys., 2016, 145, 054103.
     DOI: 10.1063/1.4959605
   
   in the mass-spec context:
   * V. Asgeirsson, C. Bauer and S. Grimme, Chem. Sci., 2017, 8, 4879.
     DOI: 10.1039/c7sc00601b
   * J. Koopman and S. Grimme, ACS Omega 2019, 4, 12, 15120-15133.
     DOI: 10.1021/acsomega.9b02011
   
   for metadynamics refer to:
   * S. Grimme, J. Chem. Theory Comput., 2019, 155, 2847-2862
     DOI: 10.1021/acs.jctc.9b00143
   
   for SPH calculations refer to:
   * S. Spicher and S. Grimme, J. Chem. Theory Comput., 2021, 17, 1701-1714
     DOI: 10.1021/acs.jctc.0c01306
   
   for ONIOM refer to:
   * C. Plett, A. Katbashev, S. Ehlert, S. Grimme, M. Bursch,
     Phys. Chem. Chem. Phys., 2023, 25, 17860-17868. DOI: 10.1039/D3CP02178E
   
   for DIPRO refer to:
   * J. Kohn, N. Gildemeister, S. Grimme, D. Fazzi, A. Hansen,
     J. Chem. Phys., 2023, just accepted.
   
   for PTB refer to:
   * S. Grimme, M. Mueller, A. Hansen, J. Chem. Phys., 2023, 158, 124111.
     DOI: 10.1063/5.0137838
   
   with help from (in alphabetical order)
   P. Atkinson, C. Bannwarth, F. Bohle, G. Brandenburg, E. Caldeweyher
   M. Checinski, S. Dohm, S. Ehlert, S. Ehrlich, I. Gerasimov, C. Hölzer
   A. Katbashev, J. Kohn, J. Koopman, C. Lavigne, S. Lehtola, F. März, M. Müller,
   F. Musil, H. Neugebauer, J. Pisarek, C. Plett, P. Pracht, F. Pultar,
   J. Seibert, P. Shushkov, S. Spicher, M. Stahn, M. Steiner, T. Strunk,
   J. Stückrath, T. Rose, and J. Unsleber
   
 * started run on 2024/11/25 at 10:49:46.048     
   ID    Z sym.   atoms
    1    6 C      1-9, 11, 12, 14-21, 24-35, 42, 43
    2    7 N      10, 13
    3    8 O      22, 23
    4    1 H      36-41, 44-76

           -------------------------------------------------
          |                Calculation Setup                |
           -------------------------------------------------

          program call               : xtb Base3tBu.mol --opt --gfn 2 --chrg 0 --uhf 1 --tight
          coordinate file            : Base3tBu.mol
          omp threads                :                     4

########################################################################
[WARNING] Please study the warnings concerning your input carefully
-1- prog_main_parseArguments: Unknown option '--tight' provided
########################################################################

           -------------------------------------------------
          |                 G F N 2 - x T B                 |
           -------------------------------------------------

        Reference                      10.1021/acs.jctc.8b01176
      * Hamiltonian:
        H0-scaling (s, p, d)           1.850000    2.230000    2.230000
        zeta-weighting                 0.500000
      * Dispersion:
        s8                             2.700000
        a1                             0.520000
        a2                             5.000000
        s9                             5.000000
      * Repulsion:
        kExp                           1.500000    1.000000
        rExp                           1.000000
      * Coulomb:
        alpha                          2.000000
        third order                    shell-resolved
        anisotropic                    true
        a3                             3.000000
        a5                             4.000000
        cn-shift                       1.200000
        cn-exp                         4.000000
        max-rad                        5.000000


          ...................................................
          :                      SETUP                      :
          :.................................................:
          :  # basis functions                 187          :
          :  # atomic orbitals                 187          :
          :  # shells                          113          :
          :  # electrons                       193          :
          :  max. iterations                   250          :
          :  Hamiltonian                  GFN2-xTB          :
          :  restarted?                      false          :
          :  GBSA solvation                  false          :
          :  PC potential                    false          :
          :  electronic temp.          300.0000000     K    :
          :  accuracy                    1.0000000          :
          :  -> integral cutoff          0.2500000E+02      :
          :  -> integral neglect         0.1000000E-07      :
          :  -> SCF convergence          0.1000000E-05 Eh   :
          :  -> wf. convergence          0.1000000E-03 e    :
          :  Broyden damping             0.4000000          :
          :  net charge                          0          :
          :  unpaired electrons                  1          :
          ...................................................

 iter      E             dE          RMSdq      gap      omega  full diag
   1   -104.2984485 -0.104298E+03  0.437E+00    1.16       0.0  T
   2   -104.3350944 -0.366459E-01  0.267E+00    1.15       1.0  T
   3   -103.9706595  0.364435E+00  0.211E+00    0.94       1.0  T
   4   -104.3663508 -0.395691E+00  0.606E-01    1.14       1.0  T
   5   -104.3911145 -0.247637E-01  0.352E-01    1.18       1.0  T
   6   -104.4000286 -0.891409E-02  0.113E-01    1.16       1.0  T
   7   -104.4002853 -0.256681E-03  0.841E-02    1.18       1.0  T
   8   -104.4006206 -0.335268E-03  0.449E-02    1.16       1.0  T
   9   -104.4007777 -0.157126E-03  0.142E-02    1.17       1.0  T
  10   -104.4007813 -0.358362E-05  0.865E-03    1.17       1.3  T
  11   -104.4007892 -0.791085E-05  0.363E-03    1.17       3.2  T
  12   -104.4007901 -0.888722E-06  0.188E-03    1.17       6.1  T
  13   -104.4007902 -0.125841E-06  0.112E-03    1.17      10.3  T
  14   -104.4007902 -0.351951E-07  0.583E-04    1.17      19.7  T
  15   -104.4007903 -0.174687E-07  0.285E-04    1.17      40.2  T

   *** convergence criteria satisfied after 15 iterations ***

         #    Occupation            Energy/Eh            Energy/eV
      -------------------------------------------------------------
         1        2.0000           -0.7041775             -19.1616
       ...           ...                  ...                  ...
        91        2.0000           -0.3807090             -10.3596
        92        2.0000           -0.3776628             -10.2767
        93        2.0000           -0.3738413             -10.1727
        94        2.0000           -0.3685460             -10.0286
        95        2.0000           -0.3640254              -9.9056
        96        2.0000           -0.3593516              -9.7785
        97        1.0000           -0.3394305              -9.2364 (HOMO)
        98                         -0.2964650              -8.0672 (LUMO)
        99                         -0.2674538              -7.2778
       100                         -0.2659808              -7.2377
       101                         -0.2586890              -7.0393
       102                         -0.2482377              -6.7549
       ...                                ...                  ...
       187                          0.6396250              17.4051
      -------------------------------------------------------------
                  HL-Gap            0.0429655 Eh            1.1692 eV
             Fermi-level           -0.3336677 Eh           -9.0796 eV

 SCC (total)                   0 d,  0 h,  0 min,  0.278 sec
 SCC setup                      ...        0 min,  0.000 sec (  0.173%)
 Dispersion                     ...        0 min,  0.001 sec (  0.503%)
 classical contributions        ...        0 min,  0.000 sec (  0.097%)
 integral evaluation            ...        0 min,  0.005 sec (  1.635%)
 iterations                     ...        0 min,  0.241 sec ( 86.822%)
 molecular gradient             ...        0 min,  0.020 sec (  7.158%)
 printout                       ...        0 min,  0.010 sec (  3.609%)

         :::::::::::::::::::::::::::::::::::::::::::::::::::::
         ::                     SUMMARY                     ::
         :::::::::::::::::::::::::::::::::::::::::::::::::::::
         :: total energy            -103.424002472397 Eh    ::
         :: gradient norm              0.545652286296 Eh/a0 ::
         :: HOMO-LUMO gap              1.169151784628 eV    ::
         ::.................................................::
         :: SCC energy              -104.400235567251 Eh    ::
         :: -> isotropic ES            0.052775334289 Eh    ::
         :: -> anisotropic ES          0.028437323794 Eh    ::
         :: -> anisotropic XC          0.082877598912 Eh    ::
         :: -> dispersion             -0.080103161844 Eh    ::
         :: repulsion energy           0.976233094854 Eh    ::
         :: add. restraining           0.000000000000 Eh    ::
         :: total charge               0.000000000001 e     ::
         :::::::::::::::::::::::::::::::::::::::::::::::::::::

      ----------------------------------------------------------- 
     |                   =====================                   |
     |                        A N C O P T                        |
     |                   =====================                   |
     |               Approximate Normal Coordinate               |
     |                Rational Function Optimizer                |
      ----------------------------------------------------------- 
      ----------------------------------------------------------- 
     |                   =====================                   |
     |                        A N C O P T                        |
     |                   =====================                   |
     |               Approximate Normal Coordinate               |
     |                Rational Function Optimizer                |
      ----------------------------------------------------------- 

          ...................................................
          :                      SETUP                      :
          :.................................................:
          :   optimization level            normal          :
          :   max. optcycles                   228          :
          :   ANC micro-cycles                  20          :
          :   degrees of freedom               222          :
          :.................................................:
          :   RF solver                   davidson          :
          :   write xtbopt.log                true          :
          :   linear?                        false          :
          :   energy convergence         0.5000000E-05 Eh   :
          :   grad. convergence          0.1000000E-02 Eh/α :
          :   maxmium RF displ.          1.0000000          :
          :   Hlow (freq-cutoff)         0.1000000E-01      :
          :   Hmax (freq-cutoff)         5.0000000          :
          :   S6 in model hess.         20.0000000          :
          ...................................................

generating ANC from exact Hessian ...
Using Lindh-Hessian (1995)
 Shifting diagonal of input Hessian by    1.0131760126574416E-002
 Lowest  eigenvalues of input Hessian
    0.010000    0.010022    0.010042    0.010077    0.010081    0.000000
    0.010094    0.000000    0.000000    0.000000    0.000000    0.000000
    0.010271    0.010381    0.010445    0.010555    0.010617    0.010783
 Highest eigenvalues
    1.169183    1.169787    1.219763    1.220655    1.407608    2.384335


........................................................................
.............................. CYCLE    1 ..............................
........................................................................

 iter      E             dE          RMSdq      gap      omega  full diag
   1   -104.4007903 -0.104401E+03  0.191E-04    1.17       0.0  T
   2   -104.4007902  0.511851E-08  0.271E-04    1.17      42.4  T
   3   -104.4007903 -0.849677E-08  0.594E-05    1.17     193.3  T
     SCC iter.                  ...        0 min,  0.048 sec
     gradient                   ...        0 min,  0.021 sec
 * total energy  :  -103.4240025 Eh     change       -0.4687180E-08 Eh
   gradient norm :     0.5456493 Eh/α   predicted     0.0000000E+00 (-100.00%)
   displ. norm   :     0.7928304 α      lambda       -0.3675848E+00
   maximum displ.:     0.3177153 α      in ANC's #103, #105, #143, ...

........................................................................
.............................. CYCLE    2 ..............................
........................................................................

 iter      E             dE          RMSdq      gap      omega  full diag
   1   -104.7119447 -0.104712E+03  0.458E-01    1.26       0.0  T
   2   -104.7123161 -0.371392E-03  0.280E-01    1.25       1.0  T
   3   -104.7094995  0.281658E-02  0.220E-01    1.28       1.0  T
   4   -104.7127479 -0.324841E-02  0.451E-02    1.25       1.0  T
   5   -104.7128384 -0.905225E-04  0.288E-02    1.26       1.0  T
   6   -104.7128838 -0.454389E-04  0.121E-02    1.26       1.0  T
   7   -104.7128902 -0.635912E-05  0.714E-03    1.26       1.6  T
   8   -104.7128916 -0.139760E-05  0.359E-03    1.26       3.2  T
   9   -104.7128923 -0.753549E-06  0.146E-03    1.26       7.9  T
  10   -104.7128924 -0.430718E-07  0.918E-04    1.26      12.5  T
  11   -104.7128925 -0.580767E-07  0.466E-04    1.26      24.6  T
     SCC iter.                  ...        0 min,  0.172 sec
     gradient                   ...        0 min,  0.020 sec
 * total energy  :  -103.7397815 Eh     change       -0.3157790E+00 Eh
   gradient norm :     0.3700410 Eh/α   predicted    -0.2993386E+00 (  -5.21%)
   displ. norm   :     0.8356317 α      lambda       -0.2835928E+00
   maximum displ.:     0.3718137 α      in ANC's #103, #105, #56, ...

........................................................................
.............................. CYCLE    3 ..............................
........................................................................

 iter      E             dE          RMSdq      gap      omega  full diag
   1   -105.0016718 -0.105002E+03  0.448E-01    1.37       0.0  T
   2   -105.0017436 -0.718157E-04  0.280E-01    1.35       1.0  T
   3   -104.9988473  0.289627E-02  0.235E-01    1.38       1.0  T
   4   -105.0024490 -0.360167E-02  0.442E-02    1.36       1.0  T
   5   -105.0025981 -0.149092E-03  0.214E-02    1.36       1.0  T
   6   -105.0026290 -0.309148E-04  0.108E-02    1.36       1.1  T
   7   -105.0026350 -0.603195E-05  0.447E-03    1.36       2.6  T
   8   -105.0026348  0.275737E-06  0.328E-03    1.36       3.5  T
   9   -105.0026356 -0.859238E-06  0.112E-03    1.36      10.2  T
  10   -105.0026357 -0.511993E-07  0.728E-04    1.36      15.7  T
  11   -105.0026357 -0.377514E-07  0.321E-04    1.36      35.8  T
     SCC iter.                  ...        0 min,  0.171 sec
     gradient                   ...        0 min,  0.021 sec
 * total energy  :  -103.9788078 Eh     change       -0.2390263E+00 Eh
   gradient norm :     0.2379287 Eh/α   predicted    -0.2408101E+00 (   0.75%)
   displ. norm   :     0.8487537 α      lambda       -0.1923860E+00
   maximum displ.:     0.3976151 α      in ANC's #103, #105, #56, ...

........................................................................
.............................. CYCLE    4 ..............................
........................................................................

 iter      E             dE          RMSdq      gap      omega  full diag
   1   -105.2528539 -0.105253E+03  0.384E-01    1.44       0.0  T
   2   -105.2526793  0.174559E-03  0.244E-01    1.41       1.0  T
   3   -105.2505138  0.216552E-02  0.213E-01    1.45       1.0  T
   4   -105.2535135 -0.299969E-02  0.357E-02    1.43       1.0  T
   5   -105.2536241 -0.110646E-03  0.119E-02    1.43       1.0  T
   6   -105.2536295 -0.536419E-05  0.700E-03    1.43       1.6  T
   7   -105.2536308 -0.130851E-05  0.348E-03    1.43       3.3  T
   8   -105.2536312 -0.428340E-06  0.184E-03    1.43       6.2  T
   9   -105.2536315 -0.254308E-06  0.826E-04    1.43      13.9  T
  10   -105.2536315 -0.288776E-07  0.479E-04    1.43      23.9  T
     SCC iter.                  ...        0 min,  0.154 sec
     gradient                   ...        0 min,  0.020 sec
 * total energy  :  -104.1435464 Eh     change       -0.1647386E+00 Eh
   gradient norm :     0.1668815 Eh/α   predicted    -0.1654896E+00 (   0.46%)
   displ. norm   :     0.8484436 α      lambda       -0.1356384E+00
   maximum displ.:     0.4333898 α      in ANC's #56, #103, #105, ...

........................................................................
.............................. CYCLE    5 ..............................
........................................................................

 iter      E             dE          RMSdq      gap      omega  full diag
   1   -105.4637907 -0.105464E+03  0.339E-01    1.47       0.0  T
   2   -105.4636264  0.164296E-03  0.218E-01    1.43       1.0  T
   3   -105.4622021  0.142428E-02  0.186E-01    1.48       1.0  T
   4   -105.4644513 -0.224917E-02  0.365E-02    1.45       1.0  T
   5   -105.4645667 -0.115461E-03  0.993E-03    1.45       1.2  T
   6   -105.4645701 -0.336114E-05  0.624E-03    1.45       1.8  T
   7   -105.4645715 -0.138929E-05  0.303E-03    1.45       3.8  T
   8   -105.4645718 -0.330148E-06  0.151E-03    1.45       7.6  T
   9   -105.4645720 -0.188607E-06  0.679E-04    1.45      16.9  T
  10   -105.4645720 -0.134380E-07  0.417E-04    1.45      27.5  T
     SCC iter.                  ...        0 min,  0.155 sec
     gradient                   ...        0 min,  0.023 sec
 * total energy  :  -104.2595381 Eh     change       -0.1159916E+00 Eh
   gradient norm :     0.1198704 Eh/α   predicted    -0.1166393E+00 (   0.56%)
   displ. norm   :     0.8516801 α      lambda       -0.9584258E-01
   maximum displ.:     0.5214173 α      in ANC's #56, #103, #105, ...

........................................................................
.............................. CYCLE    6 ..............................
........................................................................

 iter      E             dE          RMSdq      gap      omega  full diag
   1   -105.6299490 -0.105630E+03  0.286E-01    1.48       0.0  T
   2   -105.6299505 -0.148982E-05  0.181E-01    1.44       1.0  T
   3   -105.6290034  0.947141E-03  0.147E-01    1.49       1.0  T
   4   -105.6303981 -0.139472E-02  0.316E-02    1.46       1.0  T
   5   -105.6304872 -0.891274E-04  0.884E-03    1.46       1.3  T
   6   -105.6304897 -0.246883E-05  0.579E-03    1.46       2.0  T
   7   -105.6304919 -0.225156E-05  0.215E-03    1.46       5.3  T
   8   -105.6304920 -0.931271E-07  0.112E-03    1.46      10.2  T
   9   -105.6304921 -0.105947E-06  0.452E-04    1.46      25.4  T
  10   -105.6304921 -0.425899E-08  0.292E-04    1.46      39.3  T
     SCC iter.                  ...        0 min,  0.155 sec
     gradient                   ...        0 min,  0.020 sec
 * total energy  :  -104.3420081 Eh     change       -0.8247006E-01 Eh
   gradient norm :     0.0883346 Eh/α   predicted    -0.8268143E-01 (   0.26%)
   displ. norm   :     0.8592663 α      lambda       -0.6953590E-01
   maximum displ.:     0.5619689 α      in ANC's #56, #17, #103, ...

........................................................................
.............................. CYCLE    7 ..............................
........................................................................

 iter      E             dE          RMSdq      gap      omega  full diag
   1   -105.7562492 -0.105756E+03  0.230E-01    1.49       0.0  T
   2   -105.7563170 -0.678216E-04  0.140E-01    1.46       1.0  T
   3   -105.7557523  0.564656E-03  0.104E-01    1.50       1.0  T
   4   -105.7564591 -0.706819E-03  0.229E-02    1.47       1.0  T
   5   -105.7565074 -0.482444E-04  0.747E-03    1.48       1.5  T
   6   -105.7565093 -0.190875E-05  0.469E-03    1.48       2.4  T
   7   -105.7565111 -0.177448E-05  0.150E-03    1.48       7.7  T
   8   -105.7565111 -0.633543E-07  0.678E-04    1.48      16.9  T
   9   -105.7565112 -0.287323E-07  0.269E-04    1.48      42.6  T
     SCC iter.                  ...        0 min,  0.140 sec
     gradient                   ...        0 min,  0.020 sec
 * total energy  :  -104.4021310 Eh     change       -0.6012293E-01 Eh
   gradient norm :     0.0644347 Eh/α   predicted    -0.6043858E-01 (   0.53%)
   displ. norm   :     0.8659419 α      lambda       -0.5136555E-01
   maximum displ.:     0.5409203 α      in ANC's #56, #17, #19, ...

........................................................................
.............................. CYCLE    8 ..............................
........................................................................

 iter      E             dE          RMSdq      gap      omega  full diag
   1   -105.8490564 -0.105849E+03  0.203E-01    1.50       0.0  T
   2   -105.8491212 -0.648334E-04  0.120E-01    1.49       1.0  T
   3   -105.8488382  0.283015E-03  0.725E-02    1.50       1.0  T
   4   -105.8491614 -0.323163E-03  0.155E-02    1.49       1.0  T
   5   -105.8491808 -0.194181E-04  0.688E-03    1.49       1.7  T
   6   -105.8491840 -0.321264E-05  0.303E-03    1.49       3.8  T
   7   -105.8491846 -0.603084E-06  0.126E-03    1.49       9.1  T
   8   -105.8491847 -0.533195E-07  0.518E-04    1.49      22.2  T
   9   -105.8491847 -0.159877E-07  0.222E-04    1.49      51.6  T
     SCC iter.                  ...        0 min,  0.141 sec
     gradient                   ...        0 min,  0.020 sec
 * total energy  :  -104.4462413 Eh     change       -0.4411029E-01 Eh
   gradient norm :     0.0530669 Eh/α   predicted    -0.4494115E-01 (   1.88%)
   displ. norm   :     0.8902121 α      lambda       -0.4126445E-01
   maximum displ.:     0.4710943 α      in ANC's #56, #17, #18, ...

........................................................................
.............................. CYCLE    9 ..............................
........................................................................

 iter      E             dE          RMSdq      gap      omega  full diag
   1   -105.9307308 -0.105931E+03  0.211E-01    1.51       0.0  T
   2   -105.9307808 -0.499597E-04  0.126E-01    1.49       1.0  T
   3   -105.9305041  0.276683E-03  0.729E-02    1.52       1.0  T
   4   -105.9308359 -0.331845E-03  0.107E-02    1.50       1.1  T
   5   -105.9308435 -0.757101E-05  0.493E-03    1.50       2.3  T
   6   -105.9308445 -0.103838E-05  0.224E-03    1.50       5.1  T
   7   -105.9308448 -0.285205E-06  0.120E-03    1.50       9.6  T
   8   -105.9308449 -0.108908E-06  0.508E-04    1.50      22.6  T
   9   -105.9308449 -0.154392E-07  0.216E-04    1.50      53.1  T
     SCC iter.                  ...        0 min,  0.141 sec
     gradient                   ...        0 min,  0.020 sec
 * total energy  :  -104.4790304 Eh     change       -0.3278905E-01 Eh
   gradient norm :     0.0565586 Eh/α   predicted    -0.3698280E-01 (  12.79%)
   displ. norm   :     0.8710592 α      lambda       -0.3496204E-01
   maximum displ.:     0.3846816 α      in ANC's #56, #17, #19, ...

........................................................................
.............................. CYCLE   10 ..............................
........................................................................

 iter      E             dE          RMSdq      gap      omega  full diag
   1   -105.9914290 -0.105991E+03  0.215E-01    1.54       0.0  T
   2   -105.9914779 -0.489584E-04  0.128E-01    1.54       1.0  T
   3   -105.9913011  0.176865E-03  0.561E-02    1.54       1.0  T
   4   -105.9915128 -0.211759E-03  0.779E-03    1.54       1.5  T
   5   -105.9915145 -0.167948E-05  0.441E-03    1.54       2.6  T
   6   -105.9915154 -0.862967E-06  0.191E-03    1.54       6.0  T
   7   -105.9915155 -0.139318E-06  0.985E-04    1.54      11.7  T
   8   -105.9915156 -0.764837E-07  0.372E-04    1.54      30.8  T
     SCC iter.                  ...        0 min,  0.124 sec
     gradient                   ...        0 min,  0.020 sec
 * total energy  :  -104.5066812 Eh     change       -0.2765079E-01 Eh
   gradient norm :     0.0361344 Eh/α   predicted    -0.3074465E-01 (  11.19%)
   displ. norm   :     0.8746183 α      lambda       -0.2632155E-01
   maximum displ.:     0.3864686 α      in ANC's #19, #17, #18, ...

........................................................................
.............................. CYCLE   11 ..............................
........................................................................

 iter      E             dE          RMSdq      gap      omega  full diag
   1   -106.0466016 -0.106047E+03  0.190E-01    1.57       0.0  T
   2   -106.0466366 -0.350309E-04  0.114E-01    1.56       1.0  T
   3   -106.0464019  0.234715E-03  0.560E-02    1.58       1.0  T
   4   -106.0466520 -0.250138E-03  0.150E-02    1.56       1.0  T
   5   -106.0466741 -0.220096E-04  0.450E-03    1.57       2.6  T
   6   -106.0466747 -0.614641E-06  0.170E-03    1.57       6.7  T
   7   -106.0466748 -0.114417E-06  0.788E-04    1.57      14.6  T
   8   -106.0466748 -0.393457E-07  0.311E-04    1.57      36.9  T
     SCC iter.                  ...        0 min,  0.125 sec
     gradient                   ...        0 min,  0.020 sec
 * total energy  :  -104.5271100 Eh     change       -0.2042878E-01 Eh
   gradient norm :     0.0465575 Eh/α   predicted    -0.2322822E-01 (  13.70%)
   displ. norm   :     0.8550442 α      lambda       -0.2430977E-01
   maximum displ.:     0.4119276 α      in ANC's #17, #19, #18, ...

........................................................................
.............................. CYCLE   12 ..............................
........................................................................

 iter      E             dE          RMSdq      gap      omega  full diag
   1   -106.0992237 -0.106099E+03  0.181E-01    1.61       0.0  T
   2   -106.0992589 -0.352482E-04  0.108E-01    1.61       1.0  T
   3   -106.0990943  0.164589E-03  0.463E-02    1.61       1.0  T
   4   -106.0992744 -0.180094E-03  0.115E-02    1.61       1.0  T
   5   -106.0992866 -0.121438E-04  0.440E-03    1.61       2.6  T
   6   -106.0992874 -0.778986E-06  0.176E-03    1.61       6.5  T
   7   -106.0992875 -0.960110E-07  0.754E-04    1.61      15.2  T
   8   -106.0992875 -0.221833E-07  0.341E-04    1.61      33.7  T
     SCC iter.                  ...        0 min,  0.124 sec
     gradient                   ...        0 min,  0.021 sec
 * total energy  :  -104.5450113 Eh     change       -0.1790139E-01 Eh
   gradient norm :     0.0334118 Eh/α   predicted    -0.2104134E-01 (  17.54%)
   displ. norm   :     0.8222570 α      lambda       -0.1682577E-01
   maximum displ.:     0.3651614 α      in ANC's #19, #17, #18, ...

........................................................................
.............................. CYCLE   13 ..............................
........................................................................

 iter      E             dE          RMSdq      gap      omega  full diag
   1   -106.1281358 -0.106128E+03  0.154E-01    1.62       0.0  T
   2   -106.1281537 -0.178899E-04  0.912E-02    1.62       1.0  T
   3   -106.1280987  0.550267E-04  0.279E-02    1.63       1.0  T
   4   -106.1281598 -0.611439E-04  0.727E-03    1.62       1.6  T
   5   -106.1281624 -0.250669E-05  0.411E-03    1.62       2.8  T
   6   -106.1281636 -0.121156E-05  0.126E-03    1.62       9.1  T
   7   -106.1281637 -0.953855E-07  0.553E-04    1.62      20.8  T
   8   -106.1281637 -0.156637E-07  0.234E-04    1.62      49.0  T
     SCC iter.                  ...        0 min,  0.124 sec
     gradient                   ...        0 min,  0.020 sec
 * total energy  :  -104.5576104 Eh     change       -0.1259909E-01 Eh
   gradient norm :     0.0310494 Eh/α   predicted    -0.1410090E-01 (  11.92%)
   displ. norm   :     0.8206301 α      lambda       -0.1567093E-01
   maximum displ.:     0.3790311 α      in ANC's #19, #17, #15, ...

........................................................................
.............................. CYCLE   14 ..............................
........................................................................

 iter      E             dE          RMSdq      gap      omega  full diag
   1   -106.1498296 -0.106150E+03  0.187E-01    1.65       0.0  T
   2   -106.1498580 -0.283534E-04  0.111E-01    1.64       1.0  T
   3   -106.1498163  0.416512E-04  0.280E-02    1.65       1.0  T
   4   -106.1498661 -0.497198E-04  0.636E-03    1.64       1.8  T
   5   -106.1498671 -0.100472E-05  0.388E-03    1.65       3.0  T
   6   -106.1498680 -0.921117E-06  0.165E-03    1.65       6.9  T
   7   -106.1498682 -0.171963E-06  0.612E-04    1.65      18.8  T
   8   -106.1498682 -0.221268E-07  0.263E-04    1.65      43.6  T
     SCC iter.                  ...        0 min,  0.124 sec
     gradient                   ...        0 min,  0.020 sec
 * total energy  :  -104.5668554 Eh     change       -0.9245010E-02 Eh
   gradient norm :     0.0386856 Eh/α   predicted    -0.1311215E-01 (  41.83%)
   displ. norm   :     0.6932449 α      lambda       -0.1091535E-01
   maximum displ.:     0.2861422 α      in ANC's #19, #15, #17, ...

........................................................................
.............................. CYCLE   15 ..............................
........................................................................

 iter      E             dE          RMSdq      gap      omega  full diag
   1   -106.1745034 -0.106175E+03  0.163E-01    1.66       0.0  T
   2   -106.1745239 -0.205063E-04  0.959E-02    1.67       1.0  T
   3   -106.1744372  0.867567E-04  0.277E-02    1.66       1.0  T
   4   -106.1745316 -0.944549E-04  0.798E-03    1.67       1.4  T
   5   -106.1745357 -0.404345E-05  0.378E-03    1.67       3.0  T
   6   -106.1745362 -0.499828E-06  0.167E-03    1.67       6.9  T
   7   -106.1745363 -0.156069E-06  0.826E-04    1.67      13.9  T
   8   -106.1745364 -0.492226E-07  0.324E-04    1.67      35.4  T
     SCC iter.                  ...        0 min,  0.123 sec
     gradient                   ...        0 min,  0.020 sec
 * total energy  :  -104.5730598 Eh     change       -0.6204359E-02 Eh
   gradient norm :     0.0363347 Eh/α   predicted    -0.8080579E-02 (  30.24%)
   displ. norm   :     0.6517290 α      lambda       -0.8972951E-02
   maximum displ.:     0.3023188 α      in ANC's #15, #19, #17, ...

........................................................................
.............................. CYCLE   16 ..............................
........................................................................

 iter      E             dE          RMSdq      gap      omega  full diag
   1   -106.1792188 -0.106179E+03  0.163E-01    1.66       0.0  T
   2   -106.1792407 -0.219099E-04  0.957E-02    1.65       1.0  T
   3   -106.1790747  0.165937E-03  0.418E-02    1.67       1.0  T
   4   -106.1792591 -0.184317E-03  0.794E-03    1.66       1.4  T
   5   -106.1792619 -0.280562E-05  0.433E-03    1.66       2.6  T
   6   -106.1792628 -0.882387E-06  0.185E-03    1.66       6.2  T
   7   -106.1792630 -0.241661E-06  0.726E-04    1.66      15.8  T
   8   -106.1792630 -0.437525E-07  0.298E-04    1.66      38.4  T
     SCC iter.                  ...        0 min,  0.128 sec
     gradient                   ...        0 min,  0.021 sec
 * total energy  :  -104.5771674 Eh     change       -0.4107642E-02 Eh
   gradient norm :     0.0266120 Eh/α   predicted    -0.6392113E-02 (  55.62%)
   displ. norm   :     0.5364243 α      lambda       -0.4963371E-02
   maximum displ.:     0.2714797 α      in ANC's #15, #19, #22, ...

........................................................................
.............................. CYCLE   17 ..............................
........................................................................

 iter      E             dE          RMSdq      gap      omega  full diag
   1   -106.1857307 -0.106186E+03  0.138E-01    1.69       0.0  T
   2   -106.1857469 -0.162451E-04  0.809E-02    1.69       1.0  T
   3   -106.1857031  0.438392E-04  0.253E-02    1.69       1.0  T
   4   -106.1857547 -0.516429E-04  0.549E-03    1.68       2.1  T
   5   -106.1857552 -0.487662E-06  0.298E-03    1.68       3.8  T
   6   -106.1857559 -0.618904E-06  0.838E-04    1.68      13.7  T
   7   -106.1857559 -0.422266E-07  0.352E-04    1.68      32.6  T
     SCC iter.                  ...        0 min,  0.109 sec
     gradient                   ...        0 min,  0.020 sec
 * total energy  :  -104.5796029 Eh     change       -0.2435418E-02 Eh
   gradient norm :     0.0261923 Eh/α   predicted    -0.3195792E-02 (  31.22%)
   displ. norm   :     0.5107416 α      lambda       -0.4644635E-02
   maximum displ.:     0.2334212 α      in ANC's #15, #19, #22, ...

........................................................................
.............................. CYCLE   18 ..............................
........................................................................

 iter      E             dE          RMSdq      gap      omega  full diag
   1   -106.2019545 -0.106202E+03  0.135E-01    1.68       0.0  T
   2   -106.2019699 -0.154730E-04  0.803E-02    1.68       1.0  T
   3   -106.2018928  0.771689E-04  0.294E-02    1.68       1.0  T
   4   -106.2019753 -0.825493E-04  0.719E-03    1.68       1.6  T
   5   -106.2019795 -0.413312E-05  0.290E-03    1.68       4.0  T
   6   -106.2019799 -0.487995E-06  0.121E-03    1.68       9.5  T
   7   -106.2019800 -0.396673E-07  0.518E-04    1.68      22.1  T
   8   -106.2019800 -0.135204E-07  0.217E-04    1.68      53.0  T
     SCC iter.                  ...        0 min,  0.125 sec
     gradient                   ...        0 min,  0.020 sec
 * total energy  :  -104.5806294 Eh     change       -0.1026490E-02 Eh
   gradient norm :     0.0335593 Eh/α   predicted    -0.2928110E-02 ( 185.25%)
   displ. norm   :     0.2731289 α      lambda       -0.2939101E-02
   maximum displ.:     0.1306781 α      in ANC's #15, #12, #19, ...

........................................................................
.............................. CYCLE   19 ..............................
........................................................................

 iter      E             dE          RMSdq      gap      omega  full diag
   1   -106.2025527 -0.106203E+03  0.898E-02    1.68       0.0  T
   2   -106.2025606 -0.788357E-05  0.534E-02    1.68       1.0  T
   3   -106.2025381  0.224898E-04  0.167E-02    1.68       1.0  T
   4   -106.2025638 -0.257713E-04  0.373E-03    1.68       3.1  T
   5   -106.2025645 -0.641084E-06  0.184E-03    1.68       6.2  T
   6   -106.2025646 -0.128714E-06  0.842E-04    1.68      13.6  T
   7   -106.2025646 -0.275805E-07  0.469E-04    1.68      24.4  T
     SCC iter.                  ...        0 min,  0.108 sec
     gradient                   ...        0 min,  0.020 sec
 * total energy  :  -104.5821465 Eh     change       -0.1517100E-02 Eh
   gradient norm :     0.0153079 Eh/α   predicted    -0.1579183E-02 (   4.09%)
   displ. norm   :     0.3243593 α      lambda       -0.1922795E-02
   maximum displ.:     0.1281632 α      in ANC's #15, #12, #7, ...

........................................................................
.............................. CYCLE   20 ..............................
........................................................................

 iter      E             dE          RMSdq      gap      omega  full diag
   1   -106.1997057 -0.106200E+03  0.114E-01    1.69       0.0  T
   2   -106.1997133 -0.760998E-05  0.678E-02    1.69       1.0  T
   3   -106.1996229  0.903605E-04  0.288E-02    1.70       1.0  T
   4   -106.1997207 -0.977356E-04  0.523E-03    1.69       2.2  T
   5   -106.1997225 -0.180152E-05  0.231E-03    1.69       5.0  T
   6   -106.1997227 -0.232295E-06  0.109E-03    1.69      10.5  T
   7   -106.1997228 -0.779914E-07  0.483E-04    1.69      23.8  T
   8   -106.1997228 -0.159759E-07  0.178E-04    1.69      64.3  T
     SCC iter.                  ...        0 min,  0.126 sec
     gradient                   ...        0 min,  0.020 sec
 * total energy  :  -104.5822290 Eh     change       -0.8255581E-04 Eh
   gradient norm :     0.0250206 Eh/α   predicted    -0.1062547E-02 (1187.06%)
   displ. norm   :     0.2146700 α      lambda       -0.1815285E-02
   maximum displ.:     0.0631902 α      in ANC's #15, #59, #14, ...
 * RMSD in coord.:     1.2321992 α      energy gain  -0.1158227E+01 Eh

generating ANC from exact Hessian ...
Using Lindh-Hessian (1995)
 Shifting diagonal of input Hessian by    9.8610004461352034E-003
 Lowest  eigenvalues of input Hessian
    0.000000    0.000000    0.000000    0.000000    0.000000    0.000000
    0.010000    0.010129    0.010209    0.010326    0.010414    0.010523
    0.011097    0.011143    0.011413    0.011528    0.011667    0.012500
 Highest eigenvalues
    1.996652    2.030070    2.043340    2.100950    2.202269    2.208154


........................................................................
.............................. CYCLE   21 ..............................
........................................................................

 iter      E             dE          RMSdq      gap      omega  full diag
   1   -106.2028757 -0.106203E+03  0.860E-02    1.69       0.0  T
   2   -106.2028779 -0.213067E-05  0.509E-02    1.69       1.0  T
   3   -106.2027691  0.108742E-03  0.330E-02    1.69       1.0  T
   4   -106.2028892 -0.120048E-03  0.481E-03    1.69       2.4  T
   5   -106.2028905 -0.134719E-05  0.228E-03    1.69       5.0  T
   6   -106.2028908 -0.278564E-06  0.605E-04    1.69      19.0  T
   7   -106.2028908 -0.214119E-07  0.246E-04    1.69      46.7  T
     SCC iter.                  ...        0 min,  0.108 sec
     gradient                   ...        0 min,  0.020 sec
 * total energy  :  -104.5831738 Eh     change       -0.9448170E-03 Eh
   gradient norm :     0.0139133 Eh/α   predicted     0.0000000E+00 (-100.00%)
   displ. norm   :     0.1744838 α      lambda       -0.7901216E-03
   maximum displ.:     0.0640881 α      in ANC's #7, #18, #11, ...

........................................................................
.............................. CYCLE   22 ..............................
........................................................................

 iter      E             dE          RMSdq      gap      omega  full diag
   1   -106.2045863 -0.106205E+03  0.463E-02    1.69       0.0  T
   2   -106.2045885 -0.226635E-05  0.275E-02    1.69       1.0  T
   3   -106.2045799  0.862459E-05  0.100E-02    1.69       1.1  T
   4   -106.2045894 -0.949604E-05  0.253E-03    1.69       4.5  T
   5   -106.2045898 -0.362744E-06  0.129E-03    1.69       8.9  T
   6   -106.2045899 -0.787638E-07  0.624E-04    1.69      18.4  T
   7   -106.2045899 -0.159501E-07  0.308E-04    1.69      37.3  T
     SCC iter.                  ...        0 min,  0.108 sec
     gradient                   ...        0 min,  0.021 sec
 * total energy  :  -104.5837722 Eh     change       -0.5983438E-03 Eh
   gradient norm :     0.0053686 Eh/α   predicted    -0.4070913E-03 ( -31.96%)
   displ. norm   :     0.3449219 α      lambda       -0.7710565E-03
   maximum displ.:     0.1363042 α      in ANC's #7, #11, #6, ...

........................................................................
.............................. CYCLE   23 ..............................
........................................................................

 iter      E             dE          RMSdq      gap      omega  full diag
   1   -106.2044813 -0.106204E+03  0.649E-02    1.69       0.0  T
   2   -106.2044859 -0.464882E-05  0.390E-02    1.69       1.0  T
   3   -106.2044616  0.243610E-04  0.171E-02    1.69       1.0  T
   4   -106.2044888 -0.272817E-04  0.316E-03    1.69       3.6  T
   5   -106.2044893 -0.463441E-06  0.167E-03    1.69       6.9  T
   6   -106.2044894 -0.131310E-06  0.796E-04    1.69      14.4  T
   7   -106.2044895 -0.303658E-07  0.471E-04    1.69      24.3  T
     SCC iter.                  ...        0 min,  0.110 sec
     gradient                   ...        0 min,  0.021 sec
 * total energy  :  -104.5843265 Eh     change       -0.5543235E-03 Eh
   gradient norm :     0.0060758 Eh/α   predicted    -0.4314221E-03 ( -22.17%)
   displ. norm   :     0.3761027 α      lambda       -0.5060082E-03
   maximum displ.:     0.1551764 α      in ANC's #7, #6, #11, ...

........................................................................
.............................. CYCLE   24 ..............................
........................................................................

 iter      E             dE          RMSdq      gap      omega  full diag
   1   -106.2029684 -0.106203E+03  0.580E-02    1.70       0.0  T
   2   -106.2029710 -0.263535E-05  0.353E-02    1.69       1.0  T
   3   -106.2029396  0.314453E-04  0.189E-02    1.70       1.0  T
   4   -106.2029745 -0.349505E-04  0.278E-03    1.69       4.1  T
   5   -106.2029749 -0.385961E-06  0.165E-03    1.69       6.9  T
   6   -106.2029751 -0.181881E-06  0.737E-04    1.69      15.6  T
   7   -106.2029751 -0.304388E-07  0.340E-04    1.69      33.8  T
     SCC iter.                  ...        0 min,  0.109 sec
     gradient                   ...        0 min,  0.020 sec
 * total energy  :  -104.5847117 Eh     change       -0.3852255E-03 Eh
   gradient norm :     0.0092262 Eh/α   predicted    -0.2887928E-03 ( -25.03%)
   displ. norm   :     0.4021546 α      lambda       -0.4829383E-03
   maximum displ.:     0.1709330 α      in ANC's #6, #7, #8, ...

........................................................................
.............................. CYCLE   25 ..............................
........................................................................

 iter      E             dE          RMSdq      gap      omega  full diag
   1   -106.2023152 -0.106202E+03  0.557E-02    1.70       0.0  T
   2   -106.2023165 -0.124933E-05  0.338E-02    1.69       1.0  T
   3   -106.2022804  0.360625E-04  0.197E-02    1.70       1.0  T
   4   -106.2023202 -0.397560E-04  0.265E-03    1.70       4.3  T
   5   -106.2023207 -0.476700E-06  0.139E-03    1.70       8.3  T
   6   -106.2023208 -0.107208E-06  0.620E-04    1.70      18.5  T
   7   -106.2023208 -0.177536E-07  0.278E-04    1.70      41.3  T
     SCC iter.                  ...        0 min,  0.109 sec
     gradient                   ...        0 min,  0.020 sec
 * total energy  :  -104.5850903 Eh     change       -0.3785464E-03 Eh
   gradient norm :     0.0078749 Eh/α   predicted    -0.2805236E-03 ( -25.89%)
   displ. norm   :     0.4181027 α      lambda       -0.4379608E-03
   maximum displ.:     0.1951316 α      in ANC's #6, #7, #1, ...

........................................................................
.............................. CYCLE   26 ..............................
........................................................................

 iter      E             dE          RMSdq      gap      omega  full diag
   1   -106.2032561 -0.106203E+03  0.568E-02    1.70       0.0  T
   2   -106.2032571 -0.981896E-06  0.341E-02    1.70       1.0  T
   3   -106.2032188  0.382995E-04  0.196E-02    1.70       1.0  T
   4   -106.2032606 -0.418474E-04  0.273E-03    1.70       4.2  T
   5   -106.2032611 -0.434496E-06  0.146E-03    1.70       7.9  T
   6   -106.2032612 -0.121177E-06  0.551E-04    1.70      20.8  T
   7   -106.2032612 -0.130325E-07  0.277E-04    1.70      41.4  T
     SCC iter.                  ...        0 min,  0.124 sec
     gradient                   ...        0 min,  0.023 sec
 * total energy  :  -104.5854172 Eh     change       -0.3268993E-03 Eh
   gradient norm :     0.0041362 Eh/α   predicted    -0.2572617E-03 ( -21.30%)
   displ. norm   :     0.4364540 α      lambda       -0.2824817E-03
   maximum displ.:     0.2165209 α      in ANC's #6, #1, #7, ...

........................................................................
.............................. CYCLE   27 ..............................
........................................................................

 iter      E             dE          RMSdq      gap      omega  full diag
   1   -106.2036677 -0.106204E+03  0.593E-02    1.70       0.0  T
   2   -106.2036686 -0.858236E-06  0.355E-02    1.70       1.0  T
   3   -106.2036346  0.340234E-04  0.178E-02    1.70       1.0  T
   4   -106.2036714 -0.368308E-04  0.252E-03    1.70       4.6  T
   5   -106.2036716 -0.249340E-06  0.146E-03    1.70       7.8  T
   6   -106.2036718 -0.136096E-06  0.472E-04    1.70      24.3  T
   7   -106.2036718 -0.143603E-07  0.225E-04    1.70      51.1  T
     SCC iter.                  ...        0 min,  0.137 sec
     gradient                   ...        0 min,  0.033 sec
 * total energy  :  -104.5856269 Eh     change       -0.2097745E-03 Eh
   gradient norm :     0.0050528 Eh/α   predicted    -0.1681510E-03 ( -19.84%)
   displ. norm   :     0.3741846 α      lambda       -0.2560094E-03
   maximum displ.:     0.2020587 α      in ANC's #6, #1, #8, ...

........................................................................
.............................. CYCLE   28 ..............................
........................................................................

 iter      E             dE          RMSdq      gap      omega  full diag
   1   -106.2070749 -0.106207E+03  0.485E-02    1.70       0.0  T
   2   -106.2070760 -0.107912E-05  0.285E-02    1.70       1.0  T
   3   -106.2070637  0.123459E-04  0.106E-02    1.70       1.1  T
   4   -106.2070769 -0.132456E-04  0.250E-03    1.70       4.6  T
   5   -106.2070772 -0.264470E-06  0.123E-03    1.70       9.3  T
   6   -106.2070773 -0.853703E-07  0.410E-04    1.70      28.0  T
   7   -106.2070773 -0.761617E-08  0.232E-04    1.70      49.5  T
     SCC iter.                  ...        0 min,  0.144 sec
     gradient                   ...        0 min,  0.032 sec
 * total energy  :  -104.5857915 Eh     change       -0.1645979E-03 Eh
   gradient norm :     0.0055795 Eh/α   predicted    -0.1459290E-03 ( -11.34%)
   displ. norm   :     0.4345700 α      lambda       -0.2051326E-03
   maximum displ.:     0.2402880 α      in ANC's #6, #1, #8, ...

........................................................................
.............................. CYCLE   29 ..............................
........................................................................

 iter      E             dE          RMSdq      gap      omega  full diag
   1   -106.2071183 -0.106207E+03  0.573E-02    1.71       0.0  T
   2   -106.2071191 -0.857107E-06  0.341E-02    1.70       1.0  T
   3   -106.2071071  0.120385E-04  0.105E-02    1.71       1.1  T
   4   -106.2071201 -0.130543E-04  0.194E-03    1.71       5.9  T
   5   -106.2071202 -0.285163E-07  0.127E-03    1.71       9.0  T
   6   -106.2071203 -0.126151E-06  0.411E-04    1.71      27.9  T
   7   -106.2071203 -0.108384E-07  0.189E-04    1.71      60.8  T
     SCC iter.                  ...        0 min,  0.119 sec
     gradient                   ...        0 min,  0.022 sec
 * total energy  :  -104.5859393 Eh     change       -0.1477671E-03 Eh
   gradient norm :     0.0048346 Eh/α   predicted    -0.1219360E-03 ( -17.48%)
   displ. norm   :     0.2809299 α      lambda       -0.1554322E-03
   maximum displ.:     0.1661416 α      in ANC's #6, #1, #3, ...

........................................................................
.............................. CYCLE   30 ..............................
........................................................................

 iter      E             dE          RMSdq      gap      omega  full diag
   1   -106.2084078 -0.106208E+03  0.346E-02    1.71       0.0  T
   2   -106.2084083 -0.446948E-06  0.205E-02    1.71       1.0  T
   3   -106.2084072  0.111090E-05  0.365E-03    1.71       3.1  T
   4   -106.2084084 -0.127304E-05  0.104E-03    1.71      11.0  T
   5   -106.2084085 -0.333169E-07  0.509E-04    1.71      22.5  T
   6   -106.2084085 -0.118285E-07  0.234E-04    1.71      48.9  T
     SCC iter.                  ...        0 min,  0.100 sec
     gradient                   ...        0 min,  0.021 sec
 * total energy  :  -104.5860701 Eh     change       -0.1307849E-03 Eh
   gradient norm :     0.0029474 Eh/α   predicted    -0.8385285E-04 ( -35.88%)
   displ. norm   :     0.3861621 α      lambda       -0.2045694E-03
   maximum displ.:     0.2315685 α      in ANC's #6, #1, #3, ...

........................................................................
.............................. CYCLE   31 ..............................
........................................................................

 iter      E             dE          RMSdq      gap      omega  full diag
   1   -106.2090809 -0.106209E+03  0.463E-02    1.71       0.0  T
   2   -106.2090818 -0.809666E-06  0.275E-02    1.71       1.0  T
   3   -106.2090797  0.201120E-05  0.483E-03    1.71       2.4  T
   4   -106.2090821 -0.233922E-05  0.125E-03    1.71       9.2  T
   5   -106.2090821 -0.374771E-07  0.760E-04    1.71      15.1  T
   6   -106.2090821 -0.236128E-07  0.372E-04    1.71      30.8  T
     SCC iter.                  ...        0 min,  0.098 sec
     gradient                   ...        0 min,  0.025 sec
 * total energy  :  -104.5862330 Eh     change       -0.1628972E-03 Eh
   gradient norm :     0.0028644 Eh/α   predicted    -0.1175377E-03 ( -27.85%)
   displ. norm   :     0.4367134 α      lambda       -0.1748736E-03
   maximum displ.:     0.2641741 α      in ANC's #6, #1, #3, ...

........................................................................
.............................. CYCLE   32 ..............................
........................................................................

 iter      E             dE          RMSdq      gap      omega  full diag
   1   -106.2080679 -0.106208E+03  0.510E-02    1.71       0.0  T
   2   -106.2080688 -0.917375E-06  0.303E-02    1.71       1.0  T
   3   -106.2080667  0.212836E-05  0.530E-03    1.71       2.2  T
   4   -106.2080692 -0.251706E-05  0.139E-03    1.71       8.3  T
   5   -106.2080692 -0.285570E-07  0.763E-04    1.71      15.0  T
   6   -106.2080692 -0.251754E-07  0.368E-04    1.71      31.2  T
     SCC iter.                  ...        0 min,  0.098 sec
     gradient                   ...        0 min,  0.020 sec
 * total energy  :  -104.5863772 Eh     change       -0.1442572E-03 Eh
   gradient norm :     0.0038134 Eh/α   predicted    -0.1041137E-03 ( -27.83%)
   displ. norm   :     0.3871220 α      lambda       -0.1542721E-03
   maximum displ.:     0.2282950 α      in ANC's #6, #1, #3, ...

........................................................................
.............................. CYCLE   33 ..............................
........................................................................

 iter      E             dE          RMSdq      gap      omega  full diag
   1   -106.2072414 -0.106207E+03  0.443E-02    1.71       0.0  T
   2   -106.2072422 -0.754224E-06  0.262E-02    1.71       1.0  T
   3   -106.2072378  0.436371E-05  0.711E-03    1.71       1.6  T
   4   -106.2072425 -0.473153E-05  0.174E-03    1.71       6.6  T
   5   -106.2072426 -0.971902E-07  0.101E-03    1.71      11.3  T
   6   -106.2072427 -0.891743E-07  0.345E-04    1.71      33.2  T
   7   -106.2072427 -0.404361E-08  0.186E-04    1.71      61.5  T
     SCC iter.                  ...        0 min,  0.110 sec
     gradient                   ...        0 min,  0.020 sec
 * total energy  :  -104.5865079 Eh     change       -0.1306587E-03 Eh
   gradient norm :     0.0044041 Eh/α   predicted    -0.8870163E-04 ( -32.11%)
   displ. norm   :     0.4187566 α      lambda       -0.1648950E-03
   maximum displ.:     0.2441030 α      in ANC's #6, #1, #3, ...

........................................................................
.............................. CYCLE   34 ..............................
........................................................................

 iter      E             dE          RMSdq      gap      omega  full diag
   1   -106.2061068 -0.106206E+03  0.474E-02    1.71       0.0  T
   2   -106.2061076 -0.790544E-06  0.280E-02    1.71       1.0  T
   3   -106.2060986  0.903954E-05  0.982E-03    1.71       1.2  T
   4   -106.2061084 -0.979860E-05  0.198E-03    1.71       5.8  T
   5   -106.2061085 -0.872289E-07  0.123E-03    1.71       9.3  T
   6   -106.2061086 -0.136548E-06  0.354E-04    1.71      32.4  T
   7   -106.2061086 -0.400898E-08  0.209E-04    1.71      55.0  T
     SCC iter.                  ...        0 min,  0.108 sec
     gradient                   ...        0 min,  0.020 sec
 * total energy  :  -104.5866459 Eh     change       -0.1379617E-03 Eh
   gradient norm :     0.0036241 Eh/α   predicted    -0.9690576E-04 ( -29.76%)
   displ. norm   :     0.4480061 α      lambda       -0.1659070E-03
   maximum displ.:     0.2565856 α      in ANC's #1, #6, #3, ...

........................................................................
.............................. CYCLE   35 ..............................
........................................................................

 iter      E             dE          RMSdq      gap      omega  full diag
   1   -106.2054346 -0.106205E+03  0.525E-02    1.70       0.0  T
   2   -106.2054356 -0.107694E-05  0.310E-02    1.71       1.0  T
   3   -106.2054179  0.177776E-04  0.134E-02    1.70       1.0  T
   4   -106.2054373 -0.193962E-04  0.239E-03    1.71       4.8  T
   5   -106.2054374 -0.113307E-06  0.151E-03    1.71       7.6  T
   6   -106.2054376 -0.187640E-06  0.453E-04    1.71      25.3  T
   7   -106.2054376 -0.970113E-08  0.249E-04    1.71      46.1  T
     SCC iter.                  ...        0 min,  0.108 sec
     gradient                   ...        0 min,  0.020 sec
 * total energy  :  -104.5867735 Eh     change       -0.1276645E-03 Eh
   gradient norm :     0.0033562 Eh/α   predicted    -0.9960551E-04 ( -21.98%)
   displ. norm   :     0.3805544 α      lambda       -0.1088787E-03
   maximum displ.:     0.2263921 α      in ANC's #1, #6, #3, ...

........................................................................
.............................. CYCLE   36 ..............................
........................................................................

 iter      E             dE          RMSdq      gap      omega  full diag
   1   -106.2053061 -0.106205E+03  0.434E-02    1.70       0.0  T
   2   -106.2053071 -0.999227E-06  0.257E-02    1.71       1.0  T
   3   -106.2052955  0.116179E-04  0.108E-02    1.70       1.1  T
   4   -106.2053082 -0.126523E-04  0.202E-03    1.70       5.7  T
   5   -106.2053083 -0.102275E-06  0.123E-03    1.70       9.3  T
   6   -106.2053084 -0.124546E-06  0.440E-04    1.70      26.1  T
   7   -106.2053084 -0.988915E-08  0.212E-04    1.70      54.0  T
     SCC iter.                  ...        0 min,  0.109 sec
     gradient                   ...        0 min,  0.020 sec
 * total energy  :  -104.5868535 Eh     change       -0.7995189E-04 Eh
   gradient norm :     0.0023878 Eh/α   predicted    -0.6232781E-04 ( -22.04%)
   displ. norm   :     0.2587805 α      lambda       -0.6708766E-04
   maximum displ.:     0.1577328 α      in ANC's #1, #6, #3, ...

........................................................................
.............................. CYCLE   37 ..............................
........................................................................

 iter      E             dE          RMSdq      gap      omega  full diag
   1   -106.2067947 -0.106207E+03  0.325E-02    1.70       0.0  T
   2   -106.2067952 -0.428756E-06  0.192E-02    1.70       1.0  T
   3   -106.2067880  0.719685E-05  0.813E-03    1.70       1.4  T
   4   -106.2067958 -0.783151E-05  0.152E-03    1.70       7.5  T
   5   -106.2067958 -0.542297E-07  0.894E-04    1.70      12.8  T
   6   -106.2067959 -0.601371E-07  0.325E-04    1.70      35.3  T
     SCC iter.                  ...        0 min,  0.093 sec
     gradient                   ...        0 min,  0.020 sec
 * total energy  :  -104.5869008 Eh     change       -0.4728358E-04 Eh
   gradient norm :     0.0020810 Eh/α   predicted    -0.3579385E-04 ( -24.30%)
   displ. norm   :     0.2332245 α      lambda       -0.4691890E-04
   maximum displ.:     0.1479677 α      in ANC's #1, #6, #3, ...

........................................................................
.............................. CYCLE   38 ..............................
........................................................................

 iter      E             dE          RMSdq      gap      omega  full diag
   1   -106.2074100 -0.106207E+03  0.267E-02    1.70       0.0  T
   2   -106.2074103 -0.391521E-06  0.158E-02    1.70       1.0  T
   3   -106.2074080  0.229711E-05  0.487E-03    1.70       2.4  T
   4   -106.2074105 -0.246845E-05  0.123E-03    1.70       9.3  T
   5   -106.2074106 -0.813437E-07  0.621E-04    1.70      18.5  T
   6   -106.2074106 -0.269253E-07  0.253E-04    1.70      45.4  T
     SCC iter.                  ...        0 min,  0.093 sec
     gradient                   ...        0 min,  0.020 sec
 * total energy  :  -104.5869364 Eh     change       -0.3563863E-04 Eh
   gradient norm :     0.0015248 Eh/α   predicted    -0.2473596E-04 ( -30.59%)
   displ. norm   :     0.2543164 α      lambda       -0.3864880E-04
   maximum displ.:     0.1643666 α      in ANC's #1, #6, #3, ...

........................................................................
.............................. CYCLE   39 ..............................
........................................................................

 iter      E             dE          RMSdq      gap      omega  full diag
   1   -106.2090114 -0.106209E+03  0.310E-02    1.70       0.0  T
   2   -106.2090119 -0.507806E-06  0.184E-02    1.71       1.0  T
   3   -106.2090091  0.275981E-05  0.581E-03    1.70       2.0  T
   4   -106.2090121 -0.301560E-05  0.133E-03    1.71       8.6  T
   5   -106.2090122 -0.100524E-06  0.671E-04    1.70      17.1  T
   6   -106.2090122 -0.256955E-07  0.274E-04    1.70      41.8  T
     SCC iter.                  ...        0 min,  0.097 sec
     gradient                   ...        0 min,  0.020 sec
 * total energy  :  -104.5869788 Eh     change       -0.4241105E-04 Eh
   gradient norm :     0.0019847 Eh/α   predicted    -0.1988348E-04 ( -53.12%)
   displ. norm   :     0.2469083 α      lambda       -0.3544564E-04
   maximum displ.:     0.1589760 α      in ANC's #1, #3, #11, ...

........................................................................
.............................. CYCLE   40 ..............................
........................................................................

 iter      E             dE          RMSdq      gap      omega  full diag
   1   -106.2085186 -0.106209E+03  0.303E-02    1.70       0.0  T
   2   -106.2085189 -0.324932E-06  0.180E-02    1.71       1.0  T
   3   -106.2085169  0.199001E-05  0.431E-03    1.70       2.7  T
   4   -106.2085191 -0.222111E-05  0.880E-04    1.71      13.0  T
   5   -106.2085191 -0.194985E-07  0.496E-04    1.70      23.1  T
   6   -106.2085191 -0.125210E-07  0.196E-04    1.71      58.5  T
     SCC iter.                  ...        0 min,  0.096 sec
     gradient                   ...        0 min,  0.020 sec
 * total energy  :  -104.5870215 Eh     change       -0.4269026E-04 Eh
   gradient norm :     0.0020671 Eh/α   predicted    -0.1820794E-04 ( -57.35%)
   displ. norm   :     0.2040834 α      lambda       -0.5243767E-04
   maximum displ.:     0.1271578 α      in ANC's #1, #11, #3, ...

........................................................................
.............................. CYCLE   41 ..............................
........................................................................

 iter      E             dE          RMSdq      gap      omega  full diag
   1   -106.2093402 -0.106209E+03  0.260E-02    1.70       0.0  T
   2   -106.2093403 -0.187428E-06  0.155E-02    1.71       1.0  T
   3   -106.2093391  0.120859E-05  0.334E-03    1.70       3.4  T
   4   -106.2093405 -0.134992E-05  0.729E-04    1.71      15.7  T
   5   -106.2093405 -0.100474E-07  0.376E-04    1.70      30.5  T
   6   -106.2093405 -0.633524E-08  0.169E-04    1.71      67.7  T
     SCC iter.                  ...        0 min,  0.093 sec
     gradient                   ...        0 min,  0.020 sec
 * total energy  :  -104.5870652 Eh     change       -0.4373706E-04 Eh
   gradient norm :     0.0022544 Eh/α   predicted    -0.2731232E-04 ( -37.55%)
   displ. norm   :     0.3581175 α      lambda       -0.8203219E-04
   maximum displ.:     0.2188908 α      in ANC's #1, #11, #3, ...

........................................................................
.............................. CYCLE   42 ..............................
........................................................................

 iter      E             dE          RMSdq      gap      omega  full diag
   1   -106.2085838 -0.106209E+03  0.458E-02    1.70       0.0  T
   2   -106.2085844 -0.609750E-06  0.274E-02    1.71       1.0  T
   3   -106.2085769  0.752315E-05  0.836E-03    1.70       1.4  T
   4   -106.2085852 -0.829230E-05  0.137E-03    1.70       8.4  T
   5   -106.2085852 -0.250393E-07  0.767E-04    1.70      15.0  T
   6   -106.2085853 -0.269892E-07  0.309E-04    1.70      37.1  T
     SCC iter.                  ...        0 min,  0.093 sec
     gradient                   ...        0 min,  0.020 sec
 * total energy  :  -104.5871314 Eh     change       -0.6613410E-04 Eh
   gradient norm :     0.0027147 Eh/α   predicted    -0.4627790E-04 ( -30.02%)
   displ. norm   :     0.4102773 α      lambda       -0.8520086E-04
   maximum displ.:     0.2470155 α      in ANC's #1, #11, #3, ...
 * RMSD in coord.:     0.7198716 α      energy gain  -0.4902366E-02 Eh

generating ANC from exact Hessian ...
Using Lindh-Hessian (1995)
 Shifting diagonal of input Hessian by    9.8520963658578539E-003
 Lowest  eigenvalues of input Hessian
    0.000000    0.000000    0.000000    0.000000    0.000000    0.000000
    0.010000    0.010119    0.010192    0.010314    0.010413    0.010529
    0.010961    0.011146    0.011367    0.011565    0.011604    0.012643
 Highest eigenvalues
    1.996018    2.029150    2.051886    2.110937    2.203154    2.208138


........................................................................
.............................. CYCLE   43 ..............................
........................................................................

 iter      E             dE          RMSdq      gap      omega  full diag
   1   -106.2075610 -0.106208E+03  0.513E-02    1.70       0.0  T
   2   -106.2075619 -0.893918E-06  0.309E-02    1.70       1.0  T
   3   -106.2075503  0.115974E-04  0.105E-02    1.70       1.1  T
   4   -106.2075630 -0.127567E-04  0.165E-03    1.70       7.0  T
   5   -106.2075631 -0.523703E-07  0.964E-04    1.70      11.9  T
   6   -106.2075631 -0.394437E-07  0.406E-04    1.70      28.2  T
     SCC iter.                  ...        0 min,  0.093 sec
     gradient                   ...        0 min,  0.020 sec
 * total energy  :  -104.5871983 Eh     change       -0.6696402E-04 Eh
   gradient norm :     0.0034749 Eh/α   predicted     0.0000000E+00 (-100.00%)
   displ. norm   :     0.0420923 α      lambda       -0.1207301E-04
   maximum displ.:     0.0171642 α      in ANC's #11, #12, #28, ...

........................................................................
.............................. CYCLE   44 ..............................
........................................................................

 iter      E             dE          RMSdq      gap      omega  full diag
   1   -106.2080405 -0.106208E+03  0.106E-02    1.70       0.0  T
   2   -106.2080406 -0.462414E-07  0.638E-03    1.70       1.8  T
   3   -106.2080393  0.132773E-05  0.346E-03    1.70       3.3  T
   4   -106.2080407 -0.143844E-05  0.491E-04    1.70      23.4  T
   5   -106.2080407 -0.997606E-08  0.274E-04    1.70      41.8  T
   6   -106.2080407 -0.273592E-08  0.141E-04    1.70      81.4  T
     SCC iter.                  ...        0 min,  0.093 sec
     gradient                   ...        0 min,  0.020 sec
 * total energy  :  -104.5872355 Eh     change       -0.3714309E-04 Eh
   gradient norm :     0.0015620 Eh/α   predicted    -0.2299319E-04 ( -38.10%)
   displ. norm   :     0.1865890 α      lambda       -0.7746198E-04
   maximum displ.:     0.0892739 α      in ANC's #11, #2, #28, ...

........................................................................
.............................. CYCLE   45 ..............................
........................................................................

 iter      E             dE          RMSdq      gap      omega  full diag
   1   -106.2087519 -0.106209E+03  0.411E-02    1.70       0.0  T
   2   -106.2087523 -0.483665E-06  0.247E-02    1.70       1.0  T
   3   -106.2087394  0.129134E-04  0.108E-02    1.70       1.1  T
   4   -106.2087534 -0.139412E-04  0.154E-03    1.70       7.4  T
   5   -106.2087535 -0.865615E-07  0.907E-04    1.70      12.7  T
   6   -106.2087535 -0.357465E-07  0.422E-04    1.70      27.2  T
     SCC iter.                  ...        0 min,  0.094 sec
     gradient                   ...        0 min,  0.020 sec
 * total energy  :  -104.5872972 Eh     change       -0.6170316E-04 Eh
   gradient norm :     0.0034574 Eh/α   predicted    -0.3933163E-04 ( -36.26%)
   displ. norm   :     0.0812343 α      lambda       -0.3386740E-04
   maximum displ.:     0.0486664 α      in ANC's #11, #2, #6, ...

........................................................................
.............................. CYCLE   46 ..............................
........................................................................

 iter      E             dE          RMSdq      gap      omega  full diag
   1   -106.2086448 -0.106209E+03  0.149E-02    1.70       0.0  T
   2   -106.2086449 -0.515326E-07  0.900E-03    1.70       1.3  T
   3   -106.2086439  0.920684E-06  0.294E-03    1.70       3.9  T
   4   -106.2086449 -0.100075E-05  0.459E-04    1.70      25.0  T
   5   -106.2086449 -0.340165E-08  0.300E-04    1.70      38.3  T
   6   -106.2086450 -0.496908E-08  0.107E-04    1.70     106.9  T
     SCC iter.                  ...        0 min,  0.093 sec
     gradient                   ...        0 min,  0.021 sec
 * total energy  :  -104.5873295 Eh     change       -0.3233826E-04 Eh
   gradient norm :     0.0028671 Eh/α   predicted    -0.1731683E-04 ( -46.45%)
   displ. norm   :     0.2600564 α      lambda       -0.1126753E-03
   maximum displ.:     0.1505056 α      in ANC's #11, #6, #2, ...

........................................................................
.............................. CYCLE   47 ..............................
........................................................................

 iter      E             dE          RMSdq      gap      omega  full diag
   1   -106.2078066 -0.106208E+03  0.444E-02    1.70       0.0  T
   2   -106.2078072 -0.581710E-06  0.270E-02    1.70       1.0  T
   3   -106.2078001  0.707265E-05  0.800E-03    1.70       1.4  T
   4   -106.2078079 -0.780147E-05  0.126E-03    1.70       9.1  T
   5   -106.2078079  0.772974E-08  0.810E-04    1.70      14.2  T
   6   -106.2078080 -0.450761E-07  0.320E-04    1.70      35.8  T
     SCC iter.                  ...        0 min,  0.093 sec
     gradient                   ...        0 min,  0.020 sec
 * total energy  :  -104.5874177 Eh     change       -0.8820892E-04 Eh
   gradient norm :     0.0022395 Eh/α   predicted    -0.6014844E-04 ( -31.81%)
   displ. norm   :     0.2648406 α      lambda       -0.7859451E-04
   maximum displ.:     0.1549918 α      in ANC's #11, #6, #2, ...

........................................................................
.............................. CYCLE   48 ..............................
........................................................................

 iter      E             dE          RMSdq      gap      omega  full diag
   1   -106.2068753 -0.106207E+03  0.421E-02    1.70       0.0  T
   2   -106.2068758 -0.564188E-06  0.256E-02    1.70       1.0  T
   3   -106.2068713  0.454956E-05  0.640E-03    1.70       1.8  T
   4   -106.2068763 -0.507678E-05  0.120E-03    1.70       9.5  T
   5   -106.2068763 -0.283887E-08  0.732E-04    1.70      15.7  T
   6   -106.2068764 -0.350671E-07  0.294E-04    1.70      39.0  T
     SCC iter.                  ...        0 min,  0.092 sec
     gradient                   ...        0 min,  0.021 sec
 * total energy  :  -104.5874719 Eh     change       -0.5418522E-04 Eh
   gradient norm :     0.0050823 Eh/α   predicted    -0.4205862E-04 ( -22.38%)
   displ. norm   :     0.1597466 α      lambda       -0.5771626E-04
   maximum displ.:     0.0944519 α      in ANC's #11, #6, #2, ...

........................................................................
.............................. CYCLE   49 ..............................
........................................................................

 iter      E             dE          RMSdq      gap      omega  full diag
   1   -106.2070319 -0.106207E+03  0.226E-02    1.70       0.0  T
   2   -106.2070321 -0.194885E-06  0.137E-02    1.70       1.0  T
   3   -106.2070314  0.637575E-06  0.277E-03    1.70       4.1  T
   4   -106.2070322 -0.749570E-06  0.622E-04    1.70      18.5  T
   5   -106.2070322 -0.450370E-08  0.350E-04    1.70      32.8  T
     SCC iter.                  ...        0 min,  0.077 sec
     gradient                   ...        0 min,  0.024 sec
 * total energy  :  -104.5875223 Eh     change       -0.5037036E-04 Eh
   gradient norm :     0.0053317 Eh/α   predicted    -0.2959732E-04 ( -41.24%)
   displ. norm   :     0.3499758 α      lambda       -0.1587250E-03
   maximum displ.:     0.2081869 α      in ANC's #11, #6, #2, ...

........................................................................
.............................. CYCLE   50 ..............................
........................................................................

 iter      E             dE          RMSdq      gap      omega  full diag
   1   -106.2077271 -0.106208E+03  0.495E-02    1.70       0.0  T
   2   -106.2077281 -0.107517E-05  0.300E-02    1.70       1.0  T
   3   -106.2077240  0.415479E-05  0.757E-03    1.70       1.5  T
   4   -106.2077288 -0.481375E-05  0.141E-03    1.70       8.1  T
   5   -106.2077288 -0.249946E-07  0.870E-04    1.70      13.2  T
   6   -106.2077289 -0.302412E-07  0.402E-04    1.70      28.5  T
     SCC iter.                  ...        0 min,  0.093 sec
     gradient                   ...        0 min,  0.020 sec
 * total energy  :  -104.5876436 Eh     change       -0.1213475E-03 Eh
   gradient norm :     0.0044526 Eh/α   predicted    -0.8908328E-04 ( -26.59%)
   displ. norm   :     0.4014320 α      lambda       -0.1355189E-03
   maximum displ.:     0.2415380 α      in ANC's #11, #6, #2, ...

........................................................................
.............................. CYCLE   51 ..............................
........................................................................

 iter      E             dE          RMSdq      gap      omega  full diag
   1   -106.2073362 -0.106207E+03  0.601E-02    1.70       0.0  T
   2   -106.2073379 -0.166604E-05  0.365E-02    1.70       1.0  T
   3   -106.2073313  0.656197E-05  0.911E-03    1.70       1.3  T
   4   -106.2073389 -0.759415E-05  0.170E-03    1.70       6.7  T
   5   -106.2073390 -0.647487E-07  0.104E-03    1.70      11.1  T
   6   -106.2073390 -0.535526E-07  0.336E-04    1.70      34.1  T
   7   -106.2073390 -0.457506E-08  0.183E-04    1.70      62.7  T
     SCC iter.                  ...        0 min,  0.111 sec
     gradient                   ...        0 min,  0.023 sec
 * total energy  :  -104.5877431 Eh     change       -0.9944906E-04 Eh
   gradient norm :     0.0052760 Eh/α   predicted    -0.7868219E-04 ( -20.88%)
   displ. norm   :     0.2976640 α      lambda       -0.1582218E-03
   maximum displ.:     0.1707450 α      in ANC's #11, #6, #2, ...

........................................................................
.............................. CYCLE   52 ..............................
........................................................................

 iter      E             dE          RMSdq      gap      omega  full diag
   1   -106.2094826 -0.106209E+03  0.460E-02    1.70       0.0  T
   2   -106.2094847 -0.208505E-05  0.278E-02    1.70       1.0  T
   3   -106.2094797  0.499307E-05  0.910E-03    1.70       1.3  T
   4   -106.2094856 -0.591689E-05  0.167E-03    1.70       6.9  T
   5   -106.2094857 -0.705370E-07  0.896E-04    1.70      12.8  T
   6   -106.2094857 -0.329955E-07  0.378E-04    1.70      30.4  T
     SCC iter.                  ...        0 min,  0.094 sec
     gradient                   ...        0 min,  0.020 sec
 * total energy  :  -104.5878309 Eh     change       -0.8776782E-04 Eh
   gradient norm :     0.0036218 Eh/α   predicted    -0.8612507E-04 (  -1.87%)
   displ. norm   :     0.4161786 α      lambda       -0.1189489E-03
   maximum displ.:     0.2530690 α      in ANC's #11, #6, #2, ...

........................................................................
.............................. CYCLE   53 ..............................
........................................................................

 iter      E             dE          RMSdq      gap      omega  full diag
   1   -106.2076264 -0.106208E+03  0.657E-02    1.70       0.0  T
   2   -106.2076291 -0.262313E-05  0.400E-02    1.70       1.0  T
   3   -106.2076135  0.156104E-04  0.125E-02    1.70       1.0  T
   4   -106.2076306 -0.171632E-04  0.293E-03    1.70       3.9  T
   5   -106.2076311 -0.519683E-06  0.155E-03    1.70       7.4  T
   6   -106.2076312 -0.821896E-07  0.712E-04    1.70      16.1  T
   7   -106.2076312 -0.317951E-07  0.278E-04    1.70      41.2  T
     SCC iter.                  ...        0 min,  0.108 sec
     gradient                   ...        0 min,  0.020 sec
 * total energy  :  -104.5878645 Eh     change       -0.3360072E-04 Eh
   gradient norm :     0.0059035 Eh/α   predicted    -0.6978757E-04 ( 107.70%)
   displ. norm   :     0.1358474 α      lambda       -0.1079097E-03
   maximum displ.:     0.0755541 α      in ANC's #11, #6, #2, ...

........................................................................
.............................. CYCLE   54 ..............................
........................................................................

 iter      E             dE          RMSdq      gap      omega  full diag
   1   -106.2091614 -0.106209E+03  0.201E-02    1.70       0.0  T
   2   -106.2091618 -0.382747E-06  0.121E-02    1.70       1.0  T
   3   -106.2091610  0.798982E-06  0.358E-03    1.70       3.2  T
   4   -106.2091620 -0.951940E-06  0.943E-04    1.70      12.2  T
   5   -106.2091620 -0.321748E-07  0.594E-04    1.70      19.3  T
     SCC iter.                  ...        0 min,  0.079 sec
     gradient                   ...        0 min,  0.020 sec
 * total energy  :  -104.5879292 Eh     change       -0.6478857E-04 Eh
   gradient norm :     0.0014775 Eh/α   predicted    -0.5495924E-04 ( -15.17%)
   displ. norm   :     0.1661102 α      lambda       -0.4492257E-04
   maximum displ.:     0.0785204 α      in ANC's #11, #3, #28, ...

........................................................................
.............................. CYCLE   55 ..............................
........................................................................

 iter      E             dE          RMSdq      gap      omega  full diag
   1   -106.2097965 -0.106210E+03  0.271E-02    1.70       0.0  T
   2   -106.2097971 -0.616416E-06  0.164E-02    1.70       1.0  T
   3   -106.2097925  0.458426E-05  0.650E-03    1.70       1.8  T
   4   -106.2097975 -0.494047E-05  0.153E-03    1.70       7.5  T
   5   -106.2097976 -0.144679E-06  0.755E-04    1.70      15.2  T
   6   -106.2097977 -0.228384E-07  0.339E-04    1.70      33.8  T
     SCC iter.                  ...        0 min,  0.093 sec
     gradient                   ...        0 min,  0.020 sec
 * total energy  :  -104.5879689 Eh     change       -0.3961744E-04 Eh
   gradient norm :     0.0018942 Eh/α   predicted    -0.2276019E-04 ( -42.55%)
   displ. norm   :     0.1327374 α      lambda       -0.2168676E-04
   maximum displ.:     0.0734536 α      in ANC's #11, #3, #28, ...

........................................................................
.............................. CYCLE   56 ..............................
[...]
    80   6 C       86   7 N                                       1.3343432
    85   6 C       86   7 N                                       1.3350819
    83   6 C       87   6 C                                       1.4285231
    87   6 C       88   6 C                                       1.4298550
    88   6 C       89   7 N                                       1.3362422
    84   6 C       90   6 C                                       1.4208203
    89   7 N       90   6 C                                       1.3329265
    90   6 C       91   6 C                                       1.4115700
    91   6 C       92   6 C                                       1.3858092
    85   6 C       93   6 C                                       1.4059040
    92   6 C       93   6 C                                       1.3918101
    87   6 C       94   6 C                                       1.4168869
    94   6 C       95   6 C                                       1.3804663
    95   6 C       96   6 C                                       1.4054402
    88   6 C       97   6 C                                       1.4111693
    96   6 C       97   6 C                                       1.3722341
    94   6 C       98   8 O                                       1.3602864
    78   6 C       99   8 O                                       1.3626716
   101   6 C      103   6 C                                       1.5313896
   101   6 C      104   6 C                                       1.5353001
   101   6 C      105   6 C                                       1.5347342
   102   6 C      106   6 C                                       1.5349495
   102   6 C      107   6 C                                       1.5348122
   102   6 C      108   6 C                                       1.5306231
   100   6 C      109   6 C                                       1.5387279 (max)
   100   6 C      110   6 C                                       1.5305620
   100   6 C      111   6 C                                       1.5338336
    81   6 C      112   1 H                                       1.0763484
    77   6 C      113   1 H                                       1.0776017
    93   6 C      114   1 H                                       1.0776989
    91   6 C      115   1 H                                       1.0762219
    97   6 C      116   1 H                                       1.0773118
    95   6 C      117   1 H                                       1.0753991 (min)
    98   8 O      118   6 C                                       1.4026009
    99   8 O      119   6 C                                       1.4111567
   111   6 C      120   1 H                                       1.0864495
   111   6 C      121   1 H                                       1.0880621
   111   6 C      122   1 H                                       1.0867433
   110   6 C      123   1 H                                       1.0872998
   110   6 C      124   1 H                                       1.0857655
   110   6 C      125   1 H                                       1.0885277
   109   6 C      126   1 H                                       1.0882606
   109   6 C      127   1 H                                       1.0881199
   109   6 C      128   1 H                                       1.0873948
   106   6 C      129   1 H                                       1.0863919
   106   6 C      130   1 H                                       1.0883849
   106   6 C      131   1 H                                       1.0879582
   108   6 C      132   1 H                                       1.0873829
   108   6 C      133   1 H                                       1.0872805
   108   6 C      134   1 H                                       1.0882663
   107   6 C      135   1 H                                       1.0861824
   107   6 C      136   1 H                                       1.0880172
   107   6 C      137   1 H                                       1.0879744
   105   6 C      138   1 H                                       1.0881055
   105   6 C      139   1 H                                       1.0859729
   105   6 C      140   1 H                                       1.0880409
   104   6 C      141   1 H                                       1.0881665
   104   6 C      142   1 H                                       1.0880041
   104   6 C      143   1 H                                       1.0858340
   103   6 C      144   1 H                                       1.0878785
   103   6 C      145   1 H                                       1.0877925
   103   6 C      146   1 H                                       1.0881893
   119   6 C      147   1 H                                       1.0908306
   119   6 C      148   1 H                                       1.0935239
   119   6 C      149   1 H                                       1.0915044
   118   6 C      150   1 H                                       1.0890375
   118   6 C      151   1 H                                       1.0955492
   118   6 C      152   1 H                                       1.0947495

 * 4 distinct bonds (by element types)

   Z      Z             #   av. dist./Å        max./Å        min./Å
   1 H    6 C          78     1.0866867     1.0967657     1.0753991
   6 C    6 C          60     1.4442891     1.5387279     1.3698748
   6 C    7 N           8     1.3351084     1.3370693     1.3329265
   6 C    8 O           8     1.3866622     1.4111567     1.3581973


optimized geometry written to: xtbopt.mol


           -------------------------------------------------
          | TOTAL ENERGY             -209.199603841431 Eh   |
          | GRADIENT NORM               0.000225562138 Eh/α |
          | HOMO-LUMO GAP               1.556794833669 eV   |
Note: The following floating-point exceptions are signalling: IEEE_UNDERFLOW_FLAG
normal termination of xtb
           -------------------------------------------------
########################################################################
[WARNING] Runtime exception occurred
-3- restart_readRestart: Dimension missmatch in restart file.
-2- restart_readRestart: Multiplicity missmatch in restart file.
-1- restart_readRestart: Number of electron missmatch in restart file.
########################################################################

------------------------------------------------------------------------
 * finished run on 2024/11/25 at 10:50:58.082     
------------------------------------------------------------------------
 total:
 * wall-time:     0 d,  0 h,  0 min, 41.200 sec
 *  cpu-time:     0 d,  0 h,  0 min, 49.730 sec
 * ratio c/w:     1.207 speedup
 SCF:
 * wall-time:     0 d,  0 h,  0 min,  1.741 sec
 *  cpu-time:     0 d,  0 h,  0 min,  1.938 sec
 * ratio c/w:     1.113 speedup
 ANC optimizer:
 * wall-time:     0 d,  0 h,  0 min, 39.433 sec
 *  cpu-time:     0 d,  0 h,  0 min, 47.741 sec
 * ratio c/w:     1.211 speedup

Running optimization for loose_opt_dimer.mol
      -----------------------------------------------------------      
     |                   =====================                   |     
     |                           x T B                           |     
     |                   =====================                   |     
     |                         S. Grimme                         |     
     |          Mulliken Center for Theoretical Chemistry        |     
     |                    University of Bonn                     |     
      -----------------------------------------------------------      

   * xtb version 6.7.1 (43a0e4e5b5d943adc66b4aa6563d39c792f6153b) compiled by 'joseph@Linux' on 2024/10/21

   xtb is free software: you can redistribute it and/or modify it under
   the terms of the GNU Lesser General Public License as published by
   the Free Software Foundation, either version 3 of the License, or
   (at your option) any later version.
   
   xtb is distributed in the hope that it will be useful,
   but WITHOUT ANY WARRANTY; without even the implied warranty of
   MERCHANTABILITY or FITNESS FOR A PARTICULAR PURPOSE.  See the
   GNU Lesser General Public License for more details.
   
   Cite this work as:
   * C. Bannwarth, E. Caldeweyher, S. Ehlert, A. Hansen, P. Pracht,
     J. Seibert, S. Spicher, S. Grimme, WIREs Comput. Mol. Sci., 2020, 11,
     e01493. DOI: 10.1002/wcms.1493
   
   for GFN2-xTB:
   * C. Bannwarth, S. Ehlert and S. Grimme., J. Chem. Theory Comput., 2019,
     15, 1652-1671. DOI: 10.1021/acs.jctc.8b01176
   for GFN1-xTB:
   * S. Grimme, C. Bannwarth, P. Shushkov, J. Chem. Theory Comput., 2017,
     13, 1989-2009. DOI: 10.1021/acs.jctc.7b00118
   for GFN0-xTB:
   * P. Pracht, E. Caldeweyher, S. Ehlert, S. Grimme, ChemRxiv, 2019, preprint.
     DOI: 10.26434/chemrxiv.8326202.v1
   for GFN-FF:
   * S. Spicher and S. Grimme, Angew. Chem. Int. Ed., 2020, 59, 15665-15673.
     DOI: 10.1002/anie.202004239
   
   for ALPB and GBSA implicit solvation:
   * S. Ehlert, M. Stahn, S. Spicher, S. Grimme, J. Chem. Theory Comput.,
     2021, 17, 4250-4261. DOI: 10.1021/acs.jctc.1c00471
   
   for ddCOSMO and CPCM-X implicit solvation:
   * M. Stahn, S. Ehlert, S. Grimme, J. Phys. Chem. A,
     2023, XX, XXXX-XXXX. DOI: 10.1021/acs.jpca.3c04382
   
   for DFT-D4:
   * E. Caldeweyher, C. Bannwarth and S. Grimme, J. Chem. Phys., 2017,
     147, 034112. DOI: 10.1063/1.4993215
   * E. Caldeweyher, S. Ehlert, A. Hansen, H. Neugebauer, S. Spicher,
     C. Bannwarth and S. Grimme, J. Chem. Phys., 2019, 150, 154122.
     DOI: 10.1063/1.5090222
   * E. Caldeweyher, J.-M. Mewes, S. Ehlert and S. Grimme, Phys. Chem. Chem. Phys.
     2020, 22, 8499-8512. DOI: 10.1039/D0CP00502A
   
   for sTDA-xTB:
   * S. Grimme and C. Bannwarth, J. Chem. Phys., 2016, 145, 054103.
     DOI: 10.1063/1.4959605
   
   in the mass-spec context:
   * V. Asgeirsson, C. Bauer and S. Grimme, Chem. Sci., 2017, 8, 4879.
     DOI: 10.1039/c7sc00601b
   * J. Koopman and S. Grimme, ACS Omega 2019, 4, 12, 15120-15133.
     DOI: 10.1021/acsomega.9b02011
   
   for metadynamics refer to:
   * S. Grimme, J. Chem. Theory Comput., 2019, 155, 2847-2862
     DOI: 10.1021/acs.jctc.9b00143
   
   for SPH calculations refer to:
   * S. Spicher and S. Grimme, J. Chem. Theory Comput., 2021, 17, 1701-1714
     DOI: 10.1021/acs.jctc.0c01306
   
   for ONIOM refer to:
   * C. Plett, A. Katbashev, S. Ehlert, S. Grimme, M. Bursch,
     Phys. Chem. Chem. Phys., 2023, 25, 17860-17868. DOI: 10.1039/D3CP02178E
   
   for DIPRO refer to:
   * J. Kohn, N. Gildemeister, S. Grimme, D. Fazzi, A. Hansen,
     J. Chem. Phys., 2023, just accepted.
   
   for PTB refer to:
   * S. Grimme, M. Mueller, A. Hansen, J. Chem. Phys., 2023, 158, 124111.
     DOI: 10.1063/5.0137838
   
   with help from (in alphabetical order)
   P. Atkinson, C. Bannwarth, F. Bohle, G. Brandenburg, E. Caldeweyher
   M. Checinski, S. Dohm, S. Ehlert, S. Ehrlich, I. Gerasimov, C. Hölzer
   A. Katbashev, J. Kohn, J. Koopman, C. Lavigne, S. Lehtola, F. März, M. Müller,
   F. Musil, H. Neugebauer, J. Pisarek, C. Plett, P. Pracht, F. Pultar,
   J. Seibert, P. Shushkov, S. Spicher, M. Stahn, M. Steiner, T. Strunk,
   J. Stückrath, T. Rose, and J. Unsleber
   
 * started run on 2024/11/25 at 10:50:58.086     
   ID    Z sym.   atoms
    1    6 C      1-9, 11, 12, 14-21, 24-35, 42, 43, 77-85, 87, 88, 90-97,
                  100-111, 118, 119
    2    7 N      10, 13, 86, 89
    3    8 O      22, 23, 98, 99
    4    1 H      36-41, 44-76, 112-117, 120-152

           -------------------------------------------------
          |                Calculation Setup                |
           -------------------------------------------------

          program call               : xtb opt_dimer.mol --dipro 0.3 --gfn 2 --chrg 0 --uhf 2
          coordinate file            : opt_dimer.mol
          omp threads                :                     4


molecular fragmentation (1/2 indicates fragments):
111111111111111111111111111111111111111111111111111111111111111111111111
111122222222222222222222222222222222222222222222222222222222222222222222
22222222
# atoms in fragment 1/2:    76    76
 fragment masses (1/2) :      495.68      495.68
CMA distance (Bohr)    :  12.627
constraining FC (au)   :  0.0500

           -------------------------------------------------
          |                 G F N 2 - x T B                 |
           -------------------------------------------------

        Reference                      10.1021/acs.jctc.8b01176
      * Hamiltonian:
        H0-scaling (s, p, d)           1.850000    2.230000    2.230000
        zeta-weighting                 0.500000
      * Dispersion:
        s8                             2.700000
        a1                             0.520000
        a2                             5.000000
        s9                             5.000000
      * Repulsion:
        kExp                           1.500000    1.000000
        rExp                           1.000000
      * Coulomb:
        alpha                          2.000000
        third order                    shell-resolved
        anisotropic                    true
        a3                             3.000000
        a5                             4.000000
        cn-shift                       1.200000
        cn-exp                         4.000000
        max-rad                        5.000000

q/qsh data taken from xtbrestart
CAMM data taken from xtbrestart
           -------------------------------------------------
          |                    D I P R O                    |
           -------------------------------------------------
Calculation for dimer 
--------------------- 
  
charge of dimer :   0.
unpaired e- of dimer :  2
repulsion energy          3.2410640954491E+00 Eh
dispersion energy         1.1594218174909E-02 Eh
number of electrons       3.8600000000000E+02 e
integral cutoff           1.7347787504999E+01 bohr

------------------------------------------------------------
  cycle        total energy    energy error   density error
------------------------------------------------------------
      1     -208.7451342563  -2.1199779E+02   1.2456821E-01
      2     -209.1035491923  -3.5841494E-01   6.1917349E-02
      3     -209.0562537785   4.7295414E-02   3.7158802E-02
      4     -209.1561006989  -9.9846920E-02   1.6318438E-02
      5     -209.1966052582  -4.0504559E-02   5.3380978E-03
      6     -209.1977588624  -1.1536042E-03   2.9961491E-03
      7     -209.1992247348  -1.4658725E-03   1.4269604E-03
      8     -209.1994498698  -2.2513499E-04   7.2235816E-04
      9     -209.1995207770  -7.0907213E-05   3.2654728E-04
     10     -209.1995391872  -1.8410124E-05   1.3979400E-04
     11     -209.1995421668  -2.9795929E-06   5.1958925E-05
     12     -209.1995424199  -2.5314500E-07   2.8444832E-05
     13     -209.1995424947  -7.4819411E-08   1.4078105E-05
------------------------------------------------------------

electronic energy        -2.1245220080835E+02 Eh
total energy             -2.0919954249472E+02 Eh

 total:                                   1.784 sec
 - repulsion                              0.000 sec (  0%)
 - dispersion                             0.007 sec (  0%)
 - coulomb                                0.004 sec (  0%)
 - hamiltonian                            0.007 sec (  0%)
 - scc                                    1.766 sec ( 98%)

Found 2 fragments!
Fragment 1:  1-76
Fragment 2:  77-152

[Info] Fragment spin read from .UHFfrag
Calculation for fragment 1
 ------------------------------
   
charge of fragment :   0.
unpaired e- of fragment :  1
------------------------------------------------------------
  cycle        total energy    energy error   density error
------------------------------------------------------------
      1     -104.3587363363  -1.0598130E+02   1.2562953E-01
      2     -104.5412062776  -1.8246994E-01   6.2541117E-02
      3     -104.5209969067   2.0209371E-02   3.7152426E-02
      4     -104.5676467798  -4.6649873E-02   1.6262612E-02
      5     -104.5860796386  -1.8432859E-02   4.9102429E-03
      6     -104.5865370676  -4.5742895E-04   2.3826771E-03
      7     -104.5868296442  -2.9257669E-04   1.2270377E-03
      8     -104.5869057581  -7.6113814E-05   5.8966130E-04
      9     -104.5869288282  -2.3070105E-05   2.0854192E-04
     10     -104.5869313650  -2.5368689E-06   8.4340376E-05
     11     -104.5869318027  -4.3768334E-07   3.5547842E-05
     12     -104.5869318421  -3.9343348E-08   1.7357092E-05
------------------------------------------------------------

 total:                                   0.263 sec
Calculation for fragment 2
 ------------------------------
   
charge of fragment :   0.
unpaired e- of fragment :  1
------------------------------------------------------------
  cycle        total energy    energy error   density error
------------------------------------------------------------
      1     -104.3545482421  -1.0597465E+02   1.2374440E-01
      2     -104.5356154006  -1.8106716E-01   6.1499237E-02
      3     -104.5164169450   1.9198456E-02   3.6867000E-02
      4     -104.5669825340  -5.0565589E-02   1.5839224E-02
      5     -104.5847725922  -1.7790058E-02   4.7690291E-03
      6     -104.5852129341  -4.4034186E-04   2.0854922E-03
      7     -104.5853789594  -1.6602533E-04   1.0916774E-03
      8     -104.5854226738  -4.3714375E-05   5.9401259E-04
      9     -104.5854512850  -2.8611216E-05   2.2895613E-04
     10     -104.5854546799  -3.3948838E-06   9.0923388E-05
     11     -104.5854552580  -5.7811539E-07   3.6436153E-05
     12     -104.5854552998  -4.1842554E-08   1.8745813E-05
------------------------------------------------------------

 total:                                   0.266 sec
   
   ::::::::::::::::::::::::::::::::::::::::::::::
   ::     D I P R O      C O U P L I N G S     ::
   ::::::::::::::::::::::::::::::::::::::::::::::
   
energy threshhold for near-degenerate orbitals near HOMO and LUMO considered for DIPRO:  0.300 eV
no. of orbitals within energy window of frag 1         2
no. of orbitals within energy window of frag 2         2
   
  Fragment 1 SOMO   Fragment 2 SOMO 
--------------------------------------
E_mon(orb) frag1 frag2              -9.491    -9.356 eV
J(AB):                0.003 eV
S(AB):            -0.00014559 Eh
|J(AB,eff)|:            0.002 eV
   
  Fragment 1 SOMO   Fragment 2 LUMO 
--------------------------------------
E_mon(orb) frag1 frag2              -9.491    -8.952 eV
J(AB):                0.012 eV
S(AB):            -0.00057336 Eh
|J(AB,eff)|:            0.007 eV
   
  Fragment 1 LUMO   Fragment 2 SOMO 
--------------------------------------
E_mon(orb) frag1 frag2              -9.084    -9.356 eV
J(AB):                0.006 eV
S(AB):            -0.00027091 Eh
|J(AB,eff)|:            0.003 eV
   
  Fragment 1 LUMO   Fragment 2 LUMO 
--------------------------------------
E_mon(orb) frag1 frag2              -9.084    -8.952 eV
J(AB):                0.012 eV
S(AB):            -0.00058077 Eh
|J(AB,eff)|:            0.007 eV
   
..............................................................................
:  total |J(AB,eff)| for hole transport (occ. MOs) :               0.002 eV  :
:  total |J(AB,eff)| for charge transport (unocc. MOs) :           0.007 eV  :
:  total |J(AB,eff)| for charge transfer (CT) :                    0.008 eV  :
..............................................................................
  
 Please remember, DIPRO is not available for restart!
   
normal termination of dipro
----------------------------------------------------------
 * finished run on 2024/11/25 at 10:51:00.433     
----------------------------------------------------------
 dipro:
 * wall-time:     0 d,  0 h,  0 min,  2.341 sec
 *  cpu-time:     0 d,  0 h,  0 min,  3.736 sec
 * ratio c/w:     1.596 speedup
